INSANE! Membrane UpperLeaflet>loPI:POPI:DPPI:PYPI:ERGO=30.0:5.0:3.0:2.0:10.0 LowerLeaflet>PSPI:POPI:POPS:YOPS:POPE:YOPE:POPC:YOPC:ERGO=6.0:14.0:21.0:9.0:9.0:21.0:12.0:48.0:60.0
49074
    1loPI    C1    1  16.836   3.404  10.126  0.2337  0.2810 -0.0062
    1loPI    C2    2  17.018   3.139  10.364 -0.0245  0.0883 -0.0193
    1loPI    C3    3  17.009   3.525  10.466  0.2401  0.0744  0.0659
    1loPI   PO4    4  16.653   3.204  10.018  0.1429 -0.1674 -0.2395
    1loPI   GL1    5  16.311   3.097   9.714 -0.3832 -0.1813  0.0792
    1loPI   GL2    6  16.381   3.352   9.617 -0.4445 -0.1104 -0.1731
    1loPI   C1A    7  16.368   2.801   9.359 -0.0022 -0.2775  0.1133
    1loPI   C2A    8  16.331   2.736   8.972 -0.0618 -0.0681 -0.0727
    1loPI   C3A    9  16.120   2.801   8.616  0.1165  0.1303  0.2124
    1loPI   C4A   10  15.771   3.105   8.504 -0.0820 -0.0175 -0.1516
    1loPI   C5A   11  15.371   3.123   8.772  0.0978  0.0225 -0.1583
    1loPI   C6A   12  15.262   2.847   9.077  0.0932  0.3108  0.0569
    1loPI   C1B   13  16.199   3.349   9.166  0.1481 -0.0829 -0.0405
    1loPI   C2B   14  16.214   3.281   8.794 -0.1213  0.0518  0.1869
    1loPI   C3B   15  16.247   3.274   8.346 -0.0880  0.2138 -0.1023
    1loPI   C4B   16  16.298   2.882   8.027  0.2434  0.3503  0.0104
    2loPI    C1   17   7.046   2.756  10.379  0.0693 -0.0188 -0.1022
    2loPI    C2   18   6.720   2.791  10.608  0.0819  0.1582 -0.1101
    2loPI    C3   19   7.051   2.622  10.756  0.1008  0.3021  0.0141
    2loPI   PO4   20   6.928   2.639  10.182  0.1339 -0.0330  0.1123
    2loPI   GL1   21   6.846   2.657   9.729 -0.1330  0.1400  0.1555
    2loPI   GL2   22   6.844   2.913   9.812 -0.1570  0.0687 -0.3686
    2loPI   C1A   23   6.592   2.583   9.386  0.0374 -0.3563  0.0011
    2loPI   C2A   24   6.667   2.360   9.038  0.0908  0.0018 -0.1319
    2loPI   C3A   25   6.518   2.234   8.665  0.1950 -0.0996  0.0213
    2loPI   C4A   26   6.217   2.318   8.375  0.2694  0.1328  0.2144
    2loPI   C5A   27   6.263   2.506   8.113 -0.0277 -0.2614 -0.1150
    2loPI   C6A   28   5.998   2.868   7.946 -0.0110  0.0803 -0.1862
    2loPI   C1B   29   6.800   2.968   9.279 -0.5755  0.2298 -0.2125
    2loPI   C2B   30   6.624   2.837   8.889  0.0046 -0.5390  0.1173
    2loPI   C3B   31   6.487   2.740   8.468  0.0464  0.3030 -0.1823
    2loPI   C4B   32   6.853   2.399   8.305  0.1396  0.0378 -0.0716
    3loPI    C1   33  17.734   3.055  10.162  0.0306 -0.1279 -0.0615
    3loPI    C2   34  17.416   2.833  10.261 -0.2219  0.2626  0.0258
    3loPI    C3   35  17.633   3.011  10.547 -0.1566  0.3124 -0.0542
    3loPI   PO4   36  17.804   2.942   9.984  0.2004 -0.3918  0.2643
    3loPI   GL1   37  17.547   2.919   9.627 -0.0495 -0.4684 -0.0453
    3loPI   GL2   38  17.648   2.630   9.576  0.2238 -0.1522  0.0005
    3loPI   C1A   39  17.366   2.794   9.206 -0.0176  0.1561 -0.3369
    3loPI   C2A   40  17.201   2.984   8.855  0.0307 -0.1330 -0.0598
    3loPI   C3A   41  17.089   2.861   8.577 -0.2326 -0.0653 -0.0003
    3loPI   C4A   42  16.932   2.717   8.233 -0.2724 -0.1406  0.1069
    3loPI   C5A   43  16.739   2.578   7.827  0.1704 -0.2196 -0.1100
    3loPI   C6A   44  16.478   2.390   7.575  0.0239  0.1375 -0.0216
    3loPI   C1B   45  17.660   2.401   9.227  0.2292  0.0540  0.1581
    3loPI   C2B   46  17.778   2.165   8.860  0.0080 -0.0587 -0.2240
    3loPI   C3B   47  17.628   1.990   8.482  0.0952 -0.1705  0.0797
    3loPI   C4B   48  17.760   1.792   8.075 -0.0672  0.0559 -0.3060
    4loPI    C1   49  12.814  13.936  10.501  0.0773 -0.0211 -0.0873
    4loPI    C2   50  12.923  14.296  10.637  0.1944 -0.0290 -0.1598
    4loPI    C3   51  13.109  13.967  10.769 -0.1028 -0.0886  0.1219
    4loPI   PO4   52  12.767  14.041  10.239  0.0095 -0.0809  0.0249
    4loPI   GL1   53  12.671  13.896   9.836 -0.1278 -0.1923  0.0839
    4loPI   GL2   54  12.349  13.755   9.868 -0.0768  0.2132 -0.0225
    4loPI   C1A   55  12.554  14.227   9.560  0.1077  0.0979  0.0679
    4loPI   C2A   56  12.543  14.224   9.138  0.0454  0.1251 -0.0230
    4loPI   C3A   57  12.274  14.217   8.681  0.0726  0.2303 -0.0251
    4loPI   C4A   58  12.063  14.452   8.356  0.0790  0.2482  0.2040
    4loPI   C5A   59  11.728  14.619   8.026  0.0488 -0.0365 -0.0080
    4loPI   C6A   60  11.455  14.913   7.976  0.3540  0.0098  0.0897
    4loPI   C1B   61  12.478  13.751   9.363  0.0454  0.1810 -0.4078
    4loPI   C2B   62  12.608  13.822   8.903  0.3363  0.4316  0.2196
    4loPI   C3B   63  12.626  14.039   8.418 -0.0674  0.3809  0.1448
    4loPI   C4B   64  12.782  13.999   7.977 -0.1502 -0.2126 -0.0309
    5loPI    C1   65   1.958   2.571  10.534  0.2062 -0.2025  0.2240
    5loPI    C2   66   2.085   2.550  10.913 -0.1921  0.1989  0.3905
    5loPI    C3   67   1.694   2.535  10.832 -0.0994 -0.1501 -0.0348
    5loPI   PO4   68   2.316   2.511  10.461 -0.2650  0.1062  0.0046
    5loPI   GL1   69   2.382   2.598   9.935 -0.4121 -0.4786 -0.0201
    5loPI   GL2   70   2.105   2.613  10.042  0.1295 -0.0237  0.0865
    5loPI   C1A   71   2.488   2.436   9.523 -0.0040  0.0130 -0.1625
    5loPI   C2A   72   2.354   2.173   9.258 -0.2469 -0.2148  0.0722
    5loPI   C3A   73   2.574   1.987   8.890  0.3011 -0.1259  0.2433
    5loPI   C4A   74   2.783   1.711   8.666 -0.0341 -0.1687 -0.1585
    5loPI   C5A   75   2.817   1.821   8.174 -0.1901 -0.1034  0.0299
    5loPI   C6A   76   2.742   1.989   7.853  0.0182 -0.0845  0.1710
    5loPI   C1B   77   1.921   2.584   9.611 -0.0933 -0.0553  0.0462
    5loPI   C2B   78   2.130   2.630   9.195 -0.0746 -0.0865 -0.1832
    5loPI   C3B   79   2.383   2.875   8.845 -0.1915  0.0246  0.0556
    5loPI   C4B   80   2.588   2.755   8.423  0.0590 -0.0466  0.1068
    6loPI    C1   81  17.793   6.044  10.182 -0.1798  0.0524  0.0264
    6loPI    C2   82  18.011   6.288  10.413 -0.1327  0.0766 -0.0435
    6loPI    C3   83  18.081   5.894  10.416 -0.2078  0.0635  0.0686
    6loPI   PO4   84  17.748   6.061   9.893  0.1757 -0.2353  0.1984
    6loPI   GL1   85  17.568   5.908   9.549 -0.0829  0.0834 -0.1828
    6loPI   GL2   86  17.867   5.879   9.431 -0.1357  0.1097 -0.0418
    6loPI   C1A   87  17.417   5.536   9.289 -0.0813 -0.3277  0.1531
    6loPI   C2A   88  17.216   5.246   8.956  0.2376  0.2078 -0.2358
    6loPI   C3A   89  17.315   4.867   8.727  0.1455  0.0305 -0.1021
    6loPI   C4A   90  17.279   4.706   8.378 -0.0926  0.1119 -0.0233
    6loPI   C5A   91  17.243   4.965   7.978  0.0607  0.2618 -0.0597
    6loPI   C6A   92  17.364   5.296   7.973 -0.2850  0.0339  0.1498
    6loPI   C1B   93  17.894   5.448   9.487  0.0369 -0.2309  0.0080
    6loPI   C2B   94  17.778   5.091   9.190 -0.0178 -0.1428  0.0734
    6loPI   C3B   95  17.711   5.139   8.770  0.1257 -0.0222 -0.0045
    6loPI   C4B   96  17.779   5.140   8.378  0.1775 -0.2176  0.1335
    7loPI    C1   97   2.375  17.906  10.561  0.1480 -0.1239  0.2525
    7loPI    C2   98   2.329  18.268  10.724 -0.2113 -0.0483 -0.0037
    7loPI    C3   99   2.257  17.940  10.941 -0.3468  0.0434  0.0912
    7loPI   PO4  100   2.311  17.922  10.322  0.1632  0.1171  0.0289
    7loPI   GL1  101   1.997  17.909   9.970 -0.2403  0.1623 -0.2349
    7loPI   GL2  102   1.725  17.803   9.834 -0.4876  0.0436 -0.1993
    7loPI   C1A  103   2.128  18.106   9.661  0.1606  0.3666 -0.0761
    7loPI   C2A  104   2.103  18.246   9.319 -0.2608 -0.1903  0.2424
    7loPI   C3A  105   2.357  18.525   8.925  0.1641 -0.0800 -0.0042
    7loPI   C4A  106   2.371  18.770   8.578 -0.0437  0.1566  0.1329
    7loPI   C5A  107   2.473  18.887   8.186  0.2163  0.4037 -0.3058
    7loPI   C6A  108   2.652  18.693   7.869 -0.1034  0.3078 -0.1940
    7loPI   C1B  109   1.816  17.769   9.432 -0.1814  0.2489  0.0074
    7loPI   C2B  110   2.009  17.645   9.119  0.0249 -0.2099  0.2107
    7loPI   C3B  111   2.019  17.926   8.811 -0.2433  0.1347  0.2981
    7loPI   C4B  112   1.921  18.271   8.742 -0.3419  0.2635  0.0778
    8loPI    C1  113   1.123   3.654  10.285  0.2470  0.2749  0.1544
    8loPI    C2  114   0.891   3.555  10.595 -0.0150 -0.0294 -0.1319
    8loPI    C3  115   1.263   3.685  10.659 -0.1192  0.0689  0.3144
    8loPI   PO4  116   0.845   3.784  10.168  0.1184 -0.2246 -0.3521
    8loPI   GL1  117   0.975   4.089   9.838  0.1746 -0.0856  0.0214
    8loPI   GL2  118   0.761   3.942   9.682 -0.1001 -0.1505 -0.0748
    8loPI   C1A  119   0.975   4.175   9.276 -0.1518  0.2581  0.1050
    8loPI   C2A  120   1.086   4.201   8.844  0.0366 -0.3979  0.2163
    8loPI   C3A  121   0.957   3.897   8.555 -0.2906  0.1137 -0.1932
    8loPI   C4A  122   0.951   3.546   8.399  0.0154 -0.1456  0.0447
    8loPI   C5A  123   0.727   3.200   8.552  0.1001  0.2500  0.1608
    8loPI   C6A  124   0.987   2.926   8.406  0.1413  0.1295  0.2996
    8loPI   C1B  125   0.605   3.735   9.361 -0.2028  0.0521 -0.0943
    8loPI   C2B  126   0.590   3.751   9.007 -0.0870  0.1572 -0.2653
    8loPI   C3B  127   0.496   3.734   8.601 -0.1384  0.1650  0.0820
    8loPI   C4B  128   0.523   3.551   8.235 -0.0568  0.2927 -0.2601
    9loPI    C1  129   0.832  17.470  10.445  0.1038  0.0302 -0.1375
    9loPI    C2  130   0.647  17.147  10.593  0.0099  0.0807 -0.1435
    9loPI    C3  131   0.432  17.448  10.440  0.0993  0.1195 -0.1934
    9loPI   PO4  132   1.077  17.349  10.391 -0.0571 -0.0309 -0.0436
    9loPI   GL1  133   1.509  17.084  10.079 -0.0477  0.1516 -0.0724
    9loPI   GL2  134   1.460  17.435  10.023  0.1385  0.2020  0.3178
    9loPI   C1A  135   1.438  16.924   9.586  0.1485 -0.1582  0.2004
    9loPI   C2A  136   1.246  16.770   9.171  0.0929 -0.0907 -0.2501
    9loPI   C3A  137   1.022  16.707   8.810 -0.3055  0.1762  0.0090
    9loPI   C4A  138   1.071  16.786   8.390  0.3214  0.2132 -0.4761
    9loPI   C5A  139   1.358  16.938   8.229 -0.3635 -0.0171  0.2870
    9loPI   C6A  140   1.688  17.407   8.235 -0.1550 -0.0378  0.3044
    9loPI   C1B  141   1.426  17.458   9.569  0.1809 -0.0872 -0.1826
    9loPI   C2B  142   1.424  17.595   9.146  0.3049  0.0614  0.0006
    9loPI   C3B  143   1.650  17.462   8.779 -0.0359 -0.0138 -0.0373
    9loPI   C4B  144   2.053  17.452   8.614 -0.0949  0.0731 -0.1367
   10loPI    C1  145   7.240   4.660  10.103 -0.1528  0.2518 -0.2395
   10loPI    C2  146   7.199   4.940  10.387  0.1369  0.1049 -0.0474
   10loPI    C3  147   7.537   4.728  10.363 -0.1581 -0.3822 -0.0512
   10loPI   PO4  148   7.085   4.695   9.927 -0.1667  0.1518  0.0287
   10loPI   GL1  149   7.066   5.000   9.623  0.0607 -0.1265  0.0404
   10loPI   GL2  150   6.736   5.109   9.609  0.2531  0.1689 -0.1784
   10loPI   C1A  151   7.055   4.963   9.258 -0.0010  0.2734 -0.2557
   10loPI   C2A  152   6.957   5.041   8.855  0.2992  0.3559 -0.1854
   10loPI   C3A  153   7.099   4.860   8.487 -0.1134 -0.4236 -0.1672
   10loPI   C4A  154   7.078   4.892   7.963  0.2608 -0.1092 -0.4851
   10loPI   C5A  155   6.896   5.105   7.595 -0.4864 -0.0095  0.0446
   10loPI   C6A  156   6.975   5.160   7.145  0.0353 -0.1532  0.1188
   10loPI   C1B  157   6.329   5.064   9.496 -0.0892 -0.4118 -0.2346
   10loPI   C2B  158   6.091   4.866   9.156 -0.2428  0.1487 -0.0926
   10loPI   C3B  159   6.091   4.887   8.768  0.0839 -0.0580  0.0457
   10loPI   C4B  160   6.086   4.596   8.352  0.0127  0.0302  0.0764
   11loPI    C1  161  13.733   4.792   9.826  0.1796 -0.0483 -0.1954
   11loPI    C2  162  13.657   4.471  10.053 -0.0050  0.1584  0.0415
   11loPI    C3  163  13.514   4.491   9.680  0.1644 -0.1133 -0.0413
   11loPI   PO4  164  14.074   4.813   9.868  0.0719  0.0510  0.1877
   11loPI   GL1  165  14.392   4.799   9.677  0.1553  0.0039 -0.2023
   11loPI   GL2  166  14.627   4.899   9.585 -0.3376  0.1165  0.0962
   11loPI   C1A  167  14.332   5.099   9.252  0.0084 -0.1567  0.0616
   11loPI   C2A  168  14.327   5.141   8.847  0.0102 -0.0211  0.0764
   11loPI   C3A  169  14.301   5.249   8.409  0.1811  0.2957 -0.1154
   11loPI   C4A  170  14.472   5.278   8.035  0.0065 -0.0115 -0.0670
   11loPI   C5A  171  14.462   4.932   7.763 -0.0651  0.1062  0.1678
   11loPI   C6A  172  14.206   4.651   7.584  0.4037  0.1855 -0.0323
   11loPI   C1B  173  14.534   4.630   9.140 -0.0976 -0.1682 -0.1129
   11loPI   C2B  174  14.450   4.668   8.753  0.3976  0.2045 -0.3478
   11loPI   C3B  175  14.401   4.684   8.297 -0.2460  0.0499 -0.1825
   11loPI   C4B  176  14.383   4.402   7.969 -0.0680  0.0902 -0.1140
   12loPI    C1  177   4.983   3.238  10.700 -0.0287  0.0205 -0.0722
   12loPI    C2  178   5.246   3.081  10.958 -0.0504  0.3536  0.1594
   12loPI    C3  179   4.859   3.107  11.057 -0.1409  0.0550 -0.0982
   12loPI   PO4  180   4.964   3.102  10.492  0.0031  0.2062  0.1421
   12loPI   GL1  181   5.031   3.134  10.032  0.0393 -0.0835  0.3595
   12loPI   GL2  182   5.163   3.352  10.060  0.0596 -0.1716 -0.2632
   12loPI   C1A  183   4.940   2.971   9.619  0.0281  0.0704 -0.2200
   12loPI   C2A  184   4.744   3.297   9.360 -0.3004 -0.3176 -0.0586
   12loPI   C3A  185   4.702   3.431   9.052 -0.0182  0.2365  0.0374
   12loPI   C4A  186   4.879   3.608   8.735 -0.0770  0.2960  0.0017
   12loPI   C5A  187   5.216   3.452   8.463 -0.0685 -0.2735 -0.1080
   12loPI   C6A  188   5.371   3.560   8.104 -0.2611  0.0636  0.0908
   12loPI   C1B  189   5.032   3.534   9.737 -0.0224  0.0524  0.0907
   12loPI   C2B  190   5.146   3.617   9.247  0.0125 -0.1787  0.0700
   12loPI   C3B  191   5.192   3.961   8.893  0.3572 -0.3668 -0.1949
   12loPI   C4B  192   5.297   3.998   8.469  0.3114 -0.1630 -0.2630
   13loPI    C1  193   3.269  17.771  10.268  0.1635  0.1647 -0.2661
   13loPI    C2  194   3.010  17.970  10.037  0.0263  0.0187 -0.2399
   13loPI    C3  195   2.918  17.891  10.418  0.0170 -0.2185 -0.2894
   13loPI   PO4  196   3.401  17.607  10.084  0.0674  0.0232 -0.0219
   13loPI   GL1  197   3.405  17.413   9.809 -0.1328 -0.1228  0.0612
   13loPI   GL2  198   3.292  17.159   9.649  0.2721 -0.0896  0.2416
   13loPI   C1A  199   3.488  17.535   9.411  0.0494  0.0138 -0.1234
   13loPI   C2A  200   3.343  17.554   9.025  0.1178 -0.2613 -0.0489
   13loPI   C3A  201   3.155  17.562   8.608  0.4460  0.0108  0.1613
   13loPI   C4A  202   3.039  17.761   8.250  0.2105  0.3362 -0.2501
   13loPI   C5A  203   3.307  17.923   7.933 -0.1638 -0.0657  0.2131
   13loPI   C6A  204   3.422  18.072   7.474 -0.3119  0.1331 -0.1692
   13loPI   C1B  205   3.120  17.232   9.334 -0.0018  0.1597 -0.1887
   13loPI   C2B  206   3.194  17.138   8.881 -0.1418 -0.0156  0.2085
   13loPI   C3B  207   2.995  17.067   8.398  0.3009  0.0918 -0.3730
   13loPI   C4B  208   3.134  17.228   7.995 -0.0205  0.4601 -0.1235
   14loPI    C1  209  16.131  12.738  10.148  0.0941  0.1210 -0.0194
   14loPI    C2  210  16.496  12.876  10.235  0.0944 -0.1141  0.3751
   14loPI    C3  211  16.183  12.979  10.463 -0.1371  0.2865 -0.1053
   14loPI   PO4  212  16.156  12.684   9.828 -0.2293  0.1528  0.2582
   14loPI   GL1  213  16.301  12.573   9.416  0.3053 -0.0173 -0.1301
   14loPI   GL2  214  15.946  12.557   9.329 -0.0880  0.1876 -0.0992
   14loPI   C1A  215  16.341  12.431   9.043 -0.0721 -0.0332 -0.3006
   14loPI   C2A  216  16.383  12.433   8.620 -0.3871  0.0486 -0.0340
   14loPI   C3A  217  16.528  12.519   8.194  0.0781 -0.1349 -0.2517
   14loPI   C4A  218  16.568  12.270   7.839 -0.0838  0.0623 -0.0167
   14loPI   C5A  219  16.582  12.004   7.645  0.1600  0.0223  0.2173
   14loPI   C6A  220  16.626  11.705   7.384  0.1032 -0.0779 -0.2298
   14loPI   C1B  221  15.978  12.697   8.846  0.4192 -0.0002 -0.2132
   14loPI   C2B  222  16.071  12.854   8.441 -0.0288  0.1054 -0.1076
   14loPI   C3B  223  16.096  12.768   8.008  0.1881 -0.1523 -0.1954
   14loPI   C4B  224  16.459  12.732   7.689 -0.0798  0.3580 -0.0542
   15loPI    C1  225  13.864  13.129   9.965 -0.1682  0.1815 -0.0399
   15loPI    C2  226  13.786  13.032  10.345  0.0721  0.0069 -0.0327
   15loPI    C3  227  13.487  13.071  10.083 -0.0733 -0.1756  0.1034
   15loPI   PO4  228  14.037  12.853   9.872  0.0200 -0.0713 -0.0222
   15loPI   GL1  229  14.029  12.813   9.447  0.1381 -0.0371 -0.3393
   15loPI   GL2  230  14.389  12.739   9.543 -0.3334 -0.1407 -0.0663
   15loPI   C1A  231  13.974  12.899   9.012  0.0149 -0.1914 -0.2602
   15loPI   C2A  232  13.977  12.447   8.672 -0.1206 -0.1552 -0.1220
   15loPI   C3A  233  14.204  12.079   8.482 -0.1274  0.1461 -0.0421
   15loPI   C4A  234  14.255  11.825   8.166  0.4937 -0.2673 -0.1687
   15loPI   C5A  235  14.222  11.793   7.605  0.1656  0.0213 -0.0678
   15loPI   C6A  236  14.109  11.761   7.147 -0.2650 -0.0077 -0.1551
   15loPI   C1B  237  14.485  12.944   9.164  0.1338  0.0677  0.0976
   15loPI   C2B  238  14.472  12.895   8.792  0.3141  0.1963 -0.1142
   15loPI   C3B  239  14.178  12.825   8.426  0.0238  0.1068 -0.1305
   15loPI   C4B  240  14.205  12.741   7.955  0.3738 -0.2326  0.0618
   16loPI    C1  241   5.228   1.959  10.469 -0.2023 -0.0072 -0.0888
   16loPI    C2  242   5.573   2.138  10.562 -0.1685 -0.0726 -0.0881
   16loPI    C3  243   5.394   1.899  10.828 -0.3100  0.1084 -0.0185
   16loPI   PO4  244   5.228   1.959  10.265 -0.0937  0.2985 -0.1226
   16loPI   GL1  245   5.473   2.223   9.903  0.0250  0.1932 -0.3923
   16loPI   GL2  246   5.520   2.393  10.066  0.1884  0.1312  0.1265
   16loPI   C1A  247   5.654   2.211   9.506  0.1343 -0.1223  0.0063
   16loPI   C2A  248   5.670   2.043   9.118  0.2849  0.2718 -0.1806
   16loPI   C3A  249   5.636   1.780   8.771  0.2841 -0.4040  0.3673
   16loPI   C4A  250   5.376   1.542   8.542  0.0501  0.2127 -0.0253
   16loPI   C5A  251   5.336   1.731   8.157  0.0572 -0.1267 -0.0767
   16loPI   C6A  252   5.125   2.052   7.971  0.2553 -0.1576  0.0316
   16loPI   C1B  253   5.365   2.638   9.634  0.0300 -0.1561  0.0963
   16loPI   C2B  254   5.356   2.523   9.128  0.1066 -0.1167 -0.2063
   16loPI   C3B  255   5.185   2.495   8.723  0.0233  0.1057 -0.0459
   16loPI   C4B  256   4.803   2.632   8.494 -0.0239 -0.0500 -0.0750
   17loPI    C1  257  12.844  12.261  10.033 -0.1610 -0.1361  0.1065
   17loPI    C2  258  12.672  11.921  10.155  0.1917 -0.3692 -0.0306
   17loPI    C3  259  12.947  11.914   9.864  0.0412  0.0636 -0.1920
   17loPI   PO4  260  12.626  12.452   9.955 -0.0003  0.1179 -0.4487
   17loPI   GL1  261  12.814  12.792   9.625 -0.0133 -0.0101  0.0962
   17loPI   GL2  262  12.434  12.641   9.511 -0.0706 -0.0698  0.2050
   17loPI   C1A  263  12.856  12.873   9.150  0.1083  0.0220 -0.1558
   17loPI   C2A  264  12.892  12.800   8.702  0.0539  0.1781  0.1083
   17loPI   C3A  265  12.817  12.522   8.358 -0.4883 -0.0217  0.1444
   17loPI   C4A  266  12.998  12.408   7.937  0.0894  0.1942 -0.1780
   17loPI   C5A  267  13.427  12.363   7.895  0.1833 -0.0612  0.1006
   17loPI   C6A  268  13.831  12.589   7.660 -0.0160 -0.1381 -0.2695
   17loPI   C1B  269  12.357  12.761   9.053  0.0727  0.1666 -0.3998
   17loPI   C2B  270  12.358  12.744   8.571  0.2659 -0.0503 -0.2964
   17loPI   C3B  271  12.469  13.015   8.399  0.1029 -0.0319  0.0691
   17loPI   C4B  272  12.302  13.347   8.181 -0.2226 -0.2000 -0.2137
   18loPI    C1  273  17.683  13.779  10.038 -0.2856  0.0387 -0.0372
   18loPI    C2  274  17.532  13.525  10.307 -0.2095 -0.0610 -0.0880
   18loPI    C3  275  17.752  13.836  10.428 -0.3796  0.0343 -0.0196
   18loPI   PO4  276  17.581  13.700   9.831  0.2417 -0.0003 -0.1030
   18loPI   GL1  277  17.562  13.420   9.463  0.0366 -0.2505  0.3151
   18loPI   GL2  278  17.315  13.315   9.526  0.0045  0.0610  0.2257
   18loPI   C1A  279  17.835  13.545   9.131  0.3500 -0.1432 -0.2277
   18loPI   C2A  280  17.996  13.705   8.735 -0.2277 -0.0296 -0.3229
   18loPI   C3A  281  17.880  13.695   8.340  0.1959 -0.0593 -0.0421
   18loPI   C4A  282  18.067  13.566   8.003  0.1455 -0.1785  0.0193
   18loPI   C5A  283  18.178  13.321   7.635  0.2528  0.0350 -0.0137
   18loPI   C6A  284  18.378  13.107   7.365 -0.0966  0.0138  0.2587
   18loPI   C1B  285  17.416  13.051   9.132  0.0138 -0.2349  0.0287
   18loPI   C2B  286  17.219  13.122   8.718 -0.2035 -0.0922 -0.2167
   18loPI   C3B  287  16.999  13.183   8.309 -0.1525 -0.1612  0.3500
   18loPI   C4B  288  17.016  13.499   7.987  0.0520 -0.2684  0.1124
   19loPI    C1  289  17.982  11.395   9.956  0.0591  0.0509 -0.1356
   19loPI    C2  290  18.380  11.392   9.920  0.0582 -0.0988 -0.1367
   19loPI    C3  291  18.163  11.096   9.760 -0.0408 -0.1028  0.0039
   19loPI   PO4  292  17.966  11.712   9.904  0.0691 -0.2731  0.0222
   19loPI   GL1  293  17.950  12.014   9.557 -0.0339  0.4293  0.1083
   19loPI   GL2  294  18.264  12.049   9.255  0.0777 -0.0759 -0.0511
   19loPI   C1A  295  17.744  12.159   9.160 -0.2516  0.1327  0.2225
   19loPI   C2A  296  17.510  12.201   8.721 -0.0710 -0.1299 -0.4133
   19loPI   C3A  297  17.347  12.266   8.389 -0.1621 -0.0533 -0.0479
   19loPI   C4A  298  17.297  12.244   7.973  0.2116  0.0444 -0.1278
   19loPI   C5A  299  17.053  12.193   7.583  0.0506 -0.1416  0.1133
   19loPI   C6A  300  16.892  12.077   7.195  0.3010  0.1405 -0.1341
   19loPI   C1B  301  18.278  11.831   8.867 -0.2793 -0.2105 -0.2381
   19loPI   C2B  302  18.213  11.814   8.437  0.0431 -0.1113  0.0214
   19loPI   C3B  303  17.856  11.709   8.188 -0.2927 -0.1719 -0.1798
   19loPI   C4B  304  17.757  11.255   8.314 -0.0326  0.1588 -0.0533
   20loPI    C1  305   6.875  17.307  10.934 -0.0974 -0.1586 -0.1858
   20loPI    C2  306   6.524  17.158  11.053 -0.0510 -0.1131  0.0109
   20loPI    C3  307   6.751  17.365  11.309  0.0002  0.0827 -0.1890
   20loPI   PO4  308   6.803  17.398  10.652 -0.2286 -0.0092 -0.3046
   20loPI   GL1  309   6.821  17.233  10.235 -0.1301  0.2268  0.2642
   20loPI   GL2  310   7.034  17.263  10.013 -0.2907  0.1573 -0.0084
   20loPI   C1A  311   6.635  16.977   9.954 -0.2025 -0.0343  0.2033
   20loPI   C2A  312   6.575  16.915   9.568 -0.0877  0.2194 -0.3121
   20loPI   C3A  313   6.600  16.938   9.076 -0.0447  0.2568 -0.0682
   20loPI   C4A  314   6.630  16.753   8.688  0.1439 -0.2325 -0.0697
   20loPI   C5A  315   6.819  16.844   8.453  0.0552 -0.2566  0.0993
   20loPI   C6A  316   6.992  17.007   8.148 -0.1633  0.1080  0.2960
   20loPI   C1B  317   6.972  17.403   9.592 -0.2424  0.0630  0.0457
   20loPI   C2B  318   6.858  17.321   9.210 -0.1897  0.0951 -0.0229
   20loPI   C3B  319   6.763  17.302   8.734  0.2949 -0.0082 -0.4474
   20loPI   C4B  320   6.680  17.390   8.299 -0.0688 -0.1264 -0.0063
   21loPI    C1  321   0.654   1.062  10.707 -0.1359 -0.2394 -0.1273
   21loPI    C2  322   0.372   1.345  10.707  0.1303  0.0314 -0.0662
   21loPI    C3  323   0.404   1.095  11.018  0.0906  0.1356  0.0225
   21loPI   PO4  324   0.870   1.256  10.633 -0.3345 -0.0170  0.0117
   21loPI   GL1  325   1.103   1.293  10.268  0.2398 -0.1693 -0.0685
   21loPI   GL2  326   0.902   1.306   9.919  0.1480  0.0893  0.0262
   21loPI   C1A  327   1.362   1.389   9.990  0.1635  0.3286 -0.1616
   21loPI   C2A  328   1.378   1.611   9.686  0.2937  0.1333  0.3829
   21loPI   C3A  329   1.159   1.705   9.208 -0.1003  0.0263 -0.0896
   21loPI   C4A  330   1.309   1.928   8.823  0.1208 -0.1841 -0.0214
   21loPI   C5A  331   1.501   2.260   8.497 -0.0309  0.1901 -0.1450
   21loPI   C6A  332   1.845   2.242   8.287 -0.3045 -0.1782  0.0449
   21loPI   C1B  333   1.020   1.144   9.471  0.0525 -0.1762 -0.3385
   21loPI   C2B  334   0.985   1.085   9.008 -0.0605 -0.2643  0.2169
   21loPI   C3B  335   1.117   0.861   8.726 -0.0035 -0.1002  0.0969
   21loPI   C4B  336   1.310   0.984   8.440 -0.2760 -0.1515  0.0679
   22loPI    C1  337  14.965   8.907  10.098  0.0963  0.0590  0.0668
   22loPI    C2  338  14.613   9.044   9.966  0.1527  0.0556 -0.0893
   22loPI    C3  339  14.692   9.040  10.358 -0.0780 -0.0818 -0.0420
   22loPI   PO4  340  15.113   8.963   9.908 -0.2052 -0.0624  0.4105
   22loPI   GL1  341  15.062   9.082   9.476  0.0645  0.0985 -0.4427
   22loPI   GL2  342  14.874   9.361   9.516 -0.0176 -0.1353  0.1851
   22loPI   C1A  343  15.065   9.010   9.076 -0.0382  0.1914  0.0056
   22loPI   C2A  344  15.143   9.022   8.617 -0.2163  0.0682  0.1706
   22loPI   C3A  345  14.928   9.217   8.173  0.0185  0.0406  0.0182
   22loPI   C4A  346  14.768   9.440   7.722 -0.0593 -0.0169  0.3091
   22loPI   C5A  347  14.851   9.612   7.496  0.1753 -0.1877 -0.0587
   22loPI   C6A  348  14.763  10.005   7.277  0.1914 -0.1350  0.0647
   22loPI   C1B  349  14.632   9.343   9.193 -0.1560  0.2735 -0.1166
   22loPI   C2B  350  14.695   9.292   8.871  0.3521  0.1736 -0.2078
   22loPI   C3B  351  14.480   9.476   8.551  0.0287  0.0870 -0.0173
   22loPI   C4B  352  14.439   9.494   8.082 -0.0148  0.1168 -0.2491
   23loPI    C1  353  18.108  12.729  10.098  0.0508 -0.1634 -0.0040
   23loPI    C2  354  18.494  12.704   9.996  0.0916 -0.1300  0.1404
   23loPI    C3  355  18.371  12.563  10.349 -0.0314 -0.1567  0.0873
   23loPI   PO4  356  18.001  12.796   9.871  0.2130 -0.0711  0.1181
   23loPI   GL1  357  18.030  13.007   9.487  0.1616 -0.1170 -0.0244
   23loPI   GL2  358  18.342  12.918   9.539 -0.3702  0.0373 -0.0855
   23loPI   C1A  359  17.939  13.043   9.112 -0.0743 -0.1336 -0.0573
   23loPI   C2A  360  17.854  13.174   8.696  0.1310  0.0809  0.3337
   23loPI   C3A  361  17.812  13.136   8.252 -0.1141  0.1143 -0.5191
   23loPI   C4A  362  17.902  13.055   7.938  0.2965 -0.0036 -0.1017
   23loPI   C5A  363  18.089  12.757   7.663  0.1979  0.0201  0.1697
   23loPI   C6A  364  18.302  12.370   7.790 -0.2000 -0.0835 -0.3203
   23loPI   C1B  365  18.448  12.979   9.276 -0.1853 -0.0899  0.0376
   23loPI   C2B  366  18.399  13.072   8.924  0.1610  0.2902 -0.1875
   23loPI   C3B  367  18.372  12.803   8.605 -0.1218 -0.3204  0.0501
   23loPI   C4B  368  18.167  12.686   8.175 -0.2186  0.0662  0.3034
   24loPI    C1  369  10.055   3.342  10.149 -0.0998 -0.2357  0.1516
   24loPI    C2  370   9.913   3.605  10.415  0.1049 -0.0053  0.0375
   24loPI    C3  371  10.264   3.425  10.480 -0.1074 -0.3752  0.1921
   24loPI   PO4  372   9.874   3.427   9.901  0.2408 -0.0270  0.3345
   24loPI   GL1  373   9.711   3.523   9.531  0.2043  0.0566 -0.0058
   24loPI   GL2  374   9.687   3.875   9.499  0.3608  0.3133  0.2968
   24loPI   C1A  375   9.645   3.395   9.210  0.3769 -0.2485  0.1770
   24loPI   C2A  376   9.606   3.188   8.849  0.0006 -0.2863 -0.0909
   24loPI   C3A  377   9.387   2.815   8.490  0.0013  0.1535 -0.0032
   24loPI   C4A  378   9.131   2.584   8.233 -0.0117  0.2702 -0.2826
   24loPI   C5A  379   8.713   2.687   8.227  0.2490 -0.3308  0.0854
   24loPI   C6A  380   8.544   2.938   8.571  0.2326 -0.0099 -0.1612
   24loPI   C1B  381   9.546   4.065   9.055 -0.1016  0.2325 -0.0530
   24loPI   C2B  382   9.549   4.067   8.641 -0.1341 -0.0351 -0.1118
   24loPI   C3B  383   9.660   4.294   8.300 -0.1248  0.0265 -0.3220
   24loPI   C4B  384   9.557   4.263   7.942  0.3590 -0.2005 -0.1784
   25loPI    C1  385  18.437   3.412  10.436  0.0101  0.2426  0.0721
   25loPI    C2  386  18.212   3.741  10.396  0.1828  0.3346 -0.1646
   25loPI    C3  387  18.482   3.718  10.690 -0.1592  0.2069  0.1464
   25loPI   PO4  388  18.180   3.213  10.352  0.2078  0.3264 -0.0223
   25loPI   GL1  389  18.252   2.879  10.084 -0.2247  0.0905  0.0495
   25loPI   GL2  390  18.157   2.687   9.776 -0.2855 -0.0600 -0.0187
   25loPI   C1A  391  18.475   3.059   9.678 -0.1602  0.1698 -0.3037
   25loPI   C2A  392  18.555   3.029   9.217 -0.0060  0.1238 -0.1512
   25loPI   C3A  393  18.275   3.274   8.936 -0.1563  0.2507 -0.1116
   25loPI   C4A  394  18.203   3.375   8.492 -0.4152  0.3817  0.2041
   25loPI   C5A  395  17.893   3.439   8.122  0.1116  0.0316  0.2728
   25loPI   C6A  396  17.452   3.436   8.165  0.0602 -0.2540 -0.5204
   25loPI   C1B  397  18.231   2.688   9.378 -0.1056  0.4107  0.0462
   25loPI   C2B  398  18.115   2.535   9.000  0.1383  0.0450 -0.3561
   25loPI   C3B  399  17.829   2.585   8.513  0.0409  0.1130  0.1780
   25loPI   C4B  400  17.951   2.860   8.201  0.0069 -0.1751 -0.0912
   26loPI    C1  401   0.082   4.638  10.059 -0.1296  0.0148  0.2392
   26loPI    C2  402  -0.063   4.913   9.807 -0.1899 -0.0840  0.1652
   26loPI    C3  403  -0.086   4.971  10.202 -0.0057  0.1176  0.1484
   26loPI   PO4  404   0.343   4.550   9.858  0.0372 -0.3505 -0.0387
   26loPI   GL1  405   0.379   4.732   9.530  0.0824  0.0131 -0.0521
   26loPI   GL2  406   0.671   4.558   9.447 -0.2487  0.0265  0.0249
   26loPI   C1A  407   0.313   4.914   9.093  0.0746  0.3006 -0.1299
   26loPI   C2A  408   0.181   4.901   8.696 -0.0045 -0.1576  0.0661
   26loPI   C3A  409   0.069   4.772   8.243  0.2147  0.2291  0.2911
   26loPI   C4A  410  -0.088   4.701   7.851 -0.2974 -0.0495 -0.0637
   26loPI   C5A  411   0.013   4.496   7.481 -0.0926  0.1923  0.0753
   26loPI   C6A  412   0.129   4.774   7.163 -0.3225 -0.0280  0.0699
   26loPI   C1B  413   0.822   4.750   9.125  0.1251  0.3228  0.0100
   26loPI   C2B  414   0.719   4.894   8.646  0.0220 -0.0427 -0.4205
   26loPI   C3B  415   0.523   4.913   8.240  0.3490 -0.1890  0.1505
   26loPI   C4B  416   0.391   5.010   7.750  0.0118 -0.1168  0.1684
   27loPI    C1  417   6.710   7.850  10.091  0.0648  0.4584  0.0160
   27loPI    C2  418   6.557   7.921  10.454 -0.1383  0.2447 -0.0254
   27loPI    C3  419   6.316   7.817  10.152  0.0940 -0.1744 -0.0740
   27loPI   PO4  420   6.998   7.866  10.106  0.1950 -0.0336 -0.1461
   27loPI   GL1  421   7.177   8.028   9.801  0.0521  0.3219 -0.2039
   27loPI   GL2  422   7.477   7.925   9.730  0.3065 -0.2873 -0.1396
   27loPI   C1A  423   6.930   7.830   9.444  0.0257  0.1585 -0.1636
   27loPI   C2A  424   6.908   7.727   9.099  0.2239 -0.1301 -0.3427
   27loPI   C3A  425   6.993   7.675   8.708  0.1045 -0.0269  0.2825
   27loPI   C4A  426   6.744   7.433   8.463  0.0276 -0.1456  0.2440
   27loPI   C5A  427   6.586   7.315   8.034  0.1017  0.0979  0.4286
   27loPI   C6A  428   6.801   7.380   7.730 -0.0922  0.1511 -0.1386
   27loPI   C1B  429   7.454   8.085   9.306  0.3376 -0.0178  0.2045
   27loPI   C2B  430   7.300   8.032   8.823 -0.0113  0.0648  0.2201
   27loPI   C3B  431   7.436   8.058   8.365 -0.0055 -0.0287  0.0416
   27loPI   C4B  432   7.663   7.777   8.183  0.1255  0.0606 -0.1230
   28loPI    C1  433   5.390   5.998  10.045  0.0869  0.2913  0.3652
   28loPI    C2  434   5.057   5.911   9.842  0.2699  0.0137  0.1773
   28loPI    C3  435   5.040   6.158  10.156 -0.0938  0.0833  0.1081
   28loPI   PO4  436   5.571   5.718  10.095 -0.1195  0.2496  0.1443
   28loPI   GL1  437   5.754   5.615   9.707 -0.0026  0.4673 -0.1462
   28loPI   GL2  438   5.906   5.281   9.726 -0.2424 -0.2435  0.2643
   28loPI   C1A  439   5.743   5.790   9.340 -0.2241  0.0079  0.2870
   28loPI   C2A  440   5.778   5.566   8.936  0.0157 -0.2807 -0.0100
   28loPI   C3A  441   5.953   5.255   8.518 -0.0341  0.0857  0.1633
   28loPI   C4A  442   6.155   5.068   8.228  0.1580  0.0201  0.0017
   28loPI   C5A  443   6.548   5.260   7.970 -0.1726  0.2577  0.0525
   28loPI   C6A  444   6.731   5.679   7.851  0.0138 -0.3355  0.1068
   28loPI   C1B  445   5.761   5.121   9.372 -0.3191  0.0682  0.0855
   28loPI   C2B  446   5.630   5.093   8.906  0.3619  0.0432 -0.0675
   28loPI   C3B  447   5.586   4.888   8.496  0.1126 -0.1775 -0.1390
   28loPI   C4B  448   5.585   4.702   8.037  0.2052  0.1283  0.0538
   29loPI    C1  449  10.975   2.791  10.405 -0.0121 -0.0824  0.0977
   29loPI    C2  450  11.004   3.097  10.661  0.0638 -0.0438  0.0437
   29loPI    C3  451  11.208   2.759  10.729  0.2386  0.0381 -0.0670
   29loPI   PO4  452  10.999   3.030  10.139  0.0871  0.0618  0.1923
   29loPI   GL1  453  11.259   2.795   9.871 -0.0743 -0.0627  0.0880
   29loPI   GL2  454  11.550   2.967   9.919 -0.2054 -0.0285  0.2975
   29loPI   C1A  455  11.087   2.750   9.489  0.0280 -0.1842  0.0914
   29loPI   C2A  456  10.955   2.905   9.050  0.5354  0.1219  0.3447
   29loPI   C3A  457  10.697   2.843   8.672 -0.2717 -0.1340  0.0835
   29loPI   C4A  458  10.367   2.803   8.487 -0.1477  0.1019 -0.1579
   29loPI   C5A  459  10.137   2.999   8.253 -0.0257 -0.1811 -0.0656
   29loPI   C6A  460   9.720   3.132   8.347 -0.0900 -0.2897 -0.1260
   29loPI   C1B  461  11.574   3.041   9.479  0.2754 -0.0552  0.1244
   29loPI   C2B  462  11.486   3.022   9.052 -0.0275 -0.0978 -0.3291
   29loPI   C3B  463  11.479   2.916   8.632 -0.1526  0.0361  0.3249
   29loPI   C4B  464  11.859   2.850   8.382  0.0433 -0.2878 -0.3583
   30loPI    C1  465   0.957  15.182  10.403 -0.1683 -0.0325 -0.1736
   30loPI    C2  466   0.867  15.488  10.643  0.1457  0.2232 -0.3741
   30loPI    C3  467   1.249  15.380  10.592  0.0376 -0.2160 -0.2939
   30loPI   PO4  468   0.799  15.223  10.193  0.0938  0.0861 -0.0820
   30loPI   GL1  469   0.803  15.483   9.816  0.1026 -0.0569  0.2538
   30loPI   GL2  470   0.991  15.465   9.648 -0.2367 -0.2185 -0.0227
   30loPI   C1A  471   0.586  15.674   9.431  0.0670  0.1011  0.0205
   30loPI   C2A  472   0.478  15.951   9.109  0.0996 -0.0310  0.1040
   30loPI   C3A  473   0.406  15.932   8.628  0.0492  0.0642 -0.0365
   30loPI   C4A  474   0.627  15.819   8.186  0.1552 -0.2840 -0.2347
   30loPI   C5A  475   0.687  15.543   7.783 -0.3007  0.1999  0.0483
   30loPI   C6A  476   1.053  15.439   7.476 -0.1099  0.0798  0.1217
   30loPI   C1B  477   1.068  15.466   9.251 -0.0567  0.4841 -0.0989
   30loPI   C2B  478   1.132  15.261   8.905  0.1662  0.1437 -0.0661
   30loPI   C3B  479   1.326  15.437   8.656  0.2190  0.0813 -0.2870
   30loPI   C4B  480   1.619  15.314   8.289 -0.0032  0.4102 -0.3547
   31loPI    C1  481  18.127  10.130   9.833 -0.0963  0.0183  0.1235
   31loPI    C2  482  17.921  10.219  10.163 -0.3283  0.0723 -0.0334
   31loPI    C3  483  18.210   9.944  10.177 -0.2510  0.1633  0.2413
   31loPI   PO4  484  17.939  10.023   9.633 -0.0935  0.0713 -0.0900
   31loPI   GL1  485  17.769  10.366   9.312 -0.3474  0.2359 -0.1151
   31loPI   GL2  486  17.451  10.242   9.308 -0.2103  0.2095  0.2832
   31loPI   C1A  487  17.838  10.153   8.990  0.1059 -0.2277  0.0265
   31loPI   C2A  488  17.856  10.005   8.589 -0.0001  0.1414  0.2793
   31loPI   C3A  489  17.838   9.996   8.182 -0.1577  0.4162  0.1000
   31loPI   C4A  490  17.911  10.217   7.771 -0.1906 -0.1218 -0.0639
   31loPI   C5A  491  17.991  10.675   7.651  0.2124 -0.1601  0.0528
   31loPI   C6A  492  18.410  10.887   7.448 -0.4111  0.1057  0.0182
   31loPI   C1B  493  17.335  10.393   8.869  0.1183 -0.2626  0.0538
   31loPI   C2B  494  17.388  10.305   8.477 -0.0868 -0.0888 -0.0017
   31loPI   C3B  495  17.409  10.143   8.062  0.0030  0.0575  0.0730
   31loPI   C4B  496  17.479  10.168   7.577 -0.1888 -0.2974  0.3559
   32loPI    C1  497   4.129  16.971  10.598  0.0976 -0.2619  0.0978
   32loPI    C2  498   3.778  16.824  10.722 -0.0992  0.1282  0.0185
   32loPI    C3  499   4.028  16.994  10.984 -0.1648  0.2411  0.0086
   32loPI   PO4  500   4.263  16.753  10.454  0.1606 -0.2752  0.0555
   32loPI   GL1  501   4.282  16.446  10.152 -0.0576 -0.3448 -0.2427
   32loPI   GL2  502   4.529  16.654   9.973  0.0530  0.2013  0.2501
   32loPI   C1A  503   4.047  16.540   9.774 -0.0099  0.1949 -0.1043
   32loPI   C2A  504   3.896  16.647   9.343 -0.1538  0.1159 -0.3999
   32loPI   C3A  505   3.922  16.705   8.899  0.0615 -0.1534  0.4479
   32loPI   C4A  506   3.881  16.802   8.554  0.0790  0.0430 -0.0767
   32loPI   C5A  507   4.078  16.634   8.199 -0.1052 -0.5134 -0.0082
   32loPI   C6A  508   4.357  16.250   8.230 -0.0863 -0.0183  0.0023
   32loPI   C1B  509   4.680  16.764   9.533 -0.1043 -0.0346  0.0895
   32loPI   C2B  510   4.820  16.788   9.103 -0.2548  0.0044  0.1482
   32loPI   C3B  511   4.948  16.994   8.702 -0.3408  0.2061 -0.2988
   32loPI   C4B  512   5.043  16.918   8.347  0.0777  0.0903  0.1212
   33loPI    C1  513  16.022  14.117  10.312  0.1638 -0.1000 -0.0235
   33loPI    C2  514  16.202  14.098  10.669 -0.0369 -0.3300  0.0683
   33loPI    C3  515  15.879  13.874  10.596  0.0402 -0.3330 -0.2806
   33loPI   PO4  516  16.221  14.064  10.133 -0.0012 -0.1769 -0.3799
   33loPI   GL1  517  16.196  13.752   9.800  0.1229  0.3001 -0.1324
   33loPI   GL2  518  15.886  13.990   9.723 -0.1751 -0.1935 -0.2025
   33loPI   C1A  519  16.060  13.668   9.394  0.0573  0.2130  0.2997
   33loPI   C2A  520  16.106  13.668   9.031  0.1387 -0.1087 -0.1039
   33loPI   C3A  521  16.321  13.717   8.603  0.0003 -0.1792  0.1665
   33loPI   C4A  522  16.532  13.524   8.198  0.0237  0.0564 -0.2993
   33loPI   C5A  523  16.511  13.120   8.115 -0.1443  0.2939 -0.1004
   33loPI   C6A  524  16.615  12.869   8.596  0.2003  0.1422 -0.2124
   33loPI   C1B  525  15.829  14.112   9.270  0.0996  0.3479 -0.0682
   33loPI   C2B  526  16.042  14.148   8.749 -0.0226 -0.0840 -0.3968
   33loPI   C3B  527  15.983  14.346   8.399 -0.1898  0.2484  0.0426
   33loPI   C4B  528  16.039  14.327   7.871  0.1180 -0.4074 -0.2275
   34loPI    C1  529   2.117  12.206   9.797  0.2222  0.1750 -0.3635
   34loPI    C2  530   2.033  11.836   9.671  0.0959  0.0717  0.0123
   34loPI    C3  531   1.746  12.114   9.680  0.0100 -0.0241  0.4137
   34loPI   PO4  532   2.344  12.217   9.692  0.1124 -0.1033 -0.1709
   34loPI   GL1  533   2.480  12.097   9.356  0.2424 -0.0138 -0.0031
   34loPI   GL2  534   2.767  12.179   9.342 -0.2306  0.0004 -0.0497
   34loPI   C1A  535   2.581  11.780   9.223  0.2522 -0.0255  0.0101
   34loPI   C2A  536   2.363  11.494   8.927  0.2809 -0.1967 -0.0956
   34loPI   C3A  537   2.420  11.514   8.486  0.0642 -0.1224  0.0924
   34loPI   C4A  538   2.289  11.635   8.099  0.2199  0.1020  0.2187
   34loPI   C5A  539   2.103  11.610   7.756  0.1686  0.1050  0.0904
   34loPI   C6A  540   2.046  11.393   7.364 -0.0098 -0.0614 -0.0841
   34loPI   C1B  541   3.122  12.078   9.176 -0.1589  0.1417  0.0565
   34loPI   C2B  542   3.303  11.929   8.801 -0.1201  0.2161 -0.1282
   34loPI   C3B  543   3.228  12.112   8.464  0.0901  0.0248  0.1154
   34loPI   C4B  544   3.276  12.289   8.139  0.1287 -0.2578 -0.2014
   35loPI    C1  545   6.891  17.903  10.538 -0.0945 -0.1257  0.0892
   35loPI    C2  546   6.661  18.124  10.780 -0.0925 -0.0909  0.0594
   35loPI    C3  547   6.974  18.290  10.594  0.1161 -0.1997  0.3060
   35loPI   PO4  548   6.729  17.783  10.289  0.0479 -0.0267  0.0983
   35loPI   GL1  549   6.746  17.934   9.876  0.0986 -0.0118 -0.1617
   35loPI   GL2  550   6.458  18.062   9.803  0.1217  0.2856  0.1610
   35loPI   C1A  551   6.838  17.834   9.532 -0.2081  0.0604 -0.2650
   35loPI   C2A  552   7.073  17.751   9.210 -0.1952 -0.1330  0.1004
   35loPI   C3A  553   7.121  17.644   8.768  0.0992  0.0281 -0.1032
   35loPI   C4A  554   7.137  17.383   8.463 -0.1425 -0.2659  0.1759
   35loPI   C5A  555   7.325  16.897   8.510  0.1295 -0.1929  0.2003
   35loPI   C6A  556   7.076  16.461   8.607  0.1899  0.1922 -0.0809
   35loPI   C1B  557   6.332  18.035   9.357 -0.2138 -0.0253  0.0219
   35loPI   C2B  558   6.620  17.896   9.005  0.1742 -0.0504 -0.2156
   35loPI   C3B  559   6.705  17.823   8.567 -0.0829  0.1447 -0.0425
   35loPI   C4B  560   7.098  17.917   8.382  0.0111 -0.1724  0.1317
   36loPI    C1  561  15.265  12.850  10.269 -0.0308  0.0915 -0.0441
   36loPI    C2  562  15.311  12.505  10.467 -0.2432  0.0485 -0.0675
   36loPI    C3  563  15.609  12.772  10.459 -0.0642 -0.1489 -0.0789
   36loPI   PO4  564  15.121  12.832  10.029  0.2811  0.2377 -0.2705
   36loPI   GL1  565  15.333  13.115   9.764  0.0497  0.1704 -0.0313
   36loPI   GL2  566  15.553  13.389   9.689 -0.0739 -0.2306  0.1343
   36loPI   C1A  567  15.244  13.113   9.365  0.1320  0.0114 -0.0854
   36loPI   C2A  568  15.293  13.257   8.923  0.1569  0.0159 -0.1081
   36loPI   C3A  569  15.260  13.090   8.503 -0.0920 -0.1910  0.2914
   36loPI   C4A  570  15.168  12.929   8.100 -0.0362 -0.3058 -0.1551
   36loPI   C5A  571  15.035  13.074   7.776 -0.1749  0.1368 -0.0010
   36loPI   C6A  572  14.834  13.500   7.722  0.1347 -0.0320  0.0910
   36loPI   C1B  573  15.522  13.663   9.322  0.0249 -0.2559  0.0976
   36loPI   C2B  574  15.594  13.847   8.918 -0.2394 -0.2871 -0.0387
   36loPI   C3B  575  15.641  13.796   8.515 -0.0359 -0.1418 -0.4726
   36loPI   C4B  576  15.761  13.950   8.090  0.0095  0.0879  0.2183
   37loPI    C1  577  11.787   9.756  10.680  0.1437  0.2220 -0.1109
   37loPI    C2  578  12.169   9.686  10.775  0.1089  0.3897  0.1630
   37loPI    C3  579  11.938   9.900  11.021 -0.1291  0.3938 -0.0599
   37loPI   PO4  580  11.830   9.765  10.374  0.4165  0.0295 -0.0991
   37loPI   GL1  581  11.693   9.677   9.991  0.2199  0.2325  0.4009
   37loPI   GL2  582  11.553   9.991   9.812  0.3946 -0.3339  0.0792
   37loPI   C1A  583  11.784   9.604   9.530 -0.1278  0.2521  0.2897
   37loPI   C2A  584  11.634   9.613   9.134  0.2011 -0.4237 -0.0837
   37loPI   C3A  585  11.679   9.939   8.786 -0.1604 -0.1008 -0.1713
   37loPI   C4A  586  11.825   9.935   8.331  0.2044 -0.0521 -0.4385
   37loPI   C5A  587  12.027   9.983   7.939 -0.1380 -0.1778  0.1793
   37loPI   C6A  588  11.889   9.736   7.551 -0.0198 -0.0417  0.0959
   37loPI   C1B  589  11.671  10.087   9.392  0.0859 -0.1177  0.1794
   37loPI   C2B  590  11.750  10.398   9.027 -0.2124 -0.2558  0.1021
   37loPI   C3B  591  11.926  10.337   8.624  0.1140 -0.0621 -0.1358
   37loPI   C4B  592  11.971  10.389   8.225 -0.1007  0.0041 -0.2060
   38loPI    C1  593   8.245  18.468  10.426 -0.1031 -0.1444  0.1132
   38loPI    C2  594   8.622  18.403  10.309 -0.0669  0.1319  0.0685
   38loPI    C3  595   8.522  18.358  10.693 -0.0185 -0.0632  0.0596
   38loPI   PO4  596   8.163  18.705  10.279  0.0326 -0.1647  0.2096
   38loPI   GL1  597   8.006  18.638   9.931 -0.1701 -0.4952  0.0068
   38loPI   GL2  598   7.756  18.790   9.718  0.0439  0.1303  0.0370
   38loPI   C1A  599   8.140  18.683   9.424  0.1327  0.2544 -0.1612
   38loPI   C2A  600   8.290  18.418   9.143 -0.1241 -0.0112 -0.0890
   38loPI   C3A  601   8.425  18.274   8.734  0.1429  0.0332 -0.5322
   38loPI   C4A  602   8.738  18.134   8.485  0.1099  0.0984 -0.0129
   38loPI   C5A  603   8.945  17.908   8.082  0.1802  0.3600 -0.0727
   38loPI   C6A  604   9.349  18.108   7.776  0.2865 -0.2915 -0.0023
   38loPI   C1B  605   7.723  18.897   9.246  0.2406 -0.1254  0.0391
   38loPI   C2B  606   7.624  19.006   8.846 -0.2686 -0.0211 -0.0703
   38loPI   C3B  607   7.748  18.930   8.407 -0.0139 -0.0113  0.1957
   38loPI   C4B  608   7.534  18.767   8.029  0.2659  0.0604 -0.0203
   39loPI    C1  609   7.612  14.592  10.400  0.0083  0.4937  0.0944
   39loPI    C2  610   7.352  14.331  10.556  0.0853  0.1508 -0.3319
   39loPI    C3  611   7.332  14.718  10.656 -0.3915  0.0791 -0.1241
   39loPI   PO4  612   7.868  14.424  10.422  0.0682 -0.2887 -0.0979
   39loPI   GL1  613   8.038  14.495  10.020 -0.2236 -0.0323  0.0146
   39loPI   GL2  614   8.033  14.153   9.966  0.0854  0.2581  0.0794
   39loPI   C1A  615   7.971  14.553   9.615  0.0462 -0.1735 -0.0558
   39loPI   C2A  616   8.011  14.341   9.220 -0.2821 -0.2333 -0.0372
   39loPI   C3A  617   7.876  14.140   8.774  0.2438 -0.2180 -0.0154
   39loPI   C4A  618   8.229  14.164   8.452  0.3396 -0.1484 -0.3208
   39loPI   C5A  619   8.455  14.075   8.060 -0.0683 -0.0835 -0.1048
   39loPI   C6A  620   8.806  13.980   7.877 -0.0840 -0.1196 -0.1489
   39loPI   C1B  621   7.608  14.166   9.594  0.3140  0.0977  0.1532
   39loPI   C2B  622   7.497  14.070   9.090  0.1229  0.0756  0.1904
   39loPI   C3B  623   7.275  14.290   8.827  0.2370 -0.0024  0.0252
   39loPI   C4B  624   7.190  14.660   8.657  0.3161  0.1403 -0.0013
   40loPI    C1  625   2.672  14.977  10.680  0.0079  0.0713  0.3231
   40loPI    C2  626   2.278  14.907  10.675  0.0372 -0.0937 -0.0613
   40loPI    C3  627   2.516  14.695  10.917 -0.1265  0.1264  0.3010
   40loPI   PO4  628   2.719  15.112  10.370 -0.1131 -0.0541  0.2549
   40loPI   GL1  629   2.559  15.211   9.950 -0.2367 -0.0531  0.0489
   40loPI   GL2  630   2.890  15.271   9.906 -0.1850  0.1565  0.0076
   40loPI   C1A  631   2.506  15.300   9.590  0.1222  0.2720 -0.0125
   40loPI   C2A  632   2.514  15.562   9.289 -0.2854 -0.0949 -0.0204
   40loPI   C3A  633   2.361  16.016   9.082 -0.0042 -0.3296 -0.0726
   40loPI   C4A  634   2.464  16.204   8.657  0.0128  0.0365 -0.1901
   40loPI   C5A  635   2.541  16.299   8.192 -0.0476  0.1646 -0.2608
   40loPI   C6A  636   2.656  16.012   7.769  0.0224  0.1548  0.0480
   40loPI   C1B  637   2.938  15.119   9.426  0.1703 -0.1945  0.2039
   40loPI   C2B  638   2.906  15.297   8.990  0.1887  0.4058  0.3096
   40loPI   C3B  639   3.280  15.320   8.735 -0.0056 -0.0074 -0.1234
   40loPI   C4B  640   3.694  15.404   8.650 -0.3578  0.1990  0.0946
   41loPI    C1  641  12.398  18.412  10.397 -0.1461  0.3643  0.1176
   41loPI    C2  642  12.731  18.620  10.478 -0.0203  0.1473  0.1670
   41loPI    C3  643  12.589  18.358  10.745 -0.0291 -0.0224 -0.0020
   41loPI   PO4  644  12.444  18.429  10.110  0.0344 -0.0557 -0.1515
   41loPI   GL1  645  12.509  18.753   9.736 -0.1775  0.2619  0.0905
   41loPI   GL2  646  12.448  19.053   9.687 -0.1091 -0.1767  0.0308
   41loPI   C1A  647  12.940  18.710   9.586 -0.1445 -0.3025 -0.1131
   41loPI   C2A  648  13.038  18.731   9.157  0.1351 -0.1060 -0.0518
   41loPI   C3A  649  13.191  18.855   8.694  0.0969 -0.3736 -0.1798
   41loPI   C4A  650  13.487  18.665   8.319  0.0215 -0.0619  0.1892
   41loPI   C5A  651  13.844  18.497   8.248 -0.1543  0.1126  0.4048
   41loPI   C6A  652  14.041  18.180   8.045  0.0575  0.1163  0.2033
   41loPI   C1B  653  12.651  19.031   9.229 -0.0050  0.4807 -0.3437
   41loPI   C2B  654  12.714  18.793   8.827 -0.2611 -0.2893  0.1223
   41loPI   C3B  655  12.733  18.644   8.459  0.0164  0.0930  0.0157
   41loPI   C4B  656  12.502  18.622   8.094 -0.1112 -0.0370 -0.0620
   42loPI    C1  657  17.379  11.781   9.895  0.3179 -0.0987 -0.1459
   42loPI    C2  658  17.430  11.456  10.122  0.1274 -0.2113 -0.2613
   42loPI    C3  659  17.075  11.640  10.115  0.2469  0.0271 -0.1624
   42loPI   PO4  660  17.496  11.774   9.755  0.1428  0.1619 -0.0981
   42loPI   GL1  661  17.522  11.786   9.355 -0.0497 -0.2749  0.1676
   42loPI   GL2  662  17.281  11.575   9.310  0.1561  0.0911 -0.0311
   42loPI   C1A  663  17.196  11.936   8.962  0.1751  0.0050  0.3927
   42loPI   C2A  664  16.796  12.166   8.860 -0.1861  0.2154 -0.1488
   42loPI   C3A  665  16.846  12.246   8.461 -0.1874  0.1455  0.1093
   42loPI   C4A  666  16.889  11.948   8.067  0.1729 -0.3281 -0.2897
   42loPI   C5A  667  16.984  11.700   7.728 -0.2474 -0.0516  0.0442
   42loPI   C6A  668  17.243  11.339   7.769 -0.1121 -0.1166  0.3206
   42loPI   C1B  669  16.849  11.534   8.993  0.1272 -0.1259  0.1297
   42loPI   C2B  670  16.685  11.506   8.619 -0.0986 -0.0117  0.1661
   42loPI   C3B  671  16.463  11.322   8.314 -0.0472 -0.0675 -0.0923
   42loPI   C4B  672  16.221  11.210   8.009 -0.1082  0.4570  0.0956
   43loPI    C1  673  11.266   7.499  10.276  0.1020 -0.2262 -0.2182
   43loPI    C2  674  10.886   7.408  10.188 -0.1219  0.2346  0.2212
   43loPI    C3  675  11.070   7.224  10.492 -0.0189  0.0736  0.0630
   43loPI   PO4  676  11.348   7.505  10.001  0.1615  0.0396 -0.1587
   43loPI   GL1  677  11.237   7.689   9.575  0.3424 -0.3703 -0.0522
   43loPI   GL2  678  10.943   7.706   9.335 -0.1345 -0.0084 -0.0897
   43loPI   C1A  679  11.673   7.575   9.320  0.1181 -0.1983 -0.1271
   43loPI   C2A  680  11.874   7.674   8.952 -0.2573  0.4130  0.2374
   43loPI   C3A  681  12.124   7.514   8.606  0.2856  0.4031  0.1327
   43loPI   C4A  682  12.423   7.478   8.248 -0.0523 -0.0570  0.0714
   43loPI   C5A  683  12.718   7.646   7.977 -0.0501  0.4380 -0.0188
   43loPI   C6A  684  12.692   8.013   7.604 -0.0534  0.0306 -0.0419
   43loPI   C1B  685  10.999   7.841   8.898  0.3333 -0.0855  0.6093
   43loPI   C2B  686  11.119   7.978   8.432  0.1565 -0.0410 -0.0237
   43loPI   C3B  687  11.297   7.873   8.035 -0.1114  0.3179  0.0947
   43loPI   C4B  688  11.631   7.772   7.906  0.2298  0.2920  0.0535
   44loPI    C1  689   2.244   7.843  10.267 -0.0714 -0.0394 -0.0383
   44loPI    C2  690   2.160   7.527  10.036 -0.0289  0.0831 -0.2230
   44loPI    C3  691   2.047   7.530  10.419  0.2331 -0.2845 -0.1371
   44loPI   PO4  692   2.231   8.075  10.067 -0.0431 -0.2697  0.0802
   44loPI   GL1  693   2.039   8.172   9.747  0.0184 -0.3564  0.0522
   44loPI   GL2  694   1.809   7.865   9.649 -0.2146  0.2158 -0.0015
   44loPI   C1A  695   1.969   8.176   9.225 -0.0550  0.1840  0.0360
   44loPI   C2A  696   2.189   7.761   9.107 -0.0067 -0.1577  0.1503
   44loPI   C3A  697   2.183   7.554   8.623 -0.0408  0.0398  0.0014
   44loPI   C4A  698   2.082   7.194   8.399 -0.0210  0.0877  0.3039
   44loPI   C5A  699   1.996   7.124   7.980 -0.1739 -0.1185  0.1802
   44loPI   C6A  700   2.344   7.151   7.702  0.0899  0.0501 -0.0623
   44loPI   C1B  701   2.294   7.763   9.573  0.0354 -0.4060  0.2579
   44loPI   C2B  702   2.614   7.972   9.268  0.5099 -0.2560 -0.0036
   44loPI   C3B  703   2.539   7.887   8.738  0.0595 -0.0046 -0.1266
   44loPI   C4B  704   2.579   7.997   8.322  0.3419  0.1501 -0.1039
   45loPI    C1  705  17.760  15.479  10.345  0.0035  0.0868  0.0760
   45loPI    C2  706  17.391  15.326  10.343 -0.0234  0.1499  0.1647
   45loPI    C3  707  17.452  15.704  10.227  0.0530  0.0508 -0.1258
   45loPI   PO4  708  18.045  15.368  10.155 -0.2124 -0.2195 -0.0035
   45loPI   GL1  709  18.246  15.611   9.794  0.2623  0.2388 -0.0466
   45loPI   GL2  710  18.389  15.721  10.025  0.0747  0.3606 -0.2521
   45loPI   C1A  711  18.280  15.585   9.320 -0.0501 -0.3852 -0.2977
   45loPI   C2A  712  18.313  15.411   8.876  0.2403  0.2341  0.1732
   45loPI   C3A  713  18.248  15.486   8.451  0.2381  0.2064 -0.0533
   45loPI   C4A  714  18.349  15.554   8.123 -0.1956 -0.2530  0.0890
   45loPI   C5A  715  18.543  15.294   7.776 -0.1521  0.0209  0.0039
   45loPI   C6A  716  18.750  14.954   7.538 -0.0458 -0.2975 -0.1233
   45loPI   C1B  717  18.635  15.846   9.532  0.2410 -0.2235 -0.1344
   45loPI   C2B  718  18.416  16.005   9.115  0.1651 -0.1676 -0.0985
   45loPI   C3B  719  18.395  15.989   8.699 -0.0933  0.0766  0.2491
   45loPI   C4B  720  18.460  15.926   8.357  0.0293 -0.0707  0.0477
   46loPI    C1  721   2.188  15.741  10.723 -0.5046 -0.0690 -0.1198
   46loPI    C2  722   2.478  15.468  10.756 -0.1398  0.2942 -0.2465
   46loPI    C3  723   2.116  15.393  10.907  0.0786 -0.0765  0.1149
   46loPI   PO4  724   2.111  15.809  10.469  0.0382 -0.0492  0.3197
   46loPI   GL1  725   2.023  15.635  10.116  0.0592 -0.1099  0.1332
   46loPI   GL2  726   2.089  15.789   9.832 -0.2592  0.0558  0.1239
   46loPI   C1A  727   1.957  15.260   9.979  0.0455  0.0809 -0.4075
   46loPI   C2A  728   1.943  15.096   9.531 -0.2536  0.1302  0.3550
   46loPI   C3A  729   2.040  15.215   9.151  0.0893 -0.0902  0.0927
   46loPI   C4A  730   2.300  15.322   8.856 -0.1721  0.0519 -0.2071
   46loPI   C5A  731   2.562  15.202   8.415  0.1904 -0.0724 -0.1570
   46loPI   C6A  732   2.481  15.080   8.069  0.0739 -0.2580  0.2416
   46loPI   C1B  733   2.041  15.662   9.462 -0.0437 -0.1145 -0.0547
   46loPI   C2B  734   1.984  15.748   9.060  0.1463  0.3237  0.1587
   46loPI   C3B  735   2.160  15.784   8.642  0.0487  0.1066 -0.1150
   46loPI   C4B  736   2.486  15.772   8.272  0.0153  0.1083  0.2638
   47loPI    C1  737  13.550   3.111  10.195 -0.0133  0.1473  0.1957
   47loPI    C2  738  13.342   2.771  10.229  0.1220  0.0377 -0.0419
   47loPI    C3  739  13.473   2.959  10.557 -0.0462 -0.0803  0.0952
   47loPI   PO4  740  13.449   3.193  10.037 -0.0322 -0.3033  0.0962
   47loPI   GL1  741  13.316   2.890   9.662  0.0989 -0.0625  0.0317
   47loPI   GL2  742  13.242   2.616   9.635 -0.0375 -0.2750  0.0920
   47loPI   C1A  743  13.521   2.788   9.304  0.0681  0.1720  0.4519
   47loPI   C2A  744  13.808   2.824   8.980  0.1040 -0.0117 -0.0968
   47loPI   C3A  745  13.916   3.047   8.635  0.0733  0.0081 -0.4494
   47loPI   C4A  746  13.804   3.408   8.420  0.0654 -0.1154 -0.1527
   47loPI   C5A  747  13.632   3.668   8.171  0.0834  0.1713  0.1368
   47loPI   C6A  748  13.562   3.936   7.824  0.2634  0.1852  0.1646
   47loPI   C1B  749  13.071   2.464   9.366 -0.1169  0.0309 -0.0001
   47loPI   C2B  750  13.091   2.500   8.936 -0.2343  0.1954 -0.3835
   47loPI   C3B  751  13.046   2.417   8.523 -0.0205 -0.0991 -0.0772
   47loPI   C4B  752  12.860   2.440   8.097 -0.2837 -0.1805  0.2709
   48loPI    C1  753  17.178   4.295  10.118 -0.2216 -0.0859  0.0314
   48loPI    C2  754  16.792   4.198  10.157 -0.2065 -0.1397  0.0473
   48loPI    C3  755  17.068   3.911  10.130 -0.1756 -0.1015 -0.0447
   48loPI   PO4  756  17.206   4.445   9.995 -0.3923  0.0422  0.0136
   48loPI   GL1  757  17.526   4.385   9.665 -0.0122  0.0727  0.0067
   48loPI   GL2  758  17.761   4.205   9.565 -0.0487  0.0653 -0.1510
   48loPI   C1A  759  17.410   4.319   9.226  0.2379 -0.1673 -0.2245
   48loPI   C2A  760  17.269   4.333   8.772  0.2209  0.0194  0.0639
   48loPI   C3A  761  16.834   4.441   8.606  0.0732  0.1379 -0.2051
   48loPI   C4A  762  16.789   4.635   8.191 -0.6634  0.0603  0.0011
   48loPI   C5A  763  16.995   4.604   7.759 -0.5099 -0.1121  0.0438
   48loPI   C6A  764  16.996   4.345   7.305 -0.1412  0.0507 -0.1049
   48loPI   C1B  765  17.893   4.163   9.168 -0.3267  0.2383  0.4152
   48loPI   C2B  766  17.971   4.127   8.707 -0.0550 -0.2092 -0.1544
   48loPI   C3B  767  18.263   4.248   8.274 -0.0497  0.2315  0.1292
   48loPI   C4B  768  18.579   4.180   7.900 -0.1241 -0.0861 -0.0470
   49loPI    C1  769   4.079   5.081  10.427  0.1842 -0.1943 -0.0251
   49loPI    C2  770   3.696   4.965  10.432  0.2673 -0.4907 -0.2315
   49loPI    C3  771   3.936   4.877  10.740  0.0812  0.0261  0.0730
   49loPI   PO4  772   4.121   5.000  10.112  0.3272 -0.1062  0.1463
   49loPI   GL1  773   4.426   5.031   9.812 -0.0056 -0.1950 -0.2100
   49loPI   GL2  774   4.511   5.304   9.686 -0.1813  0.1215 -0.1999
   49loPI   C1A  775   4.308   4.852   9.427  0.2899 -0.1249  0.1193
   49loPI   C2A  776   4.256   4.910   9.000 -0.2654 -0.0750 -0.0993
   49loPI   C3A  777   4.336   5.214   8.667  0.2381  0.0789  0.0456
   49loPI   C4A  778   4.602   5.379   8.405  0.3867 -0.0092  0.0930
   49loPI   C5A  779   4.700   5.610   8.004 -0.0948  0.0363  0.0462
   49loPI   C6A  780   4.718   5.911   7.715 -0.0202  0.0984 -0.0440
   49loPI   C1B  781   4.287   5.348   9.343 -0.0000 -0.0291  0.0546
   49loPI   C2B  782   3.935   5.354   9.043  0.1150 -0.0792 -0.0074
   49loPI   C3B  783   3.953   5.465   8.546  0.2149 -0.2477 -0.0860
   49loPI   C4B  784   4.207   5.277   8.155  0.0857  0.1801 -0.1180
   50loPI    C1  785   5.842  15.783  10.789 -0.0211 -0.0159  0.1975
   50loPI    C2  786   6.097  15.928  11.061  0.0089 -0.0514  0.1885
   50loPI    C3  787   5.805  16.160  10.916  0.0939  0.0191  0.1291
   50loPI   PO4  788   5.962  15.668  10.527  0.0779  0.1244  0.0344
   50loPI   GL1  789   5.813  15.752  10.133 -0.0633  0.3690  0.2604
   50loPI   GL2  790   6.096  15.949  10.119  0.1334  0.0126 -0.1637
   50loPI   C1A  791   5.733  15.941   9.731 -0.4060 -0.3270  0.0700
   50loPI   C2A  792   5.669  16.226   9.382  0.2210  0.0281  0.0415
   50loPI   C3A  793   5.487  16.311   9.040 -0.1990 -0.2720  0.0310
   50loPI   C4A  794   5.258  16.655   8.885 -0.0107  0.0887  0.0870
   50loPI   C5A  795   5.387  17.100   8.639 -0.3317  0.2612  0.1121
   50loPI   C6A  796   5.781  17.222   8.553  0.0334 -0.2258  0.2024
   50loPI   C1B  797   6.248  15.993   9.731 -0.3464 -0.3308 -0.2814
   50loPI   C2B  798   6.225  16.021   9.326 -0.1336  0.2447  0.2078
   50loPI   C3B  799   6.389  15.997   8.991  0.1675 -0.2512  0.1981
   50loPI   C4B  800   6.296  15.914   8.597 -0.2539  0.1083  0.0283
   51loPI    C1  801  10.517  17.830  10.806 -0.0241 -0.2879  0.1622
   51loPI    C2  802  10.786  17.961  11.071 -0.0844  0.0488  0.0621
   51loPI    C3  803  10.431  17.825  11.196 -0.0365  0.0182  0.1653
   51loPI   PO4  804  10.532  18.063  10.609 -0.2346  0.0652 -0.2563
   51loPI   GL1  805  10.700  18.229  10.309  0.0195 -0.0263  0.2709
   51loPI   GL2  806  10.719  17.909  10.138 -0.4014  0.1036 -0.2225
   51loPI   C1A  807  10.641  18.519   9.931  0.1428 -0.1323  0.0739
   51loPI   C2A  808  10.650  18.644   9.567 -0.2582 -0.0341 -0.0543
   51loPI   C3A  809  10.723  18.718   9.204 -0.0400 -0.0338  0.0320
   51loPI   C4A  810  10.703  18.582   8.778 -0.1226  0.2165 -0.1360
   51loPI   C5A  811  10.988  18.310   8.559  0.3228  0.0418 -0.3348
   51loPI   C6A  812  11.259  18.025   8.433 -0.2336 -0.2813  0.3011
   51loPI   C1B  813  10.779  17.899   9.631  0.2431  0.1614  0.3244
   51loPI   C2B  814  10.824  17.570   9.239 -0.0014  0.0764  0.2215
   51loPI   C3B  815  10.902  17.251   8.979  0.0362  0.1834 -0.3206
   51loPI   C4B  816  11.169  17.099   8.629  0.2389  0.2973  0.1749
   52loPI    C1  817   4.434   2.238  10.706 -0.0916  0.2333  0.2958
   52loPI    C2  818   4.226   1.898  10.666 -0.0396  0.2222  0.1119
   52loPI    C3  819   4.333   2.026  11.030  0.2625 -0.1538  0.1620
   52loPI   PO4  820   4.358   2.341  10.462  0.1634 -0.0248  0.2064
   52loPI   GL1  821   4.438   2.135  10.091 -0.1040 -0.0616 -0.1224
   52loPI   GL2  822   4.745   1.978  10.082 -0.1041  0.1325 -0.1728
   52loPI   C1A  823   4.201   1.824   9.848  0.0113 -0.2160 -0.0782
   52loPI   C2A  824   4.205   1.667   9.406 -0.1044 -0.0227 -0.0400
   52loPI   C3A  825   4.040   1.779   8.985  0.0608 -0.0639  0.3289
   52loPI   C4A  826   3.763   1.865   8.629 -0.1694 -0.3097 -0.0793
   52loPI   C5A  827   3.840   1.882   8.193 -0.0505  0.2860  0.0280
   52loPI   C6A  828   3.825   1.729   7.777  0.3117 -0.2677  0.2296
   52loPI   C1B  829   4.615   2.043   9.585 -0.2787  0.0442  0.2990
   52loPI   C2B  830   4.360   2.151   9.248  0.2153  0.1938 -0.0469
   52loPI   C3B  831   3.830   2.056   9.309 -0.0237 -0.2423 -0.0683
   52loPI   C4B  832   3.550   1.783   9.090 -0.0822  0.4083 -0.0735
   53loPI    C1  833  18.396  18.352  10.572  0.0624  0.0166  0.0252
   53loPI    C2  834  17.996  18.346  10.572  0.0615  0.0459 -0.1135
   53loPI    C3  835  18.199  18.134  10.844 -0.0489  0.1439  0.0477
   53loPI   PO4  836  18.458  18.391  10.364  0.1963  0.1238 -0.0907
   53loPI   GL1  837  18.673  18.189  10.060 -0.1246 -0.0856 -0.0863
   53loPI   GL2  838  18.473  17.943   9.985 -0.2621 -0.1792  0.1102
   53loPI   C1A  839  18.581  18.317   9.610 -0.1908 -0.0721 -0.1331
   53loPI   C2A  840  18.647  18.400   9.146  0.0556 -0.0876  0.0222
   53loPI   C3A  841  18.579  18.375   8.679 -0.0382  0.1426  0.0539
   53loPI   C4A  842  18.521  18.526   8.325  0.2391 -0.1480 -0.0941
   53loPI   C5A  843  18.275  18.442   7.959 -0.0953 -0.0354  0.0104
   53loPI   C6A  844  18.000  18.045   7.851 -0.2394 -0.2734 -0.1319
   53loPI   C1B  845  18.338  17.865   9.639 -0.0266 -0.1410 -0.0072
   53loPI   C2B  846  18.257  17.838   9.218  0.2885 -0.0401 -0.1176
   53loPI   C3B  847  18.611  17.726   8.877  0.1000 -0.0515 -0.0467
   53loPI   C4B  848  18.753  17.719   8.505 -0.2612  0.1485  0.4375
   54loPI    C1  849  12.076   6.479  10.005  0.0136 -0.0019  0.0400
   54loPI    C2  850  12.430   6.646  10.090 -0.0143  0.0841 -0.0114
   54loPI    C3  851  12.144   6.632  10.369  0.0344  0.0009  0.0350
   54loPI   PO4  852  12.119   6.241   9.843  0.4361  0.1057  0.3793
   54loPI   GL1  853  12.084   6.188   9.508 -0.2077  0.0643 -0.1446
   54loPI   GL2  854  12.421   5.981   9.566  0.3076  0.0579 -0.0749
   54loPI   C1A  855  11.958   6.471   9.203  0.3242  0.0180  0.3099
   54loPI   C2A  856  11.964   6.520   8.790  0.1182  0.0996 -0.3202
   54loPI   C3A  857  11.861   6.570   8.315  0.3322 -0.0170  0.0693
   54loPI   C4A  858  12.113   6.475   7.927  0.1414  0.1347 -0.0242
   54loPI   C5A  859  12.623   6.451   8.043 -0.1358  0.0905 -0.2206
   54loPI   C6A  860  12.771   6.296   8.424 -0.1649 -0.0516 -0.1123
   54loPI   C1B  861  12.598   5.867   9.161  0.0929  0.1802  0.0133
   54loPI   C2B  862  12.509   6.016   8.734 -0.3755  0.0918  0.1375
   54loPI   C3B  863  12.373   5.989   8.386 -0.1193 -0.0048  0.0936
   54loPI   C4B  864  12.401   5.933   7.992 -0.3897 -0.1392 -0.0691
   55loPI    C1  865  14.337   5.646  10.198 -0.1797  0.0419  0.1248
   55loPI    C2  866  14.711   5.773  10.263 -0.2530  0.1951  0.2538
   55loPI    C3  867  14.589   5.424  10.416 -0.0877  0.0225 -0.0001
   55loPI   PO4  868  14.354   5.706   9.871 -0.1490  0.2200  0.0956
   55loPI   GL1  869  14.526   5.496   9.524 -0.0021 -0.0464 -0.0861
   55loPI   GL2  870  14.800   5.657   9.369  0.0413 -0.1174  0.2671
   55loPI   C1A  871  14.299   5.608   9.217 -0.0024 -0.0841 -0.0151
   55loPI   C2A  872  14.010   5.515   8.880  0.1309  0.0507  0.3123
   55loPI   C3A  873  13.642   5.735   8.846  0.3074 -0.1044  0.1505
   55loPI   C4A  874  13.529   5.815   8.525 -0.0947 -0.3733  0.1226
   55loPI   C5A  875  13.463   5.742   8.104 -0.0886  0.1087  0.5043
   55loPI   C6A  876  13.800   5.837   7.679 -0.1879 -0.1693  0.1768
   55loPI   C1B  877  14.790   5.605   8.979 -0.0586 -0.4398  0.2040
   55loPI   C2B  878  14.468   5.642   8.694  0.2693  0.1368 -0.1493
   55loPI   C3B  879  14.366   5.771   8.270  0.0465 -0.0217 -0.0039
   55loPI   C4B  880  14.304   5.804   7.810 -0.1105 -0.4502 -0.0341
   56loPI    C1  881   4.232   9.064  10.152  0.0038 -0.0508  0.0234
   56loPI    C2  882   4.414   9.419  10.186  0.0222 -0.0410 -0.1705
   56loPI    C3  883   4.059   9.359  10.361 -0.1518  0.1917 -0.4338
   56loPI   PO4  884   4.502   8.852  10.199  0.1438  0.1246  0.2938
   56loPI   GL1  885   4.673   8.652   9.880 -0.3432  0.1704 -0.1715
   56loPI   GL2  886   4.583   8.360   9.814  0.2086 -0.1481  0.0842
   56loPI   C1A  887   4.869   8.768   9.529  0.0015 -0.1587 -0.0007
   56loPI   C2A  888   4.912   9.112   9.301 -0.2024 -0.2623 -0.0680
   56loPI   C3A  889   4.883   8.998   8.874  0.1070 -0.2410 -0.2455
   56loPI   C4A  890   4.986   8.837   8.573 -0.0478  0.1800 -0.0669
   56loPI   C5A  891   4.966   8.865   8.109 -0.0557 -0.0787 -0.3667
   56loPI   C6A  892   4.762   9.103   7.810 -0.0265 -0.0811 -0.2845
   56loPI   C1B  893   4.437   8.544   9.433  0.1729  0.2922 -0.0151
   56loPI   C2B  894   4.639   8.603   9.014 -0.0714 -0.0364  0.0030
   56loPI   C3B  895   4.605   8.538   8.550  0.2295 -0.0673 -0.1952
   56loPI   C4B  896   4.868   8.403   8.254  0.2882  0.1086 -0.1174
   57loPI    C1  897  10.066  13.646  10.243 -0.2337  0.2278  0.3119
   57loPI    C2  898   9.994  13.253  10.262  0.4274  0.0856  0.1238
   57loPI    C3  899  10.147  13.444  10.579  0.1202  0.1930  0.2101
   57loPI   PO4  900  10.198  13.760  10.093 -0.2883 -0.1066 -0.0611
   57loPI   GL1  901  10.110  13.729   9.658 -0.1417  0.4919  0.0796
   57loPI   GL2  902   9.824  13.728   9.795 -0.0600  0.1487 -0.0487
   57loPI   C1A  903  10.126  13.907   9.259  0.0770 -0.0454  0.2098
   57loPI   C2A  904  10.014  13.998   8.860  0.2859 -0.1424 -0.0624
   57loPI   C3A  905  10.052  14.295   8.468  0.2230 -0.0740  0.1744
   57loPI   C4A  906   9.898  14.715   8.397 -0.1093 -0.2247  0.1318
   57loPI   C5A  907  10.040  15.086   8.293 -0.2640 -0.1809  0.1510
   57loPI   C6A  908  10.378  15.409   8.195  0.1428 -0.0605  0.0232
   57loPI   C1B  909   9.538  13.825   9.529 -0.1136  0.1924 -0.1420
   57loPI   C2B  910   9.542  13.834   9.071 -0.1118 -0.2384 -0.2129
   57loPI   C3B  911   9.539  13.874   8.669 -0.1345 -0.3816  0.3393
   57loPI   C4B  912   9.760  13.926   8.244 -0.1324 -0.0213  0.0382
   58loPI    C1  913   9.539   0.455  10.691  0.0462 -0.2515 -0.0443
   58loPI    C2  914   9.457   0.184  10.974  0.0693 -0.2552 -0.0412
   58loPI    C3  915   9.721   0.475  11.047 -0.0173 -0.1829 -0.0154
   58loPI   PO4  916   9.597   0.306  10.478  0.0247 -0.2118  0.1801
   58loPI   GL1  917   9.487   0.313  10.029  0.0892 -0.1382  0.0143
   58loPI   GL2  918   9.462   0.017  10.095  0.1571  0.0233 -0.1913
   58loPI   C1A  919   9.236   0.269   9.683 -0.0411  0.1612 -0.3333
   58loPI   C2A  920   9.200   0.261   9.269  0.1732 -0.2647  0.0625
   58loPI   C3A  921   9.312   0.340   8.826 -0.1037 -0.2609  0.1026
   58loPI   C4A  922   9.226   0.414   8.479  0.2034 -0.0658  0.2917
   58loPI   C5A  923   8.949   0.640   8.208 -0.1236 -0.1594  0.0761
   58loPI   C6A  924   8.986   0.991   8.078  0.0700 -0.0839 -0.2173
   58loPI   C1B  925   9.604  -0.063   9.696 -0.3373 -0.0566 -0.1319
   58loPI   C2B  926   9.548  -0.069   9.274  0.1406 -0.2934 -0.1813
   58loPI   C3B  927   9.655  -0.038   8.863 -0.1013 -0.0534 -0.0142
   58loPI   C4B  928   9.707   0.185   8.505  0.0220  0.0791 -0.1806
   59loPI    C1  929   2.914   4.080  10.406  0.1391 -0.0203 -0.0030
   59loPI    C2  930   2.934   4.202  10.787 -0.1848  0.0058  0.0089
   59loPI    C3  931   2.956   4.469  10.489 -0.2621  0.0226  0.0181
   59loPI   PO4  932   2.655   3.945  10.413  0.1413  0.0894  0.2634
   59loPI   GL1  933   2.424   3.912   9.897  0.0059 -0.2433  0.0575
   59loPI   GL2  934   2.717   4.084   9.909  0.2714  0.0287 -0.0492
   59loPI   C1A  935   2.484   4.025   9.508  0.1858  0.0836  0.0558
   59loPI   C2A  936   2.398   4.170   8.969 -0.1545 -0.0040 -0.0918
   59loPI   C3A  937   2.436   4.409   8.576  0.1840  0.1638  0.1235
   59loPI   C4A  938   2.159   4.546   8.259 -0.1109 -0.4407 -0.1301
   59loPI   C5A  939   1.693   4.550   8.221 -0.0557  0.0439  0.5142
   59loPI   C6A  940   1.318   4.594   7.994  0.0877 -0.0979 -0.0408
   59loPI   C1B  941   2.667   4.425   9.599 -0.1269 -0.0692 -0.0081
   59loPI   C2B  942   2.663   4.596   9.136  0.2099 -0.2782  0.0517
   59loPI   C3B  943   2.740   4.787   8.774 -0.4376 -0.0299  0.0862
   59loPI   C4B  944   2.687   4.807   8.352  0.0395 -0.0133 -0.1242
   60loPI    C1  945   1.486   8.680  10.449 -0.1286  0.0992 -0.0365
   60loPI    C2  946   1.523   8.301  10.569 -0.1249  0.0876 -0.0743
   60loPI    C3  947   1.273   8.547  10.760 -0.0392  0.0984  0.0249
   60loPI   PO4  948   1.498   8.689  10.212 -0.0681  0.2392 -0.0044
   60loPI   GL1  949   1.731   8.640   9.875 -0.0610  0.2278 -0.2017
   60loPI   GL2  950   1.491   8.778   9.585 -0.0696 -0.0688 -0.1804
   60loPI   C1A  951   1.930   8.622   9.423  0.3160 -0.2214 -0.0020
   60loPI   C2A  952   1.960   8.711   8.972 -0.2448 -0.1106 -0.0624
   60loPI   C3A  953   2.184   8.835   8.601  0.0099  0.5550 -0.2062
   60loPI   C4A  954   2.401   9.250   8.366 -0.0342 -0.1958  0.0576
   60loPI   C5A  955   2.734   9.403   8.089  0.0384 -0.1224 -0.1304
   60loPI   C6A  956   3.120   9.457   7.984 -0.2275  0.2093 -0.1316
   60loPI   C1B  957   1.580   8.986   9.325 -0.0566  0.0841  0.2680
   60loPI   C2B  958   1.653   9.075   8.857  0.1318 -0.0408  0.2188
   60loPI   C3B  959   1.580   8.926   8.495 -0.0599  0.0205  0.1362
   60loPI   C4B  960   1.424   9.232   8.314  0.4087  0.0219  0.0789
   61loPI    C1  961   4.168   3.170  10.383 -0.0604 -0.1020 -0.1187
   61loPI    C2  962   4.491   3.123  10.614 -0.1774 -0.0222  0.0633
   61loPI    C3  963   4.191   2.860  10.635 -0.1126 -0.1135 -0.1280
   61loPI   PO4  964   4.079   3.463  10.371  0.4596  0.0099 -0.4442
   61loPI   GL1  965   3.815   3.656  10.090  0.0484 -0.1399  0.2863
   61loPI   GL2  966   3.704   3.868   9.975  0.1333 -0.3524  0.0676
   61loPI   C1A  967   3.782   3.453   9.677 -0.0980 -0.0715  0.0383
   61loPI   C2A  968   3.516   3.497   9.406  0.1247  0.2227  0.0639
   61loPI   C3A  969   3.441   3.555   8.977  0.0584  0.1383  0.0576
   61loPI   C4A  970   3.308   3.304   8.729  0.4294 -0.2617 -0.1450
   61loPI   C5A  971   3.098   3.220   8.336 -0.0102  0.1916 -0.3092
   61loPI   C6A  972   3.289   3.323   8.021 -0.3053 -0.0035  0.1382
   61loPI   C1B  973   3.482   4.020   9.723 -0.1129  0.3035  0.0261
   61loPI   C2B  974   3.429   4.061   9.298 -0.0739 -0.2092  0.1894
   61loPI   C3B  975   3.382   4.067   8.880 -0.2086 -0.0689  0.0868
   61loPI   C4B  976   3.426   4.123   8.461 -0.0768 -0.3018  0.1379
   62loPI    C1  977   2.027  11.452  10.100 -0.0017  0.1475 -0.0798
   62loPI    C2  978   1.729  11.547  10.348  0.0681 -0.0592  0.0864
   62loPI    C3  979   2.103  11.661  10.432  0.0899 -0.1176  0.0693
   62loPI   PO4  980   1.976  11.291   9.960 -0.1778 -0.2709  0.1256
   62loPI   GL1  981   1.887  11.294   9.434  0.2589 -0.3528  0.0020
   62loPI   GL2  982   2.014  11.520   9.295  0.0125 -0.2480  0.1652
   62loPI   C1A  983   2.131  11.052   9.201  0.1215  0.1719 -0.2445
   62loPI   C2A  984   2.290  11.048   8.785 -0.0513  0.0361 -0.1518
   62loPI   C3A  985   2.455  10.876   8.429 -0.2235 -0.0693 -0.1857
   62loPI   C4A  986   2.542  10.859   8.061  0.2088  0.1262  0.0772
   62loPI   C5A  987   2.735  10.950   7.678 -0.1337  0.1012 -0.0614
   62loPI   C6A  988   3.007  10.983   7.335 -0.1885 -0.2475 -0.0597
   62loPI   C1B  989   1.884  11.470   8.864  0.0390 -0.0786  0.2198
   62loPI   C2B  990   1.969  11.291   8.443 -0.0450  0.1651  0.1288
   62loPI   C3B  991   2.147  11.142   8.046 -0.0863  0.0746 -0.0045
   62loPI   C4B  992   2.080  10.998   7.709  0.2511 -0.0789 -0.1773
   63loPI    C1  993  17.979  14.875  10.274  0.1676 -0.1904  0.1217
   63loPI    C2  994  17.606  14.843  10.414  0.0961  0.0592 -0.0048
   63loPI    C3  995  17.917  14.814  10.664 -0.0103 -0.0509  0.1164
   63loPI   PO4  996  17.951  14.674  10.064  0.1616 -0.1657 -0.1306
   63loPI   GL1  997  17.882  14.654   9.595  0.5935  0.0163 -0.1653
   63loPI   GL2  998  18.127  14.419   9.586 -0.2550 -0.3730  0.2118
   63loPI   C1A  999  17.781  14.679   9.164  0.0974 -0.0181 -0.0350
   63loPI   C2A 1000  17.672  14.577   8.727  0.0484 -0.0435  0.0466
   63loPI   C3A 1001  17.722  14.493   8.321  0.1907 -0.0574  0.1252
   63loPI   C4A 1002  17.767  14.722   7.868  0.0203  0.3053  0.2693
   63loPI   C5A 1003  18.169  14.926   7.639 -0.3082 -0.0502  0.1714
   63loPI   C6A 1004  18.286  15.088   7.306 -0.2762  0.3257  0.1384
   63loPI   C1B 1005  18.238  14.514   9.125 -0.1383  0.1137  0.0032
   63loPI   C2B 1006  18.210  14.454   8.722  0.1538 -0.4123 -0.0281
   63loPI   C3B 1007  18.362  14.444   8.340  0.2825  0.0221 -0.0418
   63loPI   C4B 1008  18.380  14.475   7.874  0.0430  0.1365 -0.1345
   64loPI    C1 1009  16.143  14.951  10.074 -0.2836  0.1443  0.1518
   64loPI    C2 1010  16.097  14.572  10.192  0.0756  0.0364 -0.0410
   64loPI    C3 1011  16.148  14.861  10.463 -0.0709 -0.0701  0.1015
   64loPI   PO4 1012  16.187  14.924   9.887  0.0120  0.2409 -0.2094
   64loPI   GL1 1013  16.069  15.159   9.524 -0.1761 -0.0492 -0.0160
   64loPI   GL2 1014  16.020  14.851   9.443  0.1942 -0.2908 -0.1408
   64loPI   C1A 1015  16.188  15.202   9.169 -0.0104  0.1690 -0.0498
   64loPI   C2A 1016  16.203  15.134   8.760 -0.1375 -0.3597  0.1649
   64loPI   C3A 1017  16.286  15.148   8.373  0.1123 -0.1220  0.2512
   64loPI   C4A 1018  16.469  15.276   7.916 -0.2743 -0.2071  0.1259
   64loPI   C5A 1019  16.842  15.592   7.926  0.2024 -0.2130  0.1355
   64loPI   C6A 1020  16.927  15.953   7.687  0.0953  0.3524  0.0982
   64loPI   C1B 1021  16.221  14.476   9.289  0.0146  0.1027  0.0780
   64loPI   C2B 1022  16.434  13.997   9.353 -0.0943 -0.1946  0.0837
   64loPI   C3B 1023  16.641  13.760   9.024  0.1730 -0.3113 -0.2629
   64loPI   C4B 1024  17.030  13.965   8.830  0.1742 -0.0551 -0.3158
   65loPI    C1 1025   9.512   8.113  10.174  0.0872 -0.0484  0.1448
   65loPI    C2 1026   9.708   8.445  10.070 -0.1693  0.0661  0.0165
   65loPI    C3 1027   9.882   8.177  10.310  0.0770  0.2448  0.0416
   65loPI   PO4 1028   9.401   8.036  10.006  0.0717  0.2041  0.0067
   65loPI   GL1 1029   9.124   8.118   9.629  0.0382 -0.0982 -0.1574
   65loPI   GL2 1030   9.177   7.747   9.656 -0.1091 -0.3790  0.3209
   65loPI   C1A 1031   9.329   8.307   9.249 -0.0934 -0.1939 -0.0053
   65loPI   C2A 1032   9.474   8.190   8.972  0.3441  0.2092 -0.1655
   65loPI   C3A 1033   9.675   8.312   8.663 -0.1181  0.0565 -0.0994
   65loPI   C4A 1034   9.862   8.566   8.382  0.0954 -0.0503 -0.0742
   65loPI   C5A 1035  10.143   8.682   8.061 -0.3211  0.2481  0.1124
   65loPI   C6A 1036  10.264   8.855   7.598 -0.1176 -0.0126 -0.1143
   65loPI   C1B 1037   8.950   7.806   9.231  0.2282  0.1800  0.1171
   65loPI   C2B 1038   8.926   7.660   8.780 -0.0216 -0.2374 -0.1674
   65loPI   C3B 1039   8.982   7.584   8.433  0.1381 -0.0306  0.2781
   65loPI   C4B 1040   8.811   7.402   8.116 -0.2935 -0.2210  0.2318
   66loPI    C1 1041   8.651   3.883  10.100 -0.4280  0.0373  0.0142
   66loPI    C2 1042   8.465   3.531  10.058 -0.0042 -0.2101  0.1413
   66loPI    C3 1043   8.451   3.724  10.408 -0.0871 -0.1881  0.1261
   66loPI   PO4 1044   8.812   3.889   9.854 -0.0448  0.3717 -0.2739
   66loPI   GL1 1045   8.910   3.689   9.592 -0.2377 -0.0834 -0.0564
   66loPI   GL2 1046   8.529   3.590   9.565  0.3410  0.4985 -0.2747
   66loPI   C1A 1047   9.178   3.622   9.211  0.0485 -0.2463  0.0519
   66loPI   C2A 1048   9.377   3.593   8.700 -0.1131 -0.0674 -0.0409
   66loPI   C3A 1049   9.281   3.365   8.365 -0.0122 -0.1185 -0.0007
   66loPI   C4A 1050   9.022   3.108   8.182 -0.1412 -0.1139  0.0382
   66loPI   C5A 1051   8.552   3.165   8.108  0.0163  0.2029 -0.0298
   66loPI   C6A 1052   8.147   2.928   8.287 -0.0018 -0.1718 -0.0934
   66loPI   C1B 1053   8.609   3.774   9.206  0.2552 -0.1125  0.1150
   66loPI   C2B 1054   8.541   3.928   8.726  0.1918 -0.1129 -0.1496
   66loPI   C3B 1055   8.498   4.009   8.294  0.0588  0.0220  0.1908
   66loPI   C4B 1056   8.583   3.757   7.929  0.1503 -0.1778  0.2696
   67loPI    C1 1057   9.400   6.268  10.523 -0.0876  0.2200 -0.3397
   67loPI    C2 1058   9.769   6.158  10.414  0.0388  0.2582  0.0372
   67loPI    C3 1059   9.673   6.546  10.434 -0.0686  0.2455 -0.2040
   67loPI   PO4 1060   9.247   6.194  10.272  0.1729 -0.0237 -0.2022
   67loPI   GL1 1061   9.025   6.260   9.781  0.1213 -0.0489  0.0519
   67loPI   GL2 1062   9.096   6.469   9.738  0.0236 -0.1208  0.2948
   67loPI   C1A 1063   8.844   6.004   9.517 -0.0888 -0.0236  0.0079
   67loPI   C2A 1064   8.794   5.836   9.094  0.2526 -0.0399  0.2635
   67loPI   C3A 1065   8.895   5.544   8.839  0.2457  0.1305  0.0629
   67loPI   C4A 1066   9.061   5.498   8.494  0.0919  0.0743 -0.2036
   67loPI   C5A 1067   9.062   5.541   8.050 -0.1213  0.0944 -0.1150
   67loPI   C6A 1068   8.795   5.493   7.732  0.0521 -0.0915 -0.1729
   67loPI   C1B 1069   9.137   6.446   9.317 -0.1333  0.4327 -0.1390
   67loPI   C2B 1070   9.169   6.473   8.931 -0.1742  0.3473 -0.0183
   67loPI   C3B 1071   9.246   6.510   8.488  0.2092 -0.0911 -0.3880
   67loPI   C4B 1072   9.247   6.611   8.027  0.0186  0.2031  0.3716
   68loPI    C1 1073   4.441   0.257  10.551 -0.0133  0.1347 -0.0232
   68loPI    C2 1074   4.596   0.068  10.868  0.0975  0.3507  0.0534
   68loPI    C3 1075   4.242   0.251  10.897 -0.0260  0.1301 -0.0306
   68loPI   PO4 1076   4.313   0.107  10.378  0.0493 -0.1389 -0.0535
   68loPI   GL1 1077   4.298   0.410  10.070 -0.0236  0.2053  0.2316
   68loPI   GL2 1078   4.493   0.712  10.033  0.2652 -0.0856  0.1578
   68loPI   C1A 1079   4.295   0.316   9.641 -0.0248  0.0846 -0.2054
   68loPI   C2A 1080   4.256  -0.092   9.423  0.0230 -0.0191 -0.0590
   68loPI   C3A 1081   4.514  -0.212   9.069 -0.3271  0.2459 -0.3525
   68loPI   C4A 1082   4.588  -0.133   8.604  0.1644  0.0545  0.0348
   68loPI   C5A 1083   4.855   0.027   8.342 -0.1237 -0.0694  0.2239
   68loPI   C6A 1084   4.918   0.321   8.180  0.2815 -0.0505  0.0850
   68loPI   C1B 1085   4.432   1.005   9.703 -0.0329 -0.0116  0.0772
   68loPI   C2B 1086   4.360   1.181   9.291 -0.2865 -0.1768  0.2005
   68loPI   C3B 1087   4.270   1.347   8.941  0.0533  0.0059  0.1460
   68loPI   C4B 1088   4.128   1.380   8.604 -0.0614 -0.2768  0.0493
   69loPI    C1 1089  14.859  17.389  10.716 -0.1831  0.1377  0.1348
   69loPI    C2 1090  15.214  17.413  10.900 -0.0719 -0.2176 -0.0246
   69loPI    C3 1091  14.879  17.505  11.098  0.0977  0.0086  0.1623
   69loPI   PO4 1092  14.934  17.477  10.485  0.3252 -0.0325  0.1863
   69loPI   GL1 1093  14.831  17.656  10.089  0.0978 -0.1090 -0.0337
   69loPI   GL2 1094  14.983  17.860   9.812 -0.0482 -0.3273  0.0294
   69loPI   C1A 1095  14.666  17.473   9.757  0.0021 -0.1003  0.4372
   69loPI   C2A 1096  14.339  17.104   9.608 -0.0270 -0.0744 -0.0076
   69loPI   C3A 1097  14.019  17.136   9.279  0.0167  0.1088  0.1216
   69loPI   C4A 1098  13.676  17.201   8.910 -0.0736  0.0025 -0.2612
   69loPI   C5A 1099  13.614  17.430   8.559  0.1214 -0.2307 -0.1100
   69loPI   C6A 1100  13.798  17.631   8.226 -0.0999 -0.0450  0.0937
   69loPI   C1B 1101  14.902  17.693   9.398  0.2060 -0.1225  0.2097
   69loPI   C2B 1102  14.615  17.778   8.950  0.0172 -0.1145 -0.0683
   69loPI   C3B 1103  14.601  17.403   8.682  0.1722 -0.0951  0.3092
   69loPI   C4B 1104  14.601  16.982   8.637  0.0240 -0.2113 -0.1912
   70loPI    C1 1105   3.056  18.355  10.378  0.0843  0.2001 -0.0798
   70loPI    C2 1106   3.335  18.596  10.533  0.0969 -0.1214  0.4189
   70loPI    C3 1107   3.381  18.199  10.550  0.0030 -0.1728 -0.2552
   70loPI   PO4 1108   3.010  18.461  10.131 -0.0419  0.0101 -0.2221
   70loPI   GL1 1109   3.223  18.340   9.658  0.1843  0.2180  0.0859
   70loPI   GL2 1110   3.060  18.001   9.554 -0.1102  0.0869 -0.2436
   70loPI   C1A 1111   3.222  18.467   9.126 -0.1477 -0.0866  0.1761
   70loPI   C2A 1112   3.466  18.545   8.850 -0.1545 -0.1107  0.2971
   70loPI   C3A 1113   3.752  18.458   8.595  0.0092 -0.3114  0.1277
   70loPI   C4A 1114   3.885  18.682   8.262  0.0657  0.0426 -0.0120
   70loPI   C5A 1115   3.985  19.070   8.082  0.0860  0.1401 -0.1570
   70loPI   C6A 1116   4.052  19.514   8.112  0.0549  0.1192  0.1390
   70loPI   C1B 1117   3.536  18.079   9.316 -0.3215  0.0639 -0.1569
   70loPI   C2B 1118   3.815  18.250   9.037 -0.0560 -0.2712 -0.5182
   70loPI   C3B 1119   4.128  18.503   8.917  0.0682 -0.1454 -0.3565
   70loPI   C4B 1120   4.446  18.814   8.751 -0.4190  0.2276 -0.2144
   71loPI    C1 1121   7.614   4.377   9.901  0.0513 -0.1511  0.0921
   71loPI    C2 1122   7.837   4.333  10.230 -0.0493  0.1735  0.2083
   71loPI    C3 1123   7.450   4.230  10.235  0.0363 -0.1695  0.0766
   71loPI   PO4 1124   7.720   4.264   9.732  0.1663  0.1164 -0.0731
   71loPI   GL1 1125   7.627   4.262   9.362  0.0417 -0.1303 -0.0250
   71loPI   GL2 1126   7.861   3.930   9.375 -0.1556 -0.3002  0.0450
   71loPI   C1A 1127   7.535   4.137   8.868 -0.3031 -0.2979 -0.0561
   71loPI   C2A 1128   7.356   4.032   8.444  0.0621 -0.0441  0.0317
   71loPI   C3A 1129   7.200   3.965   8.085 -0.1364 -0.1343  0.0943
   71loPI   C4A 1130   7.018   3.721   7.767  0.1791 -0.2244  0.1269
   71loPI   C5A 1131   6.827   3.802   7.339  0.1061  0.0903 -0.2696
   71loPI   C6A 1132   6.675   3.584   7.047 -0.0478 -0.0736  0.0564
   71loPI   C1B 1133   8.025   4.091   9.069 -0.0629 -0.1645  0.0139
   71loPI   C2B 1134   8.040   4.094   8.555  0.0203 -0.4285  0.1427
   71loPI   C3B 1135   7.767   3.856   8.166 -0.1112 -0.3061 -0.2035
   71loPI   C4B 1136   7.596   3.846   7.802 -0.0225 -0.1667  0.2164
   72loPI    C1 1137  12.881   9.063  10.393 -0.2695  0.2254 -0.1241
   72loPI    C2 1138  13.039   9.332  10.643 -0.2243  0.1543 -0.0760
   72loPI    C3 1139  12.778   9.061  10.779  0.1988 -0.2227  0.0097
   72loPI   PO4 1140  12.919   9.193  10.184 -0.1965  0.1076 -0.0859
   72loPI   GL1 1141  13.026   9.345   9.848 -0.0124 -0.0781  0.1596
   72loPI   GL2 1142  12.763   9.219   9.660 -0.0004 -0.2628 -0.0798
   72loPI   C1A 1143  13.088   9.704   9.607 -0.0451  0.1310  0.1848
   72loPI   C2A 1144  13.029   9.990   9.186 -0.2514 -0.0302 -0.1000
   72loPI   C3A 1145  13.071   9.846   8.841  0.2752  0.1918 -0.1143
   72loPI   C4A 1146  13.168   9.940   8.463 -0.0681 -0.1091 -0.0248
   72loPI   C5A 1147  13.069  10.343   8.191 -0.1103  0.0390 -0.1107
   72loPI   C6A 1148  12.898  10.454   7.839 -0.0395 -0.0509  0.1632
   72loPI   C1B 1149  12.674   9.569   9.329  0.1577  0.0121 -0.1344
   72loPI   C2B 1150  12.597   9.956   8.974  0.1770  0.4196 -0.0041
   72loPI   C3B 1151  12.793  10.208   8.692 -0.0274  0.1237  0.2850
   72loPI   C4B 1152  12.944  10.616   8.599  0.3104 -0.0530  0.1611
   73loPI    C1 1153   7.937   5.800   9.907 -0.3286  0.2065  0.1341
   73loPI    C2 1154   7.874   5.662  10.277 -0.0840 -0.0398  0.0867
   73loPI    C3 1155   8.062   5.434  10.007 -0.0673  0.2206 -0.1261
   73loPI   PO4 1156   8.041   6.080   9.872  0.0926  0.3309 -0.1411
   73loPI   GL1 1157   7.985   6.382   9.540 -0.2931 -0.3507  0.1550
   73loPI   GL2 1158   8.200   6.011   9.414  0.0551 -0.0983 -0.1016
   73loPI   C1A 1159   8.165   6.398   9.058 -0.0255 -0.1865 -0.0973
   73loPI   C2A 1160   8.262   6.385   8.583  0.1540  0.1291  0.1653
   73loPI   C3A 1161   8.399   6.182   8.160 -0.0296  0.3336 -0.0013
   73loPI   C4A 1162   8.592   6.414   7.792 -0.0307 -0.0367 -0.0361
   73loPI   C5A 1163   8.751   6.850   7.900  0.2969 -0.3843 -0.1453
   73loPI   C6A 1164   8.475   7.054   7.954 -0.0518  0.0333 -0.0516
   73loPI   C1B 1165   8.309   5.954   8.971 -0.0902 -0.1057  0.1977
   73loPI   C2B 1166   8.169   5.847   8.481  0.0062  0.1945  0.0972
   73loPI   C3B 1167   7.980   5.918   7.996 -0.2951 -0.1735 -0.1746
   73loPI   C4B 1168   7.821   6.176   7.525 -0.1836  0.0561 -0.0491
   74loPI    C1 1169  10.012  10.322  10.285 -0.1845  0.0797  0.0798
   74loPI    C2 1170   9.702  10.105  10.416 -0.0632 -0.0618  0.1362
   74loPI    C3 1171   9.847  10.404  10.640  0.0480 -0.2063  0.2588
   74loPI   PO4 1172  10.124  10.157  10.102 -0.1243 -0.0812 -0.1544
   74loPI   GL1 1173  10.059  10.197   9.665  0.0489  0.1939 -0.0709
   74loPI   GL2 1174   9.683  10.089   9.501  0.2873 -0.0538 -0.2098
   74loPI   C1A 1175  10.122  10.098   9.195 -0.0053  0.4122  0.0752
   74loPI   C2A 1176  10.085  10.064   8.710  0.0563 -0.1602 -0.1550
   74loPI   C3A 1177   9.958   9.916   8.341 -0.0965  0.0446 -0.1050
   74loPI   C4A 1178   9.751   9.474   8.222 -0.0037  0.0458 -0.1794
   74loPI   C5A 1179   9.320   9.358   8.209  0.2746  0.1328 -0.0211
   74loPI   C6A 1180   9.169   9.005   8.014  0.4582  0.0845 -0.3200
   74loPI   C1B 1181   9.643  10.271   9.117  0.2704  0.0322  0.1723
   74loPI   C2B 1182   9.607  10.203   8.631  0.0987 -0.0378  0.1491
   74loPI   C3B 1183   9.599  10.260   8.209  0.3755 -0.3055 -0.0188
   74loPI   C4B 1184   9.546   9.908   7.917 -0.1440  0.0171  0.2094
   75loPI    C1 1185   7.405   9.930  10.614  0.0919 -0.1879 -0.0852
   75loPI    C2 1186   7.673  10.054  10.884 -0.0415 -0.1032  0.0095
   75loPI    C3 1187   7.329   9.889  11.005 -0.1971  0.1332 -0.1032
   75loPI   PO4 1188   7.550   9.910  10.412  0.0192  0.1189  0.3758
   75loPI   GL1 1189   7.494  10.272  10.037  0.1732  0.2843  0.0596
   75loPI   GL2 1190   7.641  10.354   9.675 -0.1795  0.0109  0.1698
   75loPI   C1A 1191   7.201  10.148   9.712 -0.1347 -0.1323  0.2479
   75loPI   C2A 1192   7.006   9.970   9.346 -0.2427 -0.1569 -0.1185
   75loPI   C3A 1193   7.094   9.987   8.936  0.1774  0.0080 -0.1606
   75loPI   C4A 1194   6.935  10.145   8.571 -0.0211  0.0721  0.1006
   75loPI   C5A 1195   6.627  10.154   8.203 -0.0291 -0.0387  0.0640
   75loPI   C6A 1196   6.333  10.038   7.873  0.3310  0.0568  0.2908
   75loPI   C1B 1197   7.910  10.062   9.652  0.0329 -0.0354  0.0142
   75loPI   C2B 1198   8.083   9.879   9.377  0.0789 -0.0330  0.1203
   75loPI   C3B 1199   8.155   9.944   8.931  0.0227 -0.0074  0.0535
   75loPI   C4B 1200   8.042  10.106   8.622 -0.0810  0.2562  0.1870
   76loPI    C1 1201   7.444   0.457  10.324 -0.2653  0.1028  0.0807
   76loPI    C2 1202   7.615   0.758  10.524  0.1973 -0.0752 -0.0321
   76loPI    C3 1203   7.763   0.388  10.555 -0.1558 -0.2323 -0.1623
   76loPI   PO4 1204   7.426   0.580  10.061 -0.0078  0.0419  0.1868
   76loPI   GL1 1205   7.253   0.524   9.760 -0.0176 -0.1979  0.0644
   76loPI   GL2 1206   7.123   0.859   9.782 -0.0130 -0.1401 -0.0086
   76loPI   C1A 1207   7.281   0.673   9.340 -0.2113 -0.2061  0.0415
   76loPI   C2A 1208   7.097   0.655   8.949  0.0750 -0.1133  0.2070
   76loPI   C3A 1209   6.654   0.807   8.685  0.1843 -0.3507  0.0809
   76loPI   C4A 1210   6.529   0.727   8.276 -0.2149 -0.2675  0.3507
   76loPI   C5A 1211   6.294   0.467   7.970  0.1608  0.3903  0.0494
   76loPI   C6A 1212   6.415   0.359   7.489 -0.3170  0.0859 -0.1101
   76loPI   C1B 1213   6.949   1.022   9.461 -0.0237 -0.2406  0.0022
   76loPI   C2B 1214   7.013   1.138   9.029 -0.2515 -0.2109  0.1549
   76loPI   C3B 1215   7.200   1.044   8.678  0.1840  0.0133 -0.0710
   76loPI   C4B 1216   7.065   0.697   8.410 -0.0273  0.0338  0.0979
   77loPI    C1 1217  15.947  15.966  10.151 -0.0397 -0.1860  0.0469
   77loPI    C2 1218  15.785  15.669  10.364 -0.2658 -0.0752  0.0333
   77loPI    C3 1219  15.930  15.992  10.550 -0.5005  0.0397  0.0196
   77loPI   PO4 1220  16.124  15.802   9.967  0.3438 -0.0229  0.1330
   77loPI   GL1 1221  16.184  15.824   9.565 -0.1043  0.4550 -0.4656
   77loPI   GL2 1222  16.311  15.997   9.303 -0.1433 -0.2072  0.2245
   77loPI   C1A 1223  16.534  15.567   9.253  0.0660 -0.2480  0.0658
   77loPI   C2A 1224  16.611  15.361   8.887 -0.0156 -0.0910  0.2147
   77loPI   C3A 1225  16.917  15.288   8.602  0.0137 -0.1546  0.1333
   77loPI   C4A 1226  16.842  15.088   8.221  0.0816 -0.2899  0.3040
   77loPI   C5A 1227  17.073  15.079   7.796  0.0204 -0.1011 -0.1821
   77loPI   C6A 1228  17.155  15.276   7.447 -0.1797  0.1898  0.1726
   77loPI   C1B 1229  16.378  15.934   8.871  0.1039 -0.3524 -0.1110
   77loPI   C2B 1230  16.366  16.053   8.477  0.3681  0.0597 -0.2703
   77loPI   C3B 1231  16.345  16.323   8.154  0.2975 -0.1805  0.0692
   77loPI   C4B 1232  16.340  16.673   7.824 -0.3322 -0.1661 -0.1177
   78loPI    C1 1233  15.846  17.590  10.350  0.2177 -0.0968 -0.1025
   78loPI    C2 1234  15.912  17.233  10.518  0.1837  0.0072  0.1369
   78loPI    C3 1235  15.974  17.567  10.729  0.0921  0.1399 -0.0436
   78loPI   PO4 1236  15.819  17.450  10.026  0.1686 -0.1815  0.3460
   78loPI   GL1 1237  15.626  17.590   9.743  0.0870  0.1508 -0.1221
   78loPI   GL2 1238  15.406  17.227   9.866 -0.4166 -0.2671 -0.3195
   78loPI   C1A 1239  15.392  17.748   9.299  0.2088 -0.1789 -0.4019
   78loPI   C2A 1240  15.259  17.633   8.888 -0.1031  0.0687  0.1203
   78loPI   C3A 1241  15.425  17.552   8.531 -0.0529  0.0073 -0.2296
   78loPI   C4A 1242  15.448  17.747   8.193  0.0217  0.2740  0.1598
   78loPI   C5A 1243  15.480  17.621   7.839  0.2685  0.2628  0.2186
   78loPI   C6A 1244  15.768  17.459   7.556 -0.2631 -0.0526  0.1278
   78loPI   C1B 1245  15.481  17.200   9.404 -0.2561 -0.0687  0.1172
   78loPI   C2B 1246  15.497  17.205   8.980  0.0144  0.0797  0.0182
   78loPI   C3B 1247  15.597  17.113   8.528 -0.0998 -0.0208 -0.1735
   78loPI   C4B 1248  15.723  17.273   8.091 -0.1275  0.0632 -0.0510
   79loPI    C1 1249  17.415   2.324  10.124  0.2741  0.0213  0.0729
   79loPI    C2 1250  17.132   2.336  10.406  0.2325 -0.1325  0.0381
   79loPI    C3 1251  17.507   2.441  10.496  0.2062 -0.1197  0.1345
   79loPI   PO4 1252  17.349   2.472   9.927  0.0142  0.1982  0.0038
   79loPI   GL1 1253  17.083   2.641   9.605 -0.0488  0.0975  0.1352
   79loPI   GL2 1254  16.821   2.895   9.559 -0.0345 -0.0943  0.2354
   79loPI   C1A 1255  17.146   2.340   9.246 -0.2968 -0.0003 -0.2069
   79loPI   C2A 1256  17.364   2.486   8.786  0.1465  0.2995 -0.0586
   79loPI   C3A 1257  17.401   2.512   8.319 -0.2054  0.2439 -0.0393
   79loPI   C4A 1258  17.687   2.420   8.002 -0.0334  0.0523  0.4528
   79loPI   C5A 1259  18.029   2.675   7.692  0.2786  0.3438 -0.0929
   79loPI   C6A 1260  18.271   2.635   7.316  0.1349  0.0137 -0.2346
   79loPI   C1B 1261  16.813   2.742   9.164  0.0607 -0.1500  0.2920
   79loPI   C2B 1262  16.825   2.549   8.752 -0.0008  0.0213  0.2449
   79loPI   C3B 1263  16.533   2.516   8.588  0.0610  0.0203 -0.0768
   79loPI   C4B 1264  16.350   2.372   8.146  0.2024  0.0921  0.1711
   80loPI    C1 1265   5.916   3.356  10.406 -0.1013 -0.0060  0.1393
   80loPI    C2 1266   5.980   3.746  10.465 -0.1283 -0.0138  0.2217
   80loPI    C3 1267   6.278   3.485  10.519 -0.0136  0.0283 -0.1703
   80loPI   PO4 1268   5.855   3.283  10.150  0.1940  0.0993  0.1936
   80loPI   GL1 1269   5.820   3.376   9.838  0.0217  0.1456 -0.2030
   80loPI   GL2 1270   6.075   3.313   9.702  0.0692  0.2554  0.1928
   80loPI   C1A 1271   5.572   3.665   9.558 -0.0381  0.2257  0.1346
   80loPI   C2A 1272   5.591   3.544   9.040 -0.0404  0.5305  0.0979
   80loPI   C3A 1273   5.778   3.454   8.666  0.1292 -0.0995 -0.1660
   80loPI   C4A 1274   5.776   3.850   8.386  0.3126 -0.2051 -0.1084
   80loPI   C5A 1275   5.719   3.986   7.965  0.0224  0.0672 -0.0173
   80loPI   C6A 1276   5.669   4.385   7.647 -0.3732 -0.1002  0.2681
   80loPI   C1B 1277   5.824   3.253   9.358 -0.3257  0.0159  0.0441
   80loPI   C2B 1278   5.812   3.021   9.053 -0.1986  0.0855  0.0454
   80loPI   C3B 1279   5.553   2.828   8.757  0.0019  0.1141  0.1045
   80loPI   C4B 1280   5.513   2.931   8.242 -0.0221  0.1388  0.0420
   81loPI    C1 1281   0.794   2.069  10.681  0.0057  0.1826  0.1529
   81loPI    C2 1282   0.588   2.398  10.777 -0.1578  0.0998  0.0912
   81loPI    C3 1283   0.646   2.112  11.050  0.0414  0.2079  0.1644
   81loPI   PO4 1284   0.777   2.131  10.358  0.2516 -0.0941 -0.0987
   81loPI   GL1 1285   1.106   2.326  10.111 -0.2127 -0.2408  0.2068
   81loPI   GL2 1286   1.077   2.694  10.084 -0.2693 -0.1143 -0.0302
   81loPI   C1A 1287   1.076   2.062   9.785  0.1365 -0.1368  0.1836
   81loPI   C2A 1288   0.860   1.724   9.672  0.1180  0.1549  0.0008
   81loPI   C3A 1289   0.720   1.507   9.226  0.2732  0.0184 -0.1092
   81loPI   C4A 1290   0.748   1.474   8.822  0.1300  0.0498  0.0240
   81loPI   C5A 1291   0.603   1.308   8.451  0.2811  0.1416 -0.2485
   81loPI   C6A 1292   0.356   1.489   8.066 -0.1752  0.0516  0.5305
   81loPI   C1B 1293   1.011   2.556   9.629 -0.0243 -0.2134  0.1628
   81loPI   C2B 1294   0.924   2.704   9.292 -0.2794  0.0418 -0.1021
   81loPI   C3B 1295   0.803   2.820   8.878  0.4283  0.0403 -0.1423
   81loPI   C4B 1296   0.503   2.692   8.540  0.0238  0.2887  0.0552
   82loPI    C1 1297  13.515  11.138  10.113 -0.2480  0.1651  0.0175
   82loPI    C2 1298  13.421  11.389  10.410 -0.0233  0.3019 -0.0244
   82loPI    C3 1299  13.609  11.045  10.490 -0.2887  0.1665  0.0281
   82loPI   PO4 1300  13.328  11.091   9.914 -0.5242 -0.0242  0.0413
   82loPI   GL1 1301  12.898  11.177   9.589 -0.4225  0.1333  0.0801
   82loPI   GL2 1302  12.987  11.392   9.734  0.4494 -0.1852 -0.1284
   82loPI   C1A 1303  13.188  11.310   9.268  0.1480  0.1113 -0.1456
   82loPI   C2A 1304  13.271  11.394   8.911 -0.0763  0.3578 -0.0126
   82loPI   C3A 1305  13.508  11.289   8.585 -0.1514 -0.2615  0.1164
   82loPI   C4A 1306  13.627  11.584   8.170  0.0395 -0.1075  0.2295
   82loPI   C5A 1307  13.684  12.000   8.056 -0.1438  0.0274  0.2607
   82loPI   C6A 1308  14.119  12.252   7.815  0.0136  0.2669  0.0119
   82loPI   C1B 1309  13.220  11.765   9.455  0.0098  0.1737  0.4036
   82loPI   C2B 1310  13.260  11.870   9.088  0.0696 -0.3167 -0.1168
   82loPI   C3B 1311  13.594  12.067   9.065 -0.2509  0.1269 -0.4036
   82loPI   C4B 1312  13.755  12.381   9.069  0.1257 -0.0625 -0.3039
   83loPI    C1 1313  11.684  13.242  10.330 -0.0707  0.0021  0.2488
   83loPI    C2 1314  11.934  13.070  10.590  0.0608 -0.0839  0.0675
   83loPI    C3 1315  11.936  13.467  10.544  0.3407 -0.1029 -0.1103
   83loPI   PO4 1316  11.701  12.927  10.194  0.0596  0.2695 -0.1568
   83loPI   GL1 1317  11.565  12.671   9.770  0.2948 -0.1986 -0.1659
   83loPI   GL2 1318  11.806  12.628   9.705  0.0579  0.0156  0.2545
   83loPI   C1A 1319  11.466  12.810   9.351  0.2477  0.0954  0.0567
   83loPI   C2A 1320  11.393  12.781   8.874 -0.1692 -0.2390  0.0152
   83loPI   C3A 1321  11.183  13.036   8.580  0.3703  0.0797 -0.0577
   83loPI   C4A 1322  10.954  12.973   8.194  0.0185 -0.3656 -0.0531
   83loPI   C5A 1323  10.747  13.110   7.824  0.1039  0.1442 -0.2668
   83loPI   C6A 1324  10.581  13.464   7.873 -0.3180 -0.1319  0.0251
   83loPI   C1B 1325  11.909  12.632   9.180 -0.0497  0.2410 -0.1700
   83loPI   C2B 1326  11.933  12.517   8.680  0.2015  0.0748 -0.1558
   83loPI   C3B 1327  11.901  12.341   8.207  0.0908 -0.2087 -0.1930
   83loPI   C4B 1328  11.697  12.211   7.902 -0.3378  0.4020 -0.1617
   84loPI    C1 1329  11.752   2.680  10.480 -0.0884  0.1539  0.0689
   84loPI    C2 1330  11.938   2.347  10.601  0.1900  0.2516 -0.0813
   84loPI    C3 1331  11.724   2.562  10.862  0.1123  0.0239  0.0454
   84loPI   PO4 1332  11.601   2.586  10.284  0.1413  0.2412 -0.1532
   84loPI   GL1 1333  11.662   2.145  10.117 -0.0284 -0.1126 -0.2244
   84loPI   GL2 1334  11.874   1.991  10.075  0.2202 -0.2489  0.1397
   84loPI   C1A 1335  11.453   2.284   9.733  0.0939  0.0091  0.1882
   84loPI   C2A 1336  11.443   2.430   9.291 -0.2935 -0.2263  0.0011
   84loPI   C3A 1337  11.290   2.534   9.014  0.2167  0.2990 -0.2974
   84loPI   C4A 1338  11.086   2.597   8.515 -0.0527  0.0603  0.0408
   84loPI   C5A 1339  10.991   2.966   8.309  0.0650  0.2356  0.0549
   84loPI   C6A 1340  10.573   3.196   8.180 -0.1388  0.0291  0.1838
   84loPI   C1B 1341  11.905   2.085   9.631 -0.1251 -0.1022 -0.0337
   84loPI   C2B 1342  12.199   1.790   9.343 -0.1562 -0.0927  0.2566
   84loPI   C3B 1343  12.530   1.679   9.061  0.0715  0.1073  0.3684
   84loPI   C4B 1344  12.877   1.582   9.018 -0.0131  0.0941  0.1867
   85loPI    C1 1345  14.380  13.617  10.204  0.0355  0.0282  0.2556
   85loPI    C2 1346  14.278  13.231  10.226 -0.0970  0.0327 -0.1910
   85loPI    C3 1347  14.385  13.428  10.557 -0.1277 -0.3570  0.0577
   85loPI   PO4 1348  14.305  13.654   9.944 -0.2180 -0.1352  0.3836
   85loPI   GL1 1349  13.967  13.670   9.639 -0.0417 -0.0685 -0.0345
   85loPI   GL2 1350  14.015  13.858   9.523 -0.3185 -0.0865  0.1993
   85loPI   C1A 1351  14.058  13.452   9.258  0.2016  0.0327  0.0801
   85loPI   C2A 1352  14.203  13.332   8.882  0.1160  0.1627  0.1489
   85loPI   C3A 1353  14.004  13.287   8.575 -0.0082  0.4484 -0.2061
   85loPI   C4A 1354  13.620  13.328   8.358 -0.1139  0.0647  0.1226
   85loPI   C5A 1355  13.281  13.366   8.150 -0.7723 -0.1328 -0.0022
   85loPI   C6A 1356  13.248  13.598   7.833 -0.1427 -0.0253 -0.1028
   85loPI   C1B 1357  13.951  13.977   9.147 -0.2596  0.0242 -0.1148
   85loPI   C2B 1358  13.984  13.902   8.718  0.3145  0.0803  0.0089
   85loPI   C3B 1359  14.080  13.698   8.300 -0.0107 -0.0535 -0.0354
   85loPI   C4B 1360  14.057  13.264   8.043 -0.0719  0.3202  0.0290
   86loPI    C1 1361   6.610  14.611  10.444 -0.3297  0.5478  0.0566
   86loPI    C2 1362   6.712  14.711  10.817  0.3017 -0.1809  0.1040
   86loPI    C3 1363   6.391  14.482  10.753  0.3058 -0.2203  0.2201
   86loPI   PO4 1364   6.885  14.490  10.372 -0.1503 -0.0013  0.3775
   86loPI   GL1 1365   7.196  14.505  10.076 -0.0494  0.1732 -0.3332
   86loPI   GL2 1366   7.553  14.594   9.842 -0.0502  0.1206 -0.3754
   86loPI   C1A 1367   7.013  14.286   9.812  0.0900 -0.2411  0.1004
   86loPI   C2A 1368   6.951  13.995   9.415  0.3909  0.0790 -0.1189
   86loPI   C3A 1369   6.945  14.006   9.017  0.3201  0.1446 -0.0691
   86loPI   C4A 1370   6.871  14.207   8.580 -0.0044  0.1171  0.0836
   86loPI   C5A 1371   6.911  14.490   8.218 -0.0960 -0.1753 -0.0664
   86loPI   C6A 1372   7.182  14.820   8.044  0.1948  0.0740  0.1042
   86loPI   C1B 1373   7.505  14.676   9.451 -0.2066 -0.1564 -0.0628
   86loPI   C2B 1374   7.165  14.420   9.289  0.1347 -0.0977  0.1144
   86loPI   C3B 1375   6.830  14.520   8.967 -0.0484  0.1705 -0.1337
   86loPI   C4B 1376   6.762  14.840   8.638  0.1797  0.1058 -0.1893
   87loPI    C1 1377  13.700  14.113  10.182 -0.1715 -0.1538 -0.3952
   87loPI    C2 1378  13.302  14.074  10.170 -0.1931 -0.0942 -0.0077
   87loPI    C3 1379  13.512  13.892  10.457  0.0084  0.2674  0.0802
   87loPI   PO4 1380  13.821  14.086   9.979 -0.0149  0.1557  0.0998
   87loPI   GL1 1381  13.703  14.224   9.557  0.1541  0.3127 -0.3516
   87loPI   GL2 1382  13.596  14.488   9.729  0.1258 -0.2526  0.1368
   87loPI   C1A 1383  13.479  14.288   9.181 -0.0063  0.2563  0.1191
   87loPI   C2A 1384  13.563  14.254   8.786  0.1311  0.0942 -0.3073
   87loPI   C3A 1385  13.740  14.273   8.312 -0.0739  0.0212  0.1257
   87loPI   C4A 1386  14.058  14.277   8.110 -0.0528 -0.1600  0.2021
   87loPI   C5A 1387  14.268  14.011   7.875  0.1392 -0.1856  0.0304
   87loPI   C6A 1388  14.565  13.932   7.503  0.0614 -0.0202  0.2718
   87loPI   C1B 1389  13.845  14.592   9.306  0.2174  0.1312  0.0427
   87loPI   C2B 1390  13.885  14.626   8.869 -0.0525  0.3391  0.2442
   87loPI   C3B 1391  14.016  14.807   8.467  0.2639  0.1854  0.0026
   87loPI   C4B 1392  14.087  14.821   8.046 -0.2214  0.2408 -0.1629
   88loPI    C1 1393  11.776  15.775  10.701 -0.3765 -0.0334  0.2277
   88loPI    C2 1394  12.085  15.568  10.846 -0.0340  0.2175 -0.1228
   88loPI    C3 1395  11.712  15.466  10.946  0.1487 -0.2153  0.1484
   88loPI   PO4 1396  11.812  15.800  10.427  0.0014  0.4480  0.0963
   88loPI   GL1 1397  11.959  15.702   9.921  0.1644 -0.0882 -0.1176
   88loPI   GL2 1398  12.044  16.026  10.104 -0.1532  0.3166  0.2554
   88loPI   C1A 1399  12.069  15.506   9.565 -0.2307  0.0133 -0.0454
   88loPI   C2A 1400  12.030  15.465   9.151 -0.0360 -0.1222  0.3599
   88loPI   C3A 1401  12.043  15.371   8.713 -0.2102 -0.0083  0.0129
   88loPI   C4A 1402  12.197  15.486   8.322 -0.0801 -0.4282  0.1313
   88loPI   C5A 1403  12.383  15.463   7.897  0.5168  0.1038 -0.2206
   88loPI   C6A 1404  12.194  15.388   7.462  0.0335  0.1721  0.0767
   88loPI   C1B 1405  12.116  16.041   9.608 -0.2484  0.1210 -0.1743
   88loPI   C2B 1406  12.149  15.958   9.134  0.1763 -0.1470  0.0522
   88loPI   C3B 1407  12.022  15.876   8.691  0.2274 -0.0348  0.1281
   88loPI   C4B 1408  12.005  15.979   8.254  0.4152 -0.0902  0.2099
   89loPI    C1 1409   2.882   1.456  10.267  0.2187  0.1246 -0.0036
   89loPI    C2 1410   2.704   1.188  10.029  0.1848  0.2243 -0.0913
   89loPI    C3 1411   2.862   1.072  10.377 -0.0190  0.1281 -0.0292
   89loPI   PO4 1412   2.737   1.678  10.327  0.0186 -0.0666 -0.0857
   89loPI   GL1 1413   2.519   2.119  10.222 -0.2118  0.2768  0.0146
   89loPI   GL2 1414   2.143   2.123  10.133 -0.1850  0.0770  0.4825
   89loPI   C1A 1415   2.558   1.950   9.736 -0.1811 -0.3209 -0.2308
   89loPI   C2A 1416   2.857   1.907   9.417 -0.3347 -0.1120 -0.2045
   89loPI   C3A 1417   3.023   1.867   9.089 -0.3685 -0.1427 -0.2628
   89loPI   C4A 1418   3.090   2.095   8.758 -0.1733 -0.1044 -0.1942
   89loPI   C5A 1419   3.279   2.307   8.477 -0.5610 -0.4642  0.0562
   89loPI   C6A 1420   3.715   2.387   8.366  0.0701  0.0575  0.1254
   89loPI   C1B 1421   2.028   2.068   9.687  0.1113 -0.0194 -0.0929
   89loPI   C2B 1422   1.863   2.185   9.301 -0.0319 -0.1250 -0.0132
   89loPI   C3B 1423   1.994   1.985   8.805  0.2028  0.3422 -0.0994
   89loPI   C4B 1424   1.980   1.774   8.353  0.0936 -0.3006  0.0132
   90loPI    C1 1425   1.578  10.653  10.214 -0.0396  0.0163 -0.0698
   90loPI    C2 1426   1.631  11.038  10.309  0.0811 -0.0367  0.0807
   90loPI    C3 1427   1.781  10.751  10.544  0.2021 -0.1733 -0.1588
   90loPI   PO4 1428   1.695  10.559   9.854  0.2793 -0.3524 -0.2710
   90loPI   GL1 1429   1.554  10.521   9.416 -0.0603 -0.2814  0.1644
   90loPI   GL2 1430   1.819  10.627   9.362 -0.0413  0.1594 -0.0038
   90loPI   C1A 1431   1.446  10.509   8.975  0.0625 -0.0959  0.0058
   90loPI   C2A 1432   1.418  10.578   8.553  0.1022 -0.1346  0.1191
   90loPI   C3A 1433   1.213  10.742   8.199  0.0190 -0.3556 -0.3553
   90loPI   C4A 1434   1.092  10.972   7.849  0.1406 -0.2035  0.0824
   90loPI   C5A 1435   0.955  11.321   7.675 -0.0960  0.2149 -0.1271
   90loPI   C6A 1436   0.682  11.518   7.485 -0.0405  0.0918  0.2708
   90loPI   C1B 1437   1.959  10.625   8.956 -0.2160 -0.0618 -0.0222
   90loPI   C2B 1438   1.999  10.704   8.457  0.0900  0.6042  0.0632
   90loPI   C3B 1439   2.071  10.558   8.074  0.1998  0.3712  0.1853
   90loPI   C4B 1440   1.897  10.337   7.702  0.0435  0.1913 -0.0589
   91loPI    C1 1441   4.833   0.045  10.378  0.1072 -0.0974  0.2041
   91loPI    C2 1442   5.216  -0.065  10.347  0.1651  0.1690 -0.0696
   91loPI    C3 1443   5.100   0.170  10.649  0.1633 -0.1207  0.1595
   91loPI   PO4 1444   4.797   0.123  10.185  0.0009 -0.2699 -0.0564
   91loPI   GL1 1445   5.131   0.210   9.925  0.2374 -0.0449  0.3194
   91loPI   GL2 1446   5.015   0.516  10.030 -0.1120 -0.3110  0.0159
   91loPI   C1A 1447   5.068   0.162   9.560 -0.0483  0.2353  0.0961
   91loPI   C2A 1448   5.089  -0.001   9.209 -0.2586 -0.0825  0.1857
   91loPI   C3A 1449   5.007   0.157   8.772 -0.2245 -0.0024 -0.0470
   91loPI   C4A 1450   4.876   0.495   8.635  0.0056  0.0295 -0.3396
   91loPI   C5A 1451   4.662   0.735   8.426  0.4006 -0.2004 -0.2258
   91loPI   C6A 1452   4.452   0.639   8.000 -0.1953 -0.2493 -0.1682
   91loPI   C1B 1453   4.718   0.572   9.651 -0.0452  0.1440  0.0380
   91loPI   C2B 1454   4.524   0.721   9.234 -0.0985 -0.3694 -0.0094
   91loPI   C3B 1455   4.443   0.784   8.900 -0.0497  0.0231 -0.6174
   91loPI   C4B 1456   4.148   0.680   8.526  0.1673 -0.2542  0.0283
   92loPI    C1 1457   8.974   9.306  10.424  0.0092  0.2554  0.0197
   92loPI    C2 1458   8.965   8.906  10.410 -0.1420  0.2652 -0.2113
   92loPI    C3 1459   9.168   9.092  10.701 -0.0354  0.0212 -0.1276
   92loPI   PO4 1460   9.056   9.388  10.144  0.3184 -0.1119 -0.0009
   92loPI   GL1 1461   9.042   9.599   9.809 -0.1260  0.0958 -0.1557
   92loPI   GL2 1462   8.872   9.571   9.767  0.1943  0.0277  0.3899
   92loPI   C1A 1463   9.312   9.848   9.439  0.0022  0.0652  0.2587
   92loPI   C2A 1464   9.228  10.025   8.978 -0.0123 -0.2787  0.0737
   92loPI   C3A 1465   9.079  10.245   8.605  0.0539 -0.3277 -0.0030
   92loPI   C4A 1466   9.100  10.423   8.164  0.0819  0.0163  0.2138
   92loPI   C5A 1467   9.019  10.671   7.772  0.1521  0.2939  0.0658
   92loPI   C6A 1468   9.184  10.475   7.369  0.0624 -0.2712  0.1593
   92loPI   C1B 1469   8.569   9.480   9.543 -0.1782 -0.1220  0.2998
   92loPI   C2B 1470   8.484   9.579   9.117 -0.1301 -0.0195 -0.0235
   92loPI   C3B 1471   8.163   9.354   8.920  0.0922  0.2325  0.1422
   92loPI   C4B 1472   8.076   9.407   8.485  0.0200 -0.0044 -0.2269
   93loPI    C1 1473   4.245   3.784  10.780 -0.1014  0.0968  0.0582
   93loPI    C2 1474   4.467   3.484  10.924  0.0472  0.2048  0.0558
   93loPI    C3 1475   4.071   3.442  10.893  0.0681  0.0052  0.0459
   93loPI   PO4 1476   4.262   3.858  10.621  0.1082 -0.2575  0.0888
   93loPI   GL1 1477   4.338   3.788  10.153  0.0964  0.2728  0.3648
   93loPI   GL2 1478   4.206   4.054  10.021  0.1027  0.1944 -0.1504
   93loPI   C1A 1479   4.361   3.621   9.804  0.2461  0.1582  0.1548
   93loPI   C2A 1480   4.229   3.535   9.413 -0.1458 -0.0572 -0.0553
   93loPI   C3A 1481   4.295   3.734   8.991  0.1806  0.1399 -0.2651
   93loPI   C4A 1482   4.346   3.812   8.555  0.2494  0.0672 -0.0653
   93loPI   C5A 1483   4.168   3.829   8.123  0.4347 -0.1614  0.0057
   93loPI   C6A 1484   3.723   3.847   8.020  0.0991  0.1717  0.0679
   93loPI   C1B 1485   4.031   3.936   9.667 -0.2518 -0.1008  0.1845
   93loPI   C2B 1486   3.904   3.972   9.240  0.0287  0.1753 -0.1132
   93loPI   C3B 1487   3.886   3.994   8.752  0.4440 -0.0954 -0.3541
   93loPI   C4B 1488   3.932   4.248   8.374 -0.2755  0.0187 -0.0138
   94loPI    C1 1489  14.206  11.364  10.226  0.0996 -0.1494  0.0633
   94loPI    C2 1490  13.858  11.550  10.160  0.2214  0.0031 -0.1620
   94loPI    C3 1491  13.965  11.452  10.532 -0.0664 -0.0546 -0.0925
   94loPI   PO4 1492  14.235  11.274   9.911  0.2781 -0.1459 -0.4039
   94loPI   GL1 1493  14.028  10.935   9.577 -0.0738  0.0546 -0.1243
   94loPI   GL2 1494  14.343  10.845   9.579  0.0847 -0.1858 -0.1255
   94loPI   C1A 1495  13.918  10.893   9.238 -0.0362 -0.0203 -0.1313
   94loPI   C2A 1496  13.850  10.858   8.827 -0.1966  0.3245 -0.1658
   94loPI   C3A 1497  13.852  10.912   8.351  0.1355 -0.0699  0.0338
   94loPI   C4A 1498  13.652  11.081   8.005  0.2611 -0.0088  0.0457
   94loPI   C5A 1499  13.553  11.035   7.627  0.1996 -0.0471 -0.0062
   94loPI   C6A 1500  13.334  10.816   7.445  0.1277  0.2590 -0.0985
   94loPI   C1B 1501  14.282  10.589   9.142  0.1816 -0.2156  0.0562
   94loPI   C2B 1502  14.290  10.631   8.749 -0.1307 -0.0471  0.3024
   94loPI   C3B 1503  14.352  10.854   8.328 -0.0491 -0.1678  0.1371
   94loPI   C4B 1504  14.260  11.029   8.064  0.3394  0.0245 -0.0644
   95loPI    C1 1505   9.501   9.295  10.352 -0.0350  0.1790 -0.0694
   95loPI    C2 1506   9.835   9.307  10.133 -0.0076  0.0850 -0.0330
   95loPI    C3 1507   9.792   9.552  10.446 -0.0180  0.1718 -0.1021
   95loPI   PO4 1508   9.377   9.017  10.084 -0.1068  0.2094  0.3119
   95loPI   GL1 1509   9.256   9.114   9.672  0.0041  0.1291 -0.0861
   95loPI   GL2 1510   9.560   9.382   9.679 -0.2049 -0.0052 -0.2745
   95loPI   C1A 1511   9.002   9.208   9.374 -0.3585 -0.1745  0.1410
   95loPI   C2A 1512   8.959   9.595   9.142 -0.0772 -0.1491  0.0319
   95loPI   C3A 1513   8.928   9.742   8.650  0.0583  0.0519  0.1465
   95loPI   C4A 1514   8.840   9.564   8.199 -0.2200 -0.0840  0.1349
   95loPI   C5A 1515   9.064   9.715   7.807 -0.1832  0.0831 -0.2352
   95loPI   C6A 1516   9.057  10.131   7.690 -0.1948 -0.1607 -0.0287
   95loPI   C1B 1517   9.433   9.428   9.242 -0.1588  0.1269  0.1615
   95loPI   C2B 1518   9.233   9.246   8.923  0.0834 -0.0814 -0.1119
   95loPI   C3B 1519   9.031   9.270   8.585  0.0192  0.0989  0.1384
   95loPI   C4B 1520   8.882   8.912   8.481 -0.2906  0.3237  0.0743
   96loPI    C1 1521   8.318  10.335  10.244 -0.1097  0.2112  0.0298
   96loPI    C2 1522   8.247   9.971  10.395 -0.0265  0.1651 -0.0406
   96loPI    C3 1523   7.983  10.140  10.146 -0.0532  0.1425 -0.0278
   96loPI   PO4 1524   8.559  10.279  10.164 -0.1087 -0.1596  0.0410
   96loPI   GL1 1525   8.791  10.193   9.792 -0.1561 -0.2319 -0.2702
   96loPI   GL2 1526   9.147  10.370   9.661 -0.1885  0.1683  0.0230
   96loPI   C1A 1527   8.798  10.012   9.420 -0.2947  0.0189  0.0502
   96loPI   C2A 1528   8.714  10.023   8.977 -0.0064 -0.1509 -0.1962
   96loPI   C3A 1529   8.542  10.179   8.571 -0.1507 -0.1452  0.2661
   96loPI   C4A 1530   8.268  10.250   8.148 -0.1868 -0.1934  0.0810
   96loPI   C5A 1531   8.058  10.401   7.733  0.2853  0.0083 -0.4279
   96loPI   C6A 1532   7.638  10.286   7.437  0.3082 -0.2008 -0.0262
   96loPI   C1B 1533   9.180  10.435   9.294  0.1611 -0.0906  0.1802
   96loPI   C2B 1534   9.322  10.566   8.835  0.1461 -0.1886 -0.0366
   96loPI   C3B 1535   9.439  10.652   8.476  0.2954 -0.0389 -0.0999
   96loPI   C4B 1536   9.444  10.744   8.019 -0.1977  0.0613  0.0569
   97loPI    C1 1537   6.545   7.185  10.116  0.0998  0.1998 -0.2259
   97loPI    C2 1538   6.705   7.434  10.385 -0.1953  0.1114  0.0359
   97loPI    C3 1539   6.863   7.071  10.331 -0.1746  0.1046  0.1389
   97loPI   PO4 1540   6.525   7.366   9.922 -0.3241  0.0376  0.2110
   97loPI   GL1 1541   6.215   7.561   9.729 -0.2030 -0.1254 -0.1880
   97loPI   GL2 1542   5.918   7.368   9.740  0.3820 -0.2526 -0.2752
   97loPI   C1A 1543   6.079   7.929   9.602  0.2192  0.1026 -0.1918
   97loPI   C2A 1544   6.219   8.223   9.298  0.3425  0.2599  0.1712
   97loPI   C3A 1545   6.184   8.382   8.973  0.1032  0.3674 -0.0600
   97loPI   C4A 1546   6.270   8.498   8.543 -0.0803 -0.1088 -0.1064
   97loPI   C5A 1547   6.371   8.164   8.206 -0.1885  0.0426  0.2271
   97loPI   C6A 1548   6.535   7.911   7.944  0.1482  0.0429  0.0518
   97loPI   C1B 1549   5.564   7.484   9.445 -0.1034  0.2504 -0.0616
   97loPI   C2B 1550   5.323   7.298   9.110 -0.0159 -0.0200  0.0085
   97loPI   C3B 1551   5.220   7.439   8.760  0.3277  0.3113  0.0498
   97loPI   C4B 1552   5.185   7.520   8.241  0.0288  0.2165  0.1609
   98loPI    C1 1553   0.782  10.302   9.818  0.0874  0.3100  0.0525
   98loPI    C2 1554   0.748  10.084  10.151  0.2490  0.1867 -0.0103
   98loPI    C3 1555   0.576  10.445  10.130 -0.4375 -0.1285 -0.0783
   98loPI   PO4 1556   0.618  10.072   9.579 -0.2841  0.0310 -0.2096
   98loPI   GL1 1557   0.788  10.038   9.191 -0.3349  0.1781  0.0333
   98loPI   GL2 1558   0.728   9.691   9.328 -0.3885 -0.2405  0.3096
   98loPI   C1A 1559   0.790   9.934   8.744  0.0555 -0.1452  0.2335
   98loPI   C2A 1560   0.850   9.900   8.228 -0.0171  0.1178 -0.2288
   98loPI   C3A 1561   0.748   9.746   7.782 -0.0717 -0.2923 -0.2522
   98loPI   C4A 1562   0.819   9.368   7.499  0.0049 -0.4956 -0.0623
   98loPI   C5A 1563   1.043   9.090   7.387 -0.4189 -0.1561 -0.1420
   98loPI   C6A 1564   1.231   8.682   7.312 -0.1427 -0.2878  0.1412
   98loPI   C1B 1565   0.913   9.499   8.931  0.1153  0.0037 -0.0322
   98loPI   C2B 1566   1.045   9.572   8.565  0.2341  0.2818 -0.1438
   98loPI   C3B 1567   0.983   9.419   8.086  0.1095 -0.1992 -0.2099
   98loPI   C4B 1568   1.213   9.536   7.746 -0.0698 -0.2316  0.1559
   99loPI    C1 1569   8.368  15.435  10.437  0.0594  0.1863 -0.1152
   99loPI    C2 1570   8.527  15.129  10.234 -0.0627  0.0561 -0.0166
   99loPI    C3 1571   8.764  15.413  10.385  0.0350  0.1176 -0.2803
   99loPI   PO4 1572   8.094  15.293  10.440  0.0209 -0.2870 -0.0916
   99loPI   GL1 1573   7.984  15.538  10.047  0.3182 -0.0433 -0.2262
   99loPI   GL2 1574   7.731  15.653   9.913  0.1624  0.0808 -0.1583
   99loPI   C1A 1575   8.064  15.476   9.604 -0.1456  0.0471 -0.1058
   99loPI   C2A 1576   7.919  15.417   9.146 -0.0052 -0.2432 -0.2184
   99loPI   C3A 1577   7.704  15.644   8.751  0.0361 -0.0653 -0.6763
   99loPI   C4A 1578   7.916  15.958   8.394 -0.0047 -0.2165  0.3100
   99loPI   C5A 1579   8.079  16.206   8.009  0.1074 -0.1134  0.2721
   99loPI   C6A 1580   8.158  15.996   7.609 -0.1022 -0.1805 -0.3300
   99loPI   C1B 1581   7.714  15.781   9.517 -0.0180 -0.1726  0.3558
   99loPI   C2B 1582   7.873  15.931   9.128 -0.3366 -0.2575  0.2817
   99loPI   C3B 1583   7.982  16.360   8.903 -0.3611  0.4027 -0.0555
   99loPI   C4B 1584   8.265  16.748   8.947 -0.2183 -0.3051  0.0685
  100loPI    C1 1585   0.460  13.436  10.076 -0.3620  0.1979 -0.2430
  100loPI    C2 1586   0.356  13.127  10.307  0.2947  0.0331 -0.1480
  100loPI    C3 1587   0.198  13.488  10.374  0.1922 -0.0914  0.3196
  100loPI   PO4 1588   0.686  13.338   9.954  0.3291 -0.4011 -0.1855
  100loPI   GL1 1589   0.985  13.046   9.684 -0.0966 -0.0031  0.0553
  100loPI   GL2 1590   1.026  13.417   9.585  0.4750 -0.1741  0.0369
  100loPI   C1A 1591   1.230  13.006   9.254 -0.1163 -0.2988 -0.0023
  100loPI   C2A 1592   1.593  13.004   9.034  0.0615  0.0385 -0.0568
  100loPI   C3A 1593   1.672  12.933   8.579 -0.1094 -0.0761 -0.3008
  100loPI   C4A 1594   1.702  13.143   8.136 -0.2316 -0.0350  0.2334
  100loPI   C5A 1595   1.994  13.078   7.831 -0.2329 -0.0597  0.2776
  100loPI   C6A 1596   2.252  12.876   7.555 -0.1697 -0.0978 -0.0431
  100loPI   C1B 1597   0.866  13.570   9.254  0.0128 -0.1098  0.3298
  100loPI   C2B 1598   0.854  13.442   8.797 -0.0580  0.2194  0.0664
  100loPI   C3B 1599   0.757  13.549   8.346 -0.0009  0.1229 -0.0140
  100loPI   C4B 1600   0.790  13.727   8.008  0.1028  0.2889 -0.6383
  101loPI    C1 1601   5.719   4.918  10.240 -0.0693  0.0935  0.0329
  101loPI    C2 1602   5.746   4.612  10.497  0.1285  0.0210 -0.0718
  101loPI    C3 1603   5.889   4.971  10.598  0.0047  0.0494  0.0046
  101loPI   PO4 1604   5.742   4.860  10.029 -0.0700 -0.0093  0.0792
  101loPI   GL1 1605   6.056   4.674   9.778 -0.0055 -0.0080  0.2568
  101loPI   GL2 1606   6.060   4.307   9.875 -0.0132 -0.0846 -0.0355
  101loPI   C1A 1607   5.781   4.526   9.435  0.0019  0.2031  0.0331
  101loPI   C2A 1608   5.632   4.639   9.017  0.0164  0.2092 -0.0975
  101loPI   C3A 1609   5.342   4.460   8.729 -0.1418  0.2498 -0.1650
  101loPI   C4A 1610   5.186   4.580   8.368  0.0505  0.0609 -0.1327
  101loPI   C5A 1611   5.066   4.872   7.992  0.4506 -0.1972  0.0155
  101loPI   C6A 1612   4.638   5.082   7.804  0.1340 -0.0008 -0.2531
  101loPI   C1B 1613   5.738   4.091   9.668  0.1762 -0.4469  0.1218
  101loPI   C2B 1614   5.563   4.071   9.244 -0.0435  0.1377  0.0161
  101loPI   C3B 1615   5.710   4.071   8.860 -0.1395 -0.0719  0.0665
  101loPI   C4B 1616   5.645   4.315   8.360  0.0025  0.0656 -0.1518
  102loPI    C1 1617  15.635   8.730  10.403  0.4260  0.1089 -0.2184
  102loPI    C2 1618  15.815   8.991  10.646  0.0966  0.0069  0.1454
  102loPI    C3 1619  15.887   8.600  10.684  0.2730  0.0100 -0.1259
  102loPI   PO4 1620  15.636   8.866  10.088 -0.2521  0.1025  0.1250
  102loPI   GL1 1621  15.716   8.743   9.637 -0.1007 -0.0797 -0.1535
  102loPI   GL2 1622  15.936   8.571   9.600 -0.1096 -0.0904 -0.0245
  102loPI   C1A 1623  15.434   8.752   9.388  0.4762 -0.0314 -0.3230
  102loPI   C2A 1624  15.438   8.738   8.889 -0.4109 -0.4505 -0.2424
  102loPI   C3A 1625  15.414   8.582   8.497 -0.2719 -0.1433 -0.0785
  102loPI   C4A 1626  15.564   8.245   8.141 -0.1826 -0.2665 -0.2276
  102loPI   C5A 1627  15.753   7.931   7.960 -0.0065  0.4600  0.3395
  102loPI   C6A 1628  15.491   7.662   7.709  0.1824  0.2263  0.1845
  102loPI   C1B 1629  15.869   8.625   9.160 -0.3364 -0.1248  0.1168
  102loPI   C2B 1630  15.991   8.784   8.790 -0.1094  0.0052  0.1176
  102loPI   C3B 1631  16.282   9.143   8.747  0.1750 -0.0369 -0.1034
  102loPI   C4B 1632  16.405   9.283   9.127  0.0235 -0.4356 -0.0582
  103loPI    C1 1633   3.666   9.255  10.730 -0.0984  0.0575 -0.2784
  103loPI    C2 1634   4.051   9.262  10.838 -0.1357 -0.4063 -0.0927
  103loPI    C3 1635   3.829   9.593  10.867  0.2449 -0.1352 -0.1992
  103loPI   PO4 1636   3.616   9.190  10.566 -0.1956 -0.1812 -0.0998
  103loPI   GL1 1637   3.684   9.204  10.141 -0.0703  0.0088 -0.2593
  103loPI   GL2 1638   3.493   9.304   9.990  0.0298  0.2494  0.0090
  103loPI   C1A 1639   3.971   9.436   9.787  0.2694 -0.2696  0.0088
  103loPI   C2A 1640   3.878   9.551   9.251  0.2467  0.0318 -0.2463
  103loPI   C3A 1641   3.926   9.427   8.828 -0.0239 -0.0933  0.1081
  103loPI   C4A 1642   4.021   9.177   8.466 -0.0762 -0.1683  0.1889
  103loPI   C5A 1643   4.233   9.263   8.106  0.2720 -0.0117  0.3123
  103loPI   C6A 1644   4.122   9.411   7.734 -0.2363 -0.2687 -0.1784
  103loPI   C1B 1645   3.473   9.350   9.584  0.0043 -0.0197 -0.2255
  103loPI   C2B 1646   3.722   9.075   9.325 -0.1875 -0.3863  0.1011
  103loPI   C3B 1647   3.795   8.967   8.922  0.1948 -0.0226 -0.0411
  103loPI   C4B 1648   3.627   8.883   8.636  0.1110 -0.1410  0.1301
  104loPI    C1 1649   5.661   7.082  10.178  0.0577 -0.2015 -0.2936
  104loPI    C2 1650   6.045   7.194  10.187 -0.0435  0.1431 -0.0256
  104loPI    C3 1651   5.886   6.999  10.498 -0.0786 -0.0318 -0.1516
  104loPI   PO4 1652   5.624   7.008   9.979 -0.0633  0.3585  0.0157
  104loPI   GL1 1653   5.834   6.985   9.460  0.1250 -0.1180 -0.0112
  104loPI   GL2 1654   5.866   6.629   9.713 -0.0736 -0.1982 -0.1182
  104loPI   C1A 1655   5.549   6.772   9.208 -0.1957  0.0491  0.1165
  104loPI   C2A 1656   5.431   6.794   8.730 -0.1492 -0.0095  0.2361
  104loPI   C3A 1657   5.349   6.939   8.295  0.0740 -0.2417 -0.0076
  104loPI   C4A 1658   5.003   7.054   7.984 -0.0981  0.1283  0.1223
  104loPI   C5A 1659   4.693   6.839   7.800 -0.1839 -0.2408  0.0629
  104loPI   C6A 1660   4.834   6.379   7.641  0.2950  0.4382  0.0102
  104loPI   C1B 1661   5.944   6.322   9.393  0.4437  0.1441 -0.0438
  104loPI   C2B 1662   6.100   5.978   9.048  0.0235 -0.0326 -0.1395
  104loPI   C3B 1663   6.165   5.794   8.655 -0.3249  0.1176  0.1104
  104loPI   C4B 1664   6.364   5.571   8.278  0.1790 -0.1837  0.3587
  105loPI    C1 1665  14.954  18.017  10.386 -0.1486 -0.1387 -0.1420
  105loPI    C2 1666  14.798  18.288  10.636  0.0958 -0.2257  0.1095
  105loPI    C3 1667  14.884  17.920  10.767  0.2817 -0.2547 -0.0872
  105loPI   PO4 1668  15.007  18.219  10.164  0.0225  0.0819  0.2760
  105loPI   GL1 1669  15.293  18.254   9.790  0.2086  0.2510  0.1610
  105loPI   GL2 1670  15.555  18.060   9.624  0.1583  0.1869  0.1168
  105loPI   C1A 1671  15.196  18.491   9.400  0.3163  0.1256 -0.4427
  105loPI   C2A 1672  15.353  18.617   8.936 -0.0323  0.2799  0.2493
  105loPI   C3A 1673  15.497  18.696   8.527 -0.1531  0.0424 -0.0178
  105loPI   C4A 1674  15.964  18.720   8.354  0.0834 -0.0661  0.0743
  105loPI   C5A 1675  16.082  18.640   7.970 -0.2231 -0.1680  0.1233
  105loPI   C6A 1676  16.183  18.866   7.624  0.0123  0.1504  0.1474
  105loPI   C1B 1677  15.664  18.171   9.176  0.0311 -0.3501 -0.1852
  105loPI   C2B 1678  15.733  18.120   8.716  0.0132 -0.1191 -0.0158
  105loPI   C3B 1679  15.898  18.215   8.327  0.0406 -0.2467 -0.0160
  105loPI   C4B 1680  15.715  18.312   7.925  0.1034  0.1323  0.0124
  106loPI    C1 1681  11.094  15.047  10.461  0.0032 -0.1181 -0.0657
  106loPI    C2 1682  10.844  14.737  10.427 -0.0033 -0.1396  0.1596
  106loPI    C3 1683  11.036  14.801  10.772 -0.0293  0.1282  0.1263
  106loPI   PO4 1684  11.221  15.041  10.277 -0.0521  0.1067 -0.1704
  106loPI   GL1 1685  11.096  15.093   9.817  0.2649 -0.1056 -0.0912
  106loPI   GL2 1686  10.829  14.870   9.907 -0.2556  0.1090  0.3489
  106loPI   C1A 1687  10.906  15.206   9.397 -0.4351 -0.0426  0.0907
  106loPI   C2A 1688  10.727  15.467   9.053 -0.0307 -0.3416 -0.0862
  106loPI   C3A 1689  10.597  15.795   8.721  0.1306  0.0506  0.0683
  106loPI   C4A 1690  10.592  15.813   8.332  0.0456 -0.0545  0.0884
  106loPI   C5A 1691  10.996  15.932   8.088 -0.1574 -0.0325 -0.2144
  106loPI   C6A 1692  11.500  15.871   8.220  0.1134 -0.1505  0.0069
  106loPI   C1B 1693  10.845  14.661   9.501 -0.0409 -0.1044 -0.0783
  106loPI   C2B 1694  10.771  14.596   9.160 -0.0264 -0.3314  0.0817
  106loPI   C3B 1695  10.615  14.929   8.810 -0.2627 -0.1379 -0.0218
  106loPI   C4B 1696  10.687  15.286   8.540  0.0039 -0.1839 -0.1971
  107loPI    C1 1697   9.419  17.852  10.924  0.1715 -0.1697  0.1216
  107loPI    C2 1698   9.608  18.167  11.080  0.2473 -0.0561 -0.1908
  107loPI    C3 1699   9.209  18.168  11.052  0.2465  0.0068 -0.1798
  107loPI   PO4 1700   9.546  17.802  10.716  0.0277 -0.7328 -0.0338
  107loPI   GL1 1701   9.811  17.408  10.528  0.0964 -0.1370 -0.3822
  107loPI   GL2 1702  10.119  17.603  10.548 -0.0337  0.1044 -0.0396
  107loPI   C1A 1703   9.682  17.421  10.124  0.1396  0.0173 -0.0930
  107loPI   C2A 1704   9.850  17.470   9.766  0.0278  0.2093 -0.1033
  107loPI   C3A 1705   9.852  17.492   9.326 -0.1268 -0.0223 -0.0812
  107loPI   C4A 1706   9.941  17.503   8.927 -0.3616 -0.1423 -0.1382
  107loPI   C5A 1707  10.192  17.382   8.552  0.2340  0.2016 -0.0387
  107loPI   C6A 1708  10.656  17.257   8.440  0.3735  0.4192 -0.2555
  107loPI   C1B 1709  10.240  17.598  10.112 -0.3511  0.0064  0.0262
  107loPI   C2B 1710  10.315  17.582   9.667 -0.0705 -0.1845 -0.2061
  107loPI   C3B 1711  10.301  17.755   9.309 -0.2628  0.0690  0.2139
  107loPI   C4B 1712  10.486  17.628   8.888  0.1082 -0.1289 -0.1489
  108loPI    C1 1713  12.356  15.892  10.522 -0.0154 -0.3845 -0.0258
  108loPI    C2 1714  12.633  16.120  10.698 -0.0517 -0.2044 -0.1975
  108loPI    C3 1715  12.284  16.054  10.880  0.0381 -0.2937 -0.0557
  108loPI   PO4 1716  12.468  15.869  10.270 -0.2248  0.2549  0.0674
  108loPI   GL1 1717  12.541  15.843   9.805 -0.1462  0.1991  0.5323
  108loPI   GL2 1718  12.720  15.485   9.878  0.0532 -0.1844 -0.1346
  108loPI   C1A 1719  12.545  15.652   9.384  0.1555 -0.3816 -0.1623
  108loPI   C2A 1720  12.561  15.706   8.905 -0.2031  0.0529  0.1301
  108loPI   C3A 1721  12.497  15.793   8.517  0.0095  0.2332  0.0627
  108loPI   C4A 1722  12.546  15.885   8.144  0.1407 -0.0017 -0.1896
  108loPI   C5A 1723  12.384  16.060   7.668 -0.0301  0.1888 -0.0951
  108loPI   C6A 1724  12.359  16.081   7.264 -0.1801  0.0618  0.1025
  108loPI   C1B 1725  12.850  15.223   9.527 -0.6946  0.2273 -0.1486
  108loPI   C2B 1726  12.990  15.047   9.068 -0.1023  0.1323 -0.1273
  108loPI   C3B 1727  12.977  15.026   8.654 -0.1396  0.4031 -0.2779
  108loPI   C4B 1728  13.263  15.098   8.234 -0.0571  0.1162  0.0353
  109loPI    C1 1729  10.473   9.095  10.073 -0.1807 -0.0117  0.0395
  109loPI    C2 1730  10.674   8.830  10.295  0.0869  0.0894 -0.0788
  109loPI    C3 1731  10.564   8.736   9.922  0.3053  0.1911 -0.1710
  109loPI   PO4 1732  10.626   9.402  10.102 -0.4165 -0.0790  0.0318
  109loPI   GL1 1733  10.551   9.554   9.719 -0.1037  0.0111 -0.0048
  109loPI   GL2 1734  10.477   9.943   9.689 -0.4958  0.2285  0.0909
  109loPI   C1A 1735  10.388   9.582   9.347 -0.0439 -0.0661 -0.0157
  109loPI   C2A 1736  10.224   9.643   8.935  0.1708  0.1346  0.0003
  109loPI   C3A 1737  10.083   9.476   8.602  0.1973  0.3460  0.3767
  109loPI   C4A 1738  10.306   9.650   8.184  0.1983  0.0475  0.0410
  109loPI   C5A 1739  10.088   9.797   7.860 -0.1787  0.0836 -0.0504
  109loPI   C6A 1740   9.871   9.912   7.539 -0.4398 -0.0022  0.3186
  109loPI   C1B 1741  10.607  10.075   9.274  0.1503  0.0801  0.0724
  109loPI   C2B 1742  10.842  10.205   8.946 -0.1573  0.1594 -0.1912
  109loPI   C3B 1743  10.912  10.078   8.526  0.0846  0.0548  0.1644
  109loPI   C4B 1744  10.879   9.763   8.255 -0.3903  0.0235  0.0479
  110loPI    C1 1745  15.959   5.090  10.299  0.0016 -0.0039 -0.1554
  110loPI    C2 1746  16.050   4.715  10.193  0.2443  0.0533 -0.1558
  110loPI    C3 1747  16.045   4.819  10.580  0.0741  0.0252 -0.1493
  110loPI   PO4 1748  15.999   5.208  10.097 -0.1614  0.0359  0.1867
  110loPI   GL1 1749  15.890   5.247   9.697  0.1059  0.0730  0.0098
  110loPI   GL2 1750  15.749   5.018   9.580 -0.0367 -0.0155 -0.0485
  110loPI   C1A 1751  15.735   5.379   9.238  0.1160  0.1986 -0.1940
  110loPI   C2A 1752  15.946   5.217   8.845 -0.2656 -0.2056 -0.1642
  110loPI   C3A 1753  15.825   5.240   8.385  0.1682 -0.1432  0.0718
  110loPI   C4A 1754  15.750   5.637   8.017 -0.0797 -0.2959 -0.2958
  110loPI   C5A 1755  15.973   5.779   7.634 -0.1977  0.0494  0.1771
  110loPI   C6A 1756  15.933   5.831   7.228 -0.1073  0.0077 -0.0041
  110loPI   C1B 1757  15.581   4.733   9.302 -0.1971  0.3110 -0.1957
  110loPI   C2B 1758  15.512   4.643   8.930  0.0673 -0.3120 -0.0746
  110loPI   C3B 1759  15.713   4.754   8.513 -0.1159 -0.0686  0.2693
  110loPI   C4B 1760  15.825   4.766   8.136 -0.1341 -0.3409 -0.1699
  111loPI    C1 1761  14.830   9.472   9.983 -0.0424 -0.0015 -0.0564
  111loPI    C2 1762  15.124   9.655   9.783 -0.2411  0.2129 -0.1571
  111loPI    C3 1763  15.189   9.517  10.153  0.0343  0.1049 -0.2435
  111loPI   PO4 1764  14.629   9.645   9.895  0.3071  0.0083 -0.0108
  111loPI   GL1 1765  14.409   9.866   9.611  0.0811  0.1696  0.0290
  111loPI   GL2 1766  14.634   9.966   9.377 -0.0235 -0.0573 -0.3479
  111loPI   C1A 1767  14.175   9.625   9.281  0.0586  0.0538 -0.1110
  111loPI   C2A 1768  14.105   9.701   8.844 -0.3454 -0.0807 -0.3058
  111loPI   C3A 1769  14.243   9.996   8.628 -0.1900 -0.1705 -0.0898
  111loPI   C4A 1770  14.189   9.941   8.135 -0.0190 -0.1511 -0.2743
  111loPI   C5A 1771  13.998   9.680   7.848 -0.6267  0.1000  0.1909
  111loPI   C6A 1772  13.769   9.512   7.484 -0.2156 -0.1130  0.0002
  111loPI   C1B 1773  14.609   9.787   8.990  0.1384 -0.1900 -0.1436
  111loPI   C2B 1774  14.817   9.818   8.741 -0.1602 -0.0869  0.0369
  111loPI   C3B 1775  14.895   9.735   8.239 -0.2615 -0.0534  0.1091
  111loPI   C4B 1776  15.225   9.543   7.927 -0.0110  0.0392 -0.3610
  112loPI    C1 1777   3.315  15.702  10.283  0.0461  0.0265 -0.1052
  112loPI    C2 1778   3.541  15.915  10.534 -0.1697 -0.0014  0.1173
  112loPI    C3 1779   3.496  15.522  10.591 -0.1597 -0.0213 -0.0100
  112loPI   PO4 1780   3.050  15.791  10.286  0.0206 -0.0557 -0.1330
  112loPI   GL1 1781   2.960  15.782   9.860  0.0048  0.2165 -0.0921
  112loPI   GL2 1782   2.668  15.863   9.734  0.3143  0.0499 -0.1571
  112loPI   C1A 1783   3.001  15.648   9.487  0.2387  0.0590  0.0612
  112loPI   C2A 1784   2.861  15.811   9.126  0.2165 -0.4554  0.1109
  112loPI   C3A 1785   2.681  15.706   8.816  0.3448 -0.0343  0.2526
  112loPI   C4A 1786   2.959  15.621   8.456  0.1927  0.1751 -0.1147
  112loPI   C5A 1787   3.342  15.461   8.277  0.3102  0.3568  0.1729
  112loPI   C6A 1788   3.634  15.245   8.126 -0.0233 -0.2629 -0.0175
  112loPI   C1B 1789   2.377  16.055   9.550  0.4237  0.0461 -0.0025
  112loPI   C2B 1790   1.911  16.147   9.382 -0.2180 -0.1567 -0.0424
  112loPI   C3B 1791   1.750  16.671   9.165  0.0260 -0.1403  0.1488
  112loPI   C4B 1792   1.649  17.125   9.155  0.1800 -0.0000 -0.1399
  113loPI    C1 1793   3.423   2.481  10.867 -0.0610  0.0898 -0.1287
  113loPI    C2 1794   3.268   2.227  11.135  0.0010 -0.0875 -0.2590
  113loPI    C3 1795   3.102   2.587  11.081 -0.0474 -0.0735 -0.0252
  113loPI   PO4 1796   3.423   2.407  10.629  0.2848  0.1209  0.0690
  113loPI   GL1 1797   3.239   2.393  10.282 -0.0153  0.1187  0.0091
  113loPI   GL2 1798   2.886   2.461  10.109  0.3148 -0.0872 -0.1997
  113loPI   C1A 1799   3.471   2.581   9.926 -0.1857 -0.2655  0.1717
  113loPI   C2A 1800   3.709   2.549   9.445  0.0132 -0.1075 -0.0998
  113loPI   C3A 1801   3.938   2.695   9.119 -0.4051 -0.2439  0.0660
  113loPI   C4A 1802   4.112   2.842   8.814  0.1634 -0.3878  0.0244
  113loPI   C5A 1803   4.002   2.928   8.458 -0.1468  0.1781  0.4350
  113loPI   C6A 1804   4.223   2.548   8.299  0.0821  0.2096  0.0012
  113loPI   C1B 1805   2.955   2.379   9.684  0.0025  0.1480  0.0642
  113loPI   C2B 1806   2.864   2.338   9.145 -0.1505 -0.2251  0.0183
  113loPI   C3B 1807   2.702   2.428   8.769  0.3068  0.0612  0.3353
  113loPI   C4B 1808   2.777   2.311   8.314  0.2572 -0.2185 -0.1285
  114loPI    C1 1809  11.059   8.276  10.293 -0.3715 -0.3575  0.2259
  114loPI    C2 1810  11.102   8.642  10.448  0.0490 -0.2841 -0.0489
  114loPI    C3 1811  11.178   8.320  10.673 -0.0603 -0.1982  0.1132
  114loPI   PO4 1812  10.803   8.308  10.184 -0.2100  0.1555  0.1146
  114loPI   GL1 1813  10.736   8.245   9.679 -0.0184  0.0802  0.4115
  114loPI   GL2 1814  10.618   7.935   9.604  0.0866 -0.3416  0.2876
  114loPI   C1A 1815  11.043   8.259   9.340 -0.0982  0.1903  0.0850
  114loPI   C2A 1816  11.227   8.331   8.904 -0.1906 -0.0170 -0.0273
  114loPI   C3A 1817  11.304   8.478   8.442  0.4328  0.0635 -0.3143
  114loPI   C4A 1818  11.352   8.700   8.067  0.0992  0.1299 -0.1868
  114loPI   C5A 1819  11.345   8.386   7.810  0.0991 -0.1336  0.1635
  114loPI   C6A 1820  10.969   8.157   7.711  0.0026 -0.0765  0.1942
  114loPI   C1B 1821  10.455   7.689   9.226 -0.1579 -0.0472  0.0949
  114loPI   C2B 1822  10.431   7.793   8.822 -0.3843 -0.1975  0.0633
  114loPI   C3B 1823  10.534   7.908   8.485  0.3117 -0.1727  0.0452
  114loPI   C4B 1824  10.778   7.836   8.058 -0.0783 -0.1907 -0.2160
  115loPI    C1 1825  13.007  15.266  10.220  0.0708 -0.2133  0.0731
  115loPI    C2 1826  12.986  15.298  10.618  0.1098 -0.0872  0.0654
  115loPI    C3 1827  12.695  15.450  10.389  0.2209  0.0815  0.0346
  115loPI   PO4 1828  13.246  15.031  10.194 -0.1009 -0.1422 -0.3584
  115loPI   GL1 1829  13.271  14.889   9.747  0.1757 -0.0175  0.0453
  115loPI   GL2 1830  12.895  14.863   9.829 -0.0860  0.2505 -0.1199
  115loPI   C1A 1831  13.186  14.655   9.430  0.3608 -0.0268 -0.0057
  115loPI   C2A 1832  13.406  14.767   9.076  0.0375  0.1101  0.0805
  115loPI   C3A 1833  13.458  14.803   8.646 -0.0533  0.2220 -0.1840
  115loPI   C4A 1834  13.462  14.685   8.299 -0.0305 -0.1394 -0.0927
  115loPI   C5A 1835  13.447  14.325   7.843  0.0314 -0.0449  0.0911
  115loPI   C6A 1836  13.101  14.216   7.627 -0.0105 -0.1590  0.5931
  115loPI   C1B 1837  12.660  14.775   9.439  0.0611  0.1721  0.0169
  115loPI   C2B 1838  12.638  14.711   8.977  0.1562 -0.1650  0.0702
  115loPI   C3B 1839  12.518  14.577   8.472  0.1517  0.1273 -0.0623
  115loPI   C4B 1840  12.488  14.491   8.076 -0.2832 -0.2205 -0.0832
  116loPI    C1 1841  11.589   4.295  10.134 -0.0066  0.1010 -0.1171
  116loPI    C2 1842  11.469   4.674  10.181  0.3153  0.2337 -0.3293
  116loPI    C3 1843  11.701   4.502  10.457 -0.4122 -0.0555  0.1313
  116loPI   PO4 1844  11.739   4.325   9.895  0.1397  0.2505  0.1606
  116loPI   GL1 1845  11.717   4.536   9.554  0.1817 -0.0367  0.0133
  116loPI   GL2 1846  11.472   4.733   9.653  0.2290  0.1891 -0.0251
  116loPI   C1A 1847  11.681   4.538   9.139  0.0624  0.0858  0.1882
  116loPI   C2A 1848  11.740   4.470   8.775  0.1133 -0.1625  0.1362
  116loPI   C3A 1849  12.053   4.493   8.449 -0.0607  0.0960  0.4098
  116loPI   C4A 1850  12.096   4.571   7.967  0.2504  0.2143 -0.3906
  116loPI   C5A 1851  12.181   4.992   7.888  0.0403  0.2386  0.2596
  116loPI   C6A 1852  12.019   5.301   7.596 -0.1589  0.0568 -0.3209
  116loPI   C1B 1853  11.245   4.659   9.329 -0.1619  0.0279  0.1957
  116loPI   C2B 1854  11.195   4.460   8.900  0.2547 -0.3987  0.0536
  116loPI   C3B 1855  11.373   4.171   8.609  0.3173 -0.2065  0.0361
  116loPI   C4B 1856  11.316   3.748   8.502  0.0416  0.0053  0.0326
  117loPI    C1 1857  10.630  13.579  10.319 -0.2850  0.1753  0.2024
  117loPI    C2 1858  10.744  13.573  10.702 -0.0153  0.0515  0.1230
  117loPI    C3 1859  10.485  13.850  10.575  0.0897  0.2525  0.3400
  117loPI   PO4 1860  10.800  13.582  10.181 -0.1786  0.0068  0.1793
  117loPI   GL1 1861  11.084  13.522   9.787  0.3038  0.0015 -0.0064
  117loPI   GL2 1862  10.733  13.597   9.662  0.3178 -0.2207  0.1167
  117loPI   C1A 1863  11.103  13.793   9.450  0.3267  0.1011 -0.2529
  117loPI   C2A 1864  10.905  13.754   9.090  0.0323 -0.0676 -0.0485
  117loPI   C3A 1865  10.856  13.866   8.652  0.2809 -0.0842  0.0351
  117loPI   C4A 1866  10.775  13.893   8.243 -0.2564  0.0630  0.1502
  117loPI   C5A 1867  11.081  14.132   7.961 -0.4303 -0.1710  0.2939
  117loPI   C6A 1868  11.444  14.171   7.710  0.0128  0.1170  0.0263
  117loPI   C1B 1869  10.610  13.905   9.564  0.3653 -0.3385  0.1039
  117loPI   C2B 1870  10.600  14.091   9.164 -0.6030 -0.0520  0.1402
  117loPI   C3B 1871  10.513  14.248   8.739  0.1224 -0.1333 -0.0055
  117loPI   C4B 1872  10.821  14.446   8.493 -0.0151 -0.3178 -0.0204
  118loPI    C1 1873  16.519  17.513  10.114  0.0035  0.0467  0.0724
  118loPI    C2 1874  16.465  17.305   9.777 -0.0906  0.0632  0.0770
  118loPI    C3 1875  16.248  17.219  10.102 -0.0533  0.0975  0.1108
  118loPI   PO4 1876  16.558  17.772   9.982  0.1865 -0.0018  0.0992
  118loPI   GL1 1877  16.520  17.961   9.675  0.1829  0.0427 -0.3083
  118loPI   GL2 1878  16.858  17.948   9.645 -0.1518 -0.1796  0.2656
  118loPI   C1A 1879  16.468  17.847   9.355 -0.1764 -0.1306 -0.2478
  118loPI   C2A 1880  16.226  17.822   8.981  0.0281  0.0225 -0.1174
  118loPI   C3A 1881  16.266  17.974   8.610  0.3129 -0.0870  0.0119
  118loPI   C4A 1882  16.374  17.965   8.140  0.1322 -0.2385 -0.0259
  118loPI   C5A 1883  16.639  17.935   7.784 -0.0883  0.1162  0.2736
  118loPI   C6A 1884  16.825  18.100   7.487 -0.0278 -0.2694  0.1740
  118loPI   C1B 1885  17.012  17.874   9.255 -0.1284  0.3558  0.0513
  118loPI   C2B 1886  17.124  17.913   8.879 -0.2634 -0.1873 -0.2357
  118loPI   C3B 1887  17.324  17.827   8.457  0.0173 -0.3842 -0.3438
  118loPI   C4B 1888  17.471  17.728   8.056 -0.0771  0.2887  0.0984
  119loPI    C1 1889   2.693   0.403  10.385 -0.1660  0.1939  0.1570
  119loPI    C2 1890   2.378   0.308  10.613 -0.1507 -0.1117  0.0548
  119loPI    C3 1891   2.727   0.118  10.663 -0.0864 -0.0306 -0.0784
  119loPI   PO4 1892   2.712   0.631  10.338  0.0640 -0.0095 -0.0890
  119loPI   GL1 1893   2.765   0.701   9.932 -0.0163 -0.1007 -0.0277
  119loPI   GL2 1894   3.022   0.820   9.875 -0.0432 -0.3285 -0.1653
  119loPI   C1A 1895   2.525   0.737   9.552 -0.3298  0.1460 -0.0330
  119loPI   C2A 1896   2.183   1.039   9.373 -0.1683 -0.2989  0.0746
  119loPI   C3A 1897   1.951   1.226   9.058 -0.1179 -0.1644 -0.1022
  119loPI   C4A 1898   1.835   1.498   8.737 -0.0977 -0.1619 -0.3863
  119loPI   C5A 1899   1.660   1.342   8.418  0.1741  0.0035 -0.1018
  119loPI   C6A 1900   1.634   1.378   7.959  0.1949 -0.0848  0.2276
  119loPI   C1B 1901   2.957   0.847   9.353 -0.3768  0.2287  0.1479
  119loPI   C2B 1902   2.628   0.947   9.097  0.0060 -0.1724  0.1542
  119loPI   C3B 1903   2.478   1.178   8.836  0.0790 -0.1797 -0.2201
  119loPI   C4B 1904   2.311   1.449   8.602 -0.2494 -0.0620  0.1263
  120loPI    C1 1905   1.623   3.220  10.597  0.0553  0.1468 -0.0052
  120loPI    C2 1906   1.698   3.468  10.902  0.1093 -0.0126  0.1124
  120loPI    C3 1907   1.978   3.210  10.781  0.0217 -0.0789  0.0500
  120loPI   PO4 1908   1.561   3.330  10.402 -0.0330 -0.3956 -0.0189
  120loPI   GL1 1909   1.405   3.188  10.016  0.0722  0.1988 -0.0937
  120loPI   GL2 1910   1.706   3.018   9.877 -0.0871 -0.1425 -0.2475
  120loPI   C1A 1911   1.260   3.035   9.637  0.2281 -0.2974  0.3185
  120loPI   C2A 1912   1.237   3.054   9.175  0.0495 -0.2743 -0.1703
  120loPI   C3A 1913   1.318   2.835   8.787 -0.0132 -0.1331 -0.0903
  120loPI   C4A 1914   1.461   2.718   8.513  0.0421  0.0734  0.0301
  120loPI   C5A 1915   1.809   2.779   8.273 -0.0998 -0.1986  0.3378
  120loPI   C6A 1916   2.240   2.673   8.088 -0.2591 -0.1264  0.0160
  120loPI   C1B 1917   1.771   2.971   9.365  0.0384  0.1680 -0.2275
  120loPI   C2B 1918   1.739   2.996   8.979  0.1988  0.1902 -0.0977
  120loPI   C3B 1919   1.985   3.098   8.643 -0.1034  0.0097 -0.0250
  120loPI   C4B 1920   2.291   3.156   8.328  0.1463 -0.1581 -0.1043
  121loPI    C1 1921   8.713  13.074  10.334 -0.0814 -0.0431  0.0773
  121loPI    C2 1922   8.585  12.994  10.704  0.0474  0.0365  0.1395
  121loPI    C3 1923   8.762  13.344  10.625  0.2589 -0.0859  0.0638
  121loPI   PO4 1924   8.474  12.975  10.161  0.2504 -0.1853 -0.1355
  121loPI   GL1 1925   8.098  12.968   9.805 -0.0097  0.0520 -0.3657
  121loPI   GL2 1926   8.279  13.202   9.664  0.0017  0.0349 -0.0473
  121loPI   C1A 1927   8.188  12.746   9.372  0.1362  0.0200 -0.1340
  121loPI   C2A 1928   7.962  12.771   8.972  0.0183  0.0784 -0.1381
  121loPI   C3A 1929   7.755  12.802   8.549 -0.0398 -0.0927  0.1200
  121loPI   C4A 1930   7.687  12.708   8.208 -0.2462 -0.3869  0.1169
  121loPI   C5A 1931   7.950  12.642   7.813  0.0613  0.3090  0.0840
  121loPI   C6A 1932   8.380  12.485   7.628  0.0083  0.0693  0.0524
  121loPI   C1B 1933   8.289  13.213   9.234 -0.0344 -0.5013 -0.1787
  121loPI   C2B 1934   8.076  13.203   8.873 -0.4612  0.0480 -0.0703
  121loPI   C3B 1935   8.048  13.265   8.455 -0.0214  0.0703  0.0385
  121loPI   C4B 1936   7.888  13.234   7.995  0.2062 -0.1084 -0.0783
  122loPI    C1 1937   1.143   6.709  10.270 -0.1506 -0.1547 -0.0909
  122loPI    C2 1938   1.157   7.038  10.498  0.2172 -0.2271 -0.0026
  122loPI    C3 1939   1.048   6.687  10.658  0.1040 -0.2052 -0.0302
  122loPI   PO4 1940   1.049   6.781  10.010 -0.0854  0.1702 -0.2112
  122loPI   GL1 1941   1.075   6.846   9.548  0.0531  0.2507  0.1340
  122loPI   GL2 1942   0.952   7.161   9.584 -0.2451 -0.0482  0.1142
  122loPI   C1A 1943   0.849   6.948   9.162  0.1386  0.1671 -0.0797
  122loPI   C2A 1944   0.752   6.670   8.713  0.4575  0.1280 -0.1823
  122loPI   C3A 1945   0.572   6.483   8.222 -0.0870 -0.2615 -0.1818
  122loPI   C4A 1946   0.648   6.406   7.836  0.1426 -0.1708  0.2139
  122loPI   C5A 1947   0.577   6.026   7.537 -0.0202 -0.1674  0.2861
  122loPI   C6A 1948   0.462   5.646   7.539  0.2900  0.2437  0.3371
  122loPI   C1B 1949   1.140   7.340   9.270  0.0374 -0.0380  0.0244
  122loPI   C2B 1950   1.321   7.410   8.890  0.1582  0.2839  0.1217
  122loPI   C3B 1951   1.296   7.611   8.610 -0.0627  0.1510  0.0739
  122loPI   C4B 1952   1.469   8.046   8.401 -0.2375  0.1788 -0.0252
  123loPI    C1 1953  12.234   1.864  10.469  0.1362  0.0471 -0.0837
  123loPI    C2 1954  12.546   1.755  10.693 -0.0298 -0.3439 -0.0356
  123loPI    C3 1955  12.209   1.540  10.702 -0.2881  0.0479 -0.1202
  123loPI   PO4 1956  12.240   1.788  10.267  0.2590  0.1479  0.3380
  123loPI   GL1 1957  12.318   1.769   9.923  0.1101 -0.0955  0.3775
  123loPI   GL2 1958  12.529   1.795   9.795  0.0571 -0.0679 -0.0639
  123loPI   C1A 1959  11.969   1.552   9.746 -0.0233 -0.3893  0.1892
  123loPI   C2A 1960  11.588   1.667   9.682  0.0170  0.1163 -0.1323
  123loPI   C3A 1961  11.372   1.667   9.345 -0.0151  0.1412  0.0287
  123loPI   C4A 1962  11.268   1.992   8.977  0.1835 -0.2722 -0.0896
  123loPI   C5A 1963  11.088   1.978   8.527 -0.3050  0.0853 -0.2189
  123loPI   C6A 1964  10.914   1.892   8.081 -0.2408 -0.0395 -0.2691
  123loPI   C1B 1965  12.716   2.007   9.395 -0.2264 -0.0834  0.5929
  123loPI   C2B 1966  12.799   2.142   8.954 -0.0069  0.1700  0.1347
  123loPI   C3B 1967  12.645   1.906   8.524 -0.1696  0.0793  0.2109
  123loPI   C4B 1968  12.872   1.507   8.416  0.1132 -0.2358  0.2112
  124loPI    C1 1969  12.092  15.015  10.523 -0.1416 -0.1552  0.0155
  124loPI    C2 1970  12.389  15.229  10.685 -0.0500 -0.0342 -0.3046
  124loPI    C3 1971  12.382  14.832  10.730  0.0537 -0.0179 -0.1326
  124loPI   PO4 1972  11.849  15.196  10.539 -0.1691 -0.0876 -0.1501
  124loPI   GL1 1973  11.672  15.346  10.153 -0.0334 -0.0191 -0.1693
  124loPI   GL2 1974  11.859  15.097   9.997  0.3304  0.1345 -0.1319
  124loPI   C1A 1975  11.609  15.445   9.745 -0.0387 -0.2901 -0.3210
  124loPI   C2A 1976  11.496  15.312   9.313 -0.3444 -0.3100 -0.1089
  124loPI   C3A 1977  11.229  15.259   8.894  0.0720 -0.0926  0.0374
  124loPI   C4A 1978  11.122  15.498   8.454  0.0951  0.1399 -0.2387
  124loPI   C5A 1979  11.174  15.461   7.992  0.4289  0.0322 -0.0634
  124loPI   C6A 1980  11.077  15.159   7.670  0.0908 -0.2303 -0.0204
  124loPI   C1B 1981  11.935  15.024   9.526  0.1544 -0.0158  0.3722
  124loPI   C2B 1982  11.962  14.994   9.140 -0.0282  0.0956 -0.2713
  124loPI   C3B 1983  11.638  15.080   8.823 -0.0517 -0.2077 -0.2128
  124loPI   C4B 1984  11.399  15.106   8.434 -0.0369 -0.0669  0.1210
  125loPI    C1 1985  14.042  10.567   9.986  0.0159  0.0604 -0.0171
  125loPI    C2 1986  13.946  10.914  10.159  0.0557  0.0828 -0.0399
  125loPI    C3 1987  14.328  10.798  10.144  0.0571  0.0997 -0.1474
  125loPI   PO4 1988  13.872  10.541   9.818  0.1144 -0.1400  0.1960
  125loPI   GL1 1989  13.883  10.330   9.438  0.2125 -0.1392 -0.0532
  125loPI   GL2 1990  13.981  10.029   9.455 -0.2197 -0.0197 -0.1739
  125loPI   C1A 1991  13.811  10.370   9.080  0.1121 -0.0135 -0.2313
  125loPI   C2A 1992  13.852  10.360   8.761  0.0076  0.1163 -0.0175
  125loPI   C3A 1993  14.018  10.384   8.335 -0.1434  0.0702  0.0112
  125loPI   C4A 1994  14.008  10.623   7.982  0.1222  0.0306 -0.1281
  125loPI   C5A 1995  13.718  10.585   7.744 -0.0225  0.1995  0.0967
  125loPI   C6A 1996  13.292  10.736   7.932 -0.3272 -0.0966 -0.4425
  125loPI   C1B 1997  14.221  10.103   9.163  0.0530  0.1610 -0.1643
  125loPI   C2B 1998  14.640  10.266   8.912  0.2551  0.0791 -0.1723
  125loPI   C3B 1999  14.677  10.249   8.515  0.0680  0.1037  0.1060
  125loPI   C4B 2000  14.596  10.420   8.149 -0.1134  0.1683  0.2619
  126loPI    C1 2001   9.093   2.127  10.827 -0.0267  0.0711 -0.0923
  126loPI    C2 2002   9.247   2.436  10.625 -0.1434 -0.0212 -0.3266
  126loPI    C3 2003   9.110   2.489  10.997 -0.0476  0.1803 -0.3184
  126loPI   PO4 2004   9.037   1.961  10.586  0.2514 -0.1986 -0.3177
  126loPI   GL1 2005   9.132   2.019  10.139 -0.0879  0.0551  0.0583
  126loPI   GL2 2006   9.031   1.758   9.954  0.1715  0.3032  0.0378
  126loPI   C1A 2007   9.188   2.149   9.726 -0.2683 -0.1569 -0.2191
  126loPI   C2A 2008   9.240   2.133   9.340  0.0170  0.1324 -0.2833
  126loPI   C3A 2009   9.470   2.015   8.931 -0.2540 -0.1782 -0.3187
  126loPI   C4A 2010   9.657   1.809   8.493 -0.3666 -0.0772 -0.0774
  126loPI   C5A 2011   9.708   1.770   8.072 -0.0266  0.1076  0.1655
  126loPI   C6A 2012   9.954   2.063   7.902  0.1313  0.1403 -0.1407
  126loPI   C1B 2013   8.832   1.833   9.606  0.0376  0.3118 -0.0824
  126loPI   C2B 2014   8.908   1.815   9.090  0.0574  0.2345  0.2334
  126loPI   C3B 2015   9.047   1.940   8.720 -0.2368  0.1968  0.2399
  126loPI   C4B 2016   9.168   1.900   8.384 -0.2524 -0.2389  0.1376
  127loPI    C1 2017   1.803  10.118  10.137  0.0328  0.1639 -0.0575
  127loPI    C2 2018   1.622  10.116  10.494 -0.0119 -0.2679 -0.0780
  127loPI    C3 2019   1.412  10.198  10.164  0.0707  0.3316  0.0077
  127loPI   PO4 2020   1.968  10.223  10.135  0.0535  0.0901  0.2449
  127loPI   GL1 2021   2.327  10.267   9.862 -0.2763  0.1931  0.1337
  127loPI   GL2 2022   2.247  10.427   9.560  0.0073  0.1276  0.1136
  127loPI   C1A 2023   2.454   9.967   9.470 -0.2282  0.2258  0.0017
  127loPI   C2A 2024   2.638   9.776   9.256 -0.0320 -0.0016 -0.0832
  127loPI   C3A 2025   2.973   9.754   8.972 -0.1556  0.3324  0.0355
  127loPI   C4A 2026   3.347   9.911   8.709 -0.2534  0.1293 -0.0573
  127loPI   C5A 2027   3.863   9.927   8.656  0.0063  0.0729  0.1622
  127loPI   C6A 2028   4.101  10.203   8.250 -0.2973  0.3446 -0.2473
  127loPI   C1B 2029   2.252  10.294   9.184 -0.0178  0.1948  0.0159
  127loPI   C2B 2030   2.327  10.444   8.690  0.1949 -0.1433  0.0903
  127loPI   C3B 2031   2.528  10.385   8.268  0.0828  0.0139 -0.1209
  127loPI   C4B 2032   2.816  10.428   7.925 -0.0813  0.1725  0.4731
  128loPI    C1 2033   5.520  15.420  10.600  0.0627  0.1215  0.1052
  128loPI    C2 2034   5.780  15.117  10.615  0.0598  0.1196  0.1191
  128loPI    C3 2035   5.465  15.122  10.861 -0.2073 -0.1119 -0.2093
  128loPI   PO4 2036   5.514  15.396  10.279 -0.2710  0.0030  0.1908
  128loPI   GL1 2037   5.235  15.209  10.068  0.3427  0.0859  0.0516
  128loPI   GL2 2038   4.998  15.430   9.817  0.1355 -0.0445 -0.0517
  128loPI   C1A 2039   5.342  15.117   9.610  0.1115 -0.0647  0.0572
  128loPI   C2A 2040   5.390  15.114   9.085  0.0685  0.1440 -0.0307
  128loPI   C3A 2041   5.375  14.999   8.649 -0.1590 -0.2074  0.1509
  128loPI   C4A 2042   5.701  14.780   8.442  0.0690 -0.4988 -0.3460
  128loPI   C5A 2043   5.912  14.436   8.462  0.2209  0.0291 -0.0340
  128loPI   C6A 2044   6.353  14.419   8.430  0.1157  0.1769  0.1039
  128loPI   C1B 2045   5.000  15.423   9.369  0.0844 -0.1533 -0.1137
  128loPI   C2B 2046   5.081  15.494   8.869 -0.0974 -0.1723 -0.2027
  128loPI   C3B 2047   5.296  15.452   8.447  0.2223  0.0251  0.4445
  128loPI   C4B 2048   5.614  15.279   8.193 -0.1333  0.0532  0.0019
  129loPI    C1 2049   2.893  16.605  10.269 -0.2152 -0.0599 -0.1135
  129loPI    C2 2050   3.242  16.725  10.422 -0.2416 -0.1386  0.0099
  129loPI    C3 2051   3.172  16.335  10.364 -0.3176 -0.1246  0.0068
  129loPI   PO4 2052   2.821  16.735  10.053 -0.0249 -0.0858  0.3035
  129loPI   GL1 2053   2.688  17.046   9.777  0.2158  0.1232 -0.2124
  129loPI   GL2 2054   2.445  16.926   9.733  0.1906  0.0468 -0.1437
  129loPI   C1A 2055   2.543  17.303   9.410  0.0055 -0.0683  0.0064
  129loPI   C2A 2056   2.468  17.475   8.945  0.0399 -0.3489  0.1782
  129loPI   C3A 2057   2.635  17.567   8.541 -0.0641 -0.0965 -0.1613
  129loPI   C4A 2058   2.648  17.426   8.156 -0.3061  0.1164 -0.0506
  129loPI   C5A 2059   2.653  17.183   7.843  0.0525  0.3521 -0.7588
  129loPI   C6A 2060   2.358  16.862   7.747 -0.2989 -0.3113 -0.0065
  129loPI   C1B 2061   2.683  16.803   9.366  0.0340 -0.4235 -0.3543
  129loPI   C2B 2062   2.646  17.065   8.988  0.0206 -0.3128 -0.1951
  129loPI   C3B 2063   2.458  17.067   8.609 -0.0201  0.0969 -0.0977
  129loPI   C4B 2064   2.505  16.935   8.241  0.4091 -0.2433 -0.0486
  130loPI    C1 2065   2.952   8.655  10.348  0.0245  0.2916 -0.1163
  130loPI    C2 2066   3.171   8.981  10.423  0.2018  0.1722 -0.1093
  130loPI    C3 2067   3.287   8.625  10.564 -0.0445  0.1210 -0.0309
  130loPI   PO4 2068   2.836   8.738  10.092 -0.0728 -0.3419  0.1501
  130loPI   GL1 2069   3.053   9.056   9.821 -0.2334  0.1809  0.0245
  130loPI   GL2 2070   3.292   8.869   9.923  0.2402  0.1412 -0.1482
  130loPI   C1A 2071   3.152   8.863   9.395 -0.1572 -0.2531 -0.0469
  130loPI   C2A 2072   3.228   8.871   8.953  0.1925 -0.0712  0.0067
  130loPI   C3A 2073   3.255   8.548   8.539  0.0200 -0.2251  0.1860
  130loPI   C4A 2074   3.557   8.633   8.081 -0.2609  0.1544  0.1668
  130loPI   C5A 2075   3.902   8.904   8.087 -0.1303  0.0009  0.2323
  130loPI   C6A 2076   4.361   8.696   8.179  0.1378 -0.2449  0.0312
  130loPI   C1B 2077   3.628   8.800   9.723  0.0811  0.1570 -0.2634
  130loPI   C2B 2078   3.885   8.644   9.360 -0.3060  0.6835  0.0516
  130loPI   C3B 2079   4.122   8.548   9.048 -0.1545  0.1507  0.1860
  130loPI   C4B 2080   4.109   8.717   8.654 -0.0230 -0.1450 -0.1589
  131loPI    C1 2081  16.277   4.250  10.306  0.1100  0.0713 -0.2480
  131loPI    C2 2082  16.484   4.176  10.640 -0.3337 -0.2091 -0.0253
  131loPI    C3 2083  16.469   4.547  10.492 -0.0353 -0.1046  0.1969
  131loPI   PO4 2084  16.273   4.003  10.072 -0.0062 -0.0769  0.0313
  131loPI   GL1 2085  16.601   3.814   9.827 -0.0370  0.2455  0.1538
  131loPI   GL2 2086  16.556   4.109   9.677  0.0196  0.1466  0.0241
  131loPI   C1A 2087  16.508   3.777   9.311  0.0664 -0.1206  0.1358
  131loPI   C2A 2088  16.432   3.689   8.885 -0.4401 -0.1087  0.1754
  131loPI   C3A 2089  16.632   3.475   8.547  0.0508 -0.1574  0.0741
  131loPI   C4A 2090  16.534   3.586   8.056 -0.0629  0.0730 -0.0634
  131loPI   C5A 2091  16.847   3.578   7.750 -0.2571 -0.3976  0.1635
  131loPI   C6A 2092  17.270   3.472   7.728 -0.2253 -0.0800  0.2965
  131loPI   C1B 2093  16.396   4.256   9.291 -0.1571  0.0104  0.0767
  131loPI   C2B 2094  16.327   4.220   8.871 -0.1880  0.0093  0.2923
  131loPI   C3B 2095  16.445   4.155   8.465 -0.2687  0.1499  0.1152
  131loPI   C4B 2096  16.638   4.044   8.161  0.1631 -0.1725  0.1420
  132loPI    C1 2097   5.962   2.099  10.233  0.0070  0.1663  0.0949
  132loPI    C2 2098   6.339   1.999  10.322 -0.0291  0.2307  0.3264
  132loPI    C3 2099   6.053   1.718  10.314  0.0760  0.1281 -0.1531
  132loPI   PO4 2100   6.049   2.333   9.995  0.0108  0.1027  0.2104
  132loPI   GL1 2101   6.263   2.390   9.691 -0.0897  0.1682 -0.0093
  132loPI   GL2 2102   6.123   2.401   9.467  0.2081  0.2204  0.2927
  132loPI   C1A 2103   6.526   2.100   9.424  0.1339  0.1952  0.1859
  132loPI   C2A 2104   6.528   1.840   9.028 -0.0698 -0.4620 -0.3504
  132loPI   C3A 2105   6.761   1.552   8.651 -0.1056  0.1293  0.0918
  132loPI   C4A 2106   6.820   1.183   8.325 -0.1484  0.3375  0.0380
  132loPI   C5A 2107   7.048   1.048   8.024  0.0853  0.3405 -0.1021
  132loPI   C6A 2108   7.470   0.769   8.098 -0.1709  0.1906 -0.1354
  132loPI   C1B 2109   6.142   2.230   9.053  0.0302  0.2168  0.0518
  132loPI   C2B 2110   6.100   1.960   8.761 -0.0005  0.1039  0.1089
  132loPI   C3B 2111   6.360   1.737   8.527 -0.0158 -0.1300  0.5441
  132loPI   C4B 2112   6.562   1.541   8.168 -0.1733 -0.1670 -0.0061
  133loPI    C1 2113  12.587   3.145  10.587  0.0376  0.1256 -0.0139
  133loPI    C2 2114  12.706   2.778  10.693  0.0412  0.1367  0.0204
  133loPI    C3 2115  12.584   3.037  10.972  0.0628  0.1701 -0.0011
  133loPI   PO4 2116  12.438   3.140  10.398  0.2092  0.1244  0.2452
  133loPI   GL1 2117  12.096   2.845  10.166  0.1641 -0.2958  0.1278
  133loPI   GL2 2118  12.434   2.804  10.011 -0.2038 -0.1627 -0.2386
  133loPI   C1A 2119  12.055   2.618   9.715 -0.0019 -0.0284 -0.2098
  133loPI   C2A 2120  12.001   2.636   9.309  0.0698 -0.0236 -0.3668
  133loPI   C3A 2121  11.883   2.582   8.911  0.1278 -0.1623 -0.1175
  133loPI   C4A 2122  11.558   2.353   8.597 -0.3186  0.1516 -0.0019
  133loPI   C5A 2123  11.545   2.001   8.330  0.1800  0.2320 -0.0608
  133loPI   C6A 2124  11.887   1.608   8.365 -0.0064  0.0522 -0.2698
  133loPI   C1B 2125  12.505   2.846   9.542 -0.1077 -0.0090 -0.0124
  133loPI   C2B 2126  12.492   2.844   9.093  0.4235  0.0071  0.3649
  133loPI   C3B 2127  12.643   2.566   8.778 -0.3538  0.2316  0.2778
  133loPI   C4B 2128  12.517   2.350   8.444  0.1176  0.1849 -0.2563
  134loPI    C1 2129  18.262   1.215  10.692 -0.0549  0.0409 -0.0250
  134loPI    C2 2130  17.976   1.250  10.970 -0.1079 -0.0866 -0.0626
  134loPI    C3 2131  18.356   1.188  11.080 -0.0912  0.0982 -0.0121
  134loPI   PO4 2132  18.089   1.133  10.474  0.0755  0.4384  0.1933
  134loPI   GL1 2133  18.249   1.189  10.099  0.2686 -0.0483 -0.0651
  134loPI   GL2 2134  18.148   0.805  10.172  0.0203 -0.2827  0.0326
  134loPI   C1A 2135  18.238   1.222   9.624  0.1288 -0.1574  0.1268
  134loPI   C2A 2136  18.280   1.461   9.201 -0.0771  0.1411 -0.0159
  134loPI   C3A 2137  18.326   1.484   8.774  0.0579  0.0829 -0.1868
  134loPI   C4A 2138  18.419   1.633   8.331 -0.0118  0.1060 -0.4512
  134loPI   C5A 2139  18.519   2.009   8.074 -0.0017  0.0192 -0.0595
  134loPI   C6A 2140  18.256   2.169   7.749 -0.0285 -0.3020 -0.1183
  134loPI   C1B 2141  18.028   0.628   9.780  0.0136  0.1536  0.2295
  134loPI   C2B 2142  17.923   0.481   9.391  0.2077 -0.0645  0.0354
  134loPI   C3B 2143  17.832   0.511   8.904 -0.4218  0.0269  0.1091
  134loPI   C4B 2144  17.747   0.658   8.518 -0.1080 -0.3097 -0.3448
  135loPI    C1 2145  13.038   2.390  10.481 -0.0582 -0.1437  0.1003
  135loPI    C2 2146  12.847   2.293  10.820 -0.0731  0.1402  0.1755
  135loPI    C3 2147  13.178   2.518  10.833 -0.0238  0.0794  0.0071
  135loPI   PO4 2148  12.861   2.527  10.280  0.0131  0.1424 -0.0893
  135loPI   GL1 2149  12.897   2.333   9.903  0.1796  0.0138  0.1122
  135loPI   GL2 2150  12.653   2.399   9.721  0.0475 -0.1367  0.1102
  135loPI   C1A 2151  13.099   2.009   9.679 -0.0462 -0.3045 -0.0312
  135loPI   C2A 2152  13.198   1.957   9.206  0.3686 -0.0296  0.1881
  135loPI   C3A 2153  13.193   1.898   8.767  0.2796  0.1034 -0.0138
  135loPI   C4A 2154  13.074   1.990   8.301 -0.1016  0.1674  0.1941
  135loPI   C5A 2155  13.347   2.151   7.903 -0.1430  0.0007  0.1068
  135loPI   C6A 2156  13.696   2.235   7.569  0.2520 -0.3809 -0.3672
  135loPI   C1B 2157  12.336   2.271   9.342  0.0974 -0.1446  0.1178
  135loPI   C2B 2158  12.295   2.148   8.903  0.2116 -0.1015  0.0699
  135loPI   C3B 2159  12.017   2.094   8.457  0.1827  0.2094 -0.2816
  135loPI   C4B 2160  12.003   2.086   8.035  0.3020  0.0582  0.1769
  136loPI    C1 2161   6.664  15.914  10.841  0.0916  0.2911  0.2370
  136loPI    C2 2162   6.906  15.657  11.028  0.0521  0.1228  0.0605
  136loPI    C3 2163   6.534  15.713  11.162 -0.0275 -0.1136 -0.0558
  136loPI   PO4 2164   6.715  15.913  10.545 -0.1453  0.5164  0.1609
  136loPI   GL1 2165   6.812  15.882  10.066 -0.0609  0.4037  0.0770
  136loPI   GL2 2166   7.023  16.226  10.268  0.2268 -0.3744  0.0484
  136loPI   C1A 2167   6.747  15.905   9.611 -0.2005  0.2256 -0.1805
  136loPI   C2A 2168   6.816  15.979   9.240  0.0617 -0.3571 -0.0833
  136loPI   C3A 2169   6.998  15.954   8.822 -0.0411  0.1110 -0.2547
  136loPI   C4A 2170   7.257  15.706   8.588 -0.2018 -0.1272 -0.0481
  136loPI   C5A 2171   7.585  15.603   8.283 -0.1244  0.3313 -0.2046
  136loPI   C6A 2172   7.958  15.363   8.364  0.0571 -0.1373 -0.2616
  136loPI   C1B 2173   7.089  16.217   9.865  0.0894  0.1452  0.0879
  136loPI   C2B 2174   7.239  16.236   9.428  0.1046  0.2261 -0.0442
  136loPI   C3B 2175   7.272  16.355   9.047  0.2850  0.0400 -0.1530
  136loPI   C4B 2176   7.533  16.098   8.741 -0.0801  0.0078  0.2785
  137loPI    C1 2177  17.471  14.554  10.028  0.1130 -0.0874  0.4065
  137loPI    C2 2178  17.678  14.244   9.883  0.0392 -0.0000  0.1065
  137loPI    C3 2179  17.657  14.303  10.278  0.2393 -0.2470  0.1572
  137loPI   PO4 2180  17.193  14.463   9.930  0.0702 -0.0211 -0.1193
  137loPI   GL1 2181  17.233  14.159   9.604 -0.0076  0.3146  0.1636
  137loPI   GL2 2182  17.451  14.433   9.479  0.3158  0.0228  0.2580
  137loPI   C1A 2183  16.890  14.307   9.364  0.0840  0.3514 -0.2854
  137loPI   C2A 2184  16.608  14.298   8.973  0.2324 -0.0934 -0.1257
  137loPI   C3A 2185  16.533  14.153   8.583  0.1924  0.5552  0.0855
  137loPI   C4A 2186  16.341  14.004   8.192  0.0348  0.1026  0.2008
  137loPI   C5A 2187  16.200  13.699   7.783  0.1656  0.0070 -0.4222
  137loPI   C6A 2188  16.443  13.540   7.462  0.1862 -0.3772 -0.0055
  137loPI   C1B 2189  17.321  14.365   9.056 -0.0879 -0.2153  0.2252
  137loPI   C2B 2190  17.183  14.436   8.581 -0.3165 -0.1003  0.1610
  137loPI   C3B 2191  17.037  14.611   8.241  0.2818 -0.1390 -0.1433
  137loPI   C4B 2192  17.119  14.598   7.850 -0.3762  0.2138 -0.1117
  138loPI    C1 2193  15.064  12.039  10.322  0.0671 -0.3253  0.2946
  138loPI    C2 2194  14.760  11.876  10.525 -0.2580  0.1019  0.1661
  138loPI    C3 2195  14.879  12.249  10.608  0.0093  0.0601 -0.0176
  138loPI   PO4 2196  15.046  11.899  10.030  0.0131  0.0301  0.0222
  138loPI   GL1 2197  14.809  11.958   9.688 -0.2575  0.1971  0.3494
  138loPI   GL2 2198  14.640  12.177   9.525  0.0770  0.0079 -0.2802
  138loPI   C1A 2199  15.049  12.172   9.299  0.2584  0.1474  0.0593
  138loPI   C2A 2200  15.088  12.099   8.889 -0.0167 -0.0555  0.0091
  138loPI   C3A 2201  14.891  12.038   8.641  0.0721 -0.0218 -0.3361
  138loPI   C4A 2202  14.747  12.006   8.227  0.0042 -0.0612  0.2030
  138loPI   C5A 2203  14.683  11.802   7.819  0.1737  0.4923  0.1469
  138loPI   C6A 2204  14.657  11.668   7.334  0.1790 -0.2858  0.2430
  138loPI   C1B 2205  14.620  11.857   9.112 -0.0012 -0.3144 -0.1601
  138loPI   C2B 2206  14.534  11.743   8.665  0.3251  0.1366  0.1505
  138loPI   C3B 2207  14.599  11.548   8.304 -0.1938  0.1702  0.0602
  138loPI   C4B 2208  14.762  11.167   8.030  0.1457 -0.1979 -0.0477
  139loPI    C1 2209  13.745  14.886  10.171 -0.0839 -0.0774  0.3241
  139loPI    C2 2210  14.114  14.940  10.316  0.1050 -0.0789 -0.1392
  139loPI    C3 2211  13.928  14.589  10.367  0.1303 -0.0498  0.1694
  139loPI   PO4 2212  13.725  14.955   9.918  0.4094 -0.1878 -0.0307
  139loPI   GL1 2213  13.806  14.950   9.604 -0.0284 -0.1931  0.0989
  139loPI   GL2 2214  13.500  15.169   9.409  0.1901 -0.2789 -0.0918
  139loPI   C1A 2215  13.841  15.041   9.099  0.1287 -0.1789  0.2253
  139loPI   C2A 2216  13.987  15.192   8.757  0.1385  0.0699  0.1457
  139loPI   C3A 2217  14.278  15.200   8.475 -0.0658  0.2311  0.0640
  139loPI   C4A 2218  14.685  15.110   8.254 -0.0929 -0.3501  0.0103
  139loPI   C5A 2219  15.055  14.966   7.973 -0.0209  0.0640 -0.5539
  139loPI   C6A 2220  15.465  14.952   8.129  0.0716  0.1342  0.3945
  139loPI   C1B 2221  13.422  15.261   9.049  0.0963  0.0122  0.0282
  139loPI   C2B 2222  13.487  15.360   8.605  0.1768 -0.2793 -0.0911
  139loPI   C3B 2223  13.791  15.205   8.207  0.0179  0.3330 -0.0019
  139loPI   C4B 2224  13.875  15.237   7.757  0.0142 -0.2763 -0.3075
  140loPI    C1 2225   3.920  10.491  10.474  0.1601  0.0529  0.2116
  140loPI    C2 2226   3.647  10.749  10.336  0.0707 -0.1564 -0.0101
  140loPI    C3 2227   3.678  10.681  10.729 -0.1872 -0.1206  0.0178
  140loPI   PO4 2228   3.925  10.340  10.192 -0.1799  0.2343 -0.4790
  140loPI   GL1 2229   3.919  10.203   9.816  0.1057 -0.1697 -0.0768
  140loPI   GL2 2230   4.233  10.165   9.601 -0.1433  0.0480 -0.0547
  140loPI   C1A 2231   3.865  10.537   9.513  0.0799 -0.0008 -0.2691
  140loPI   C2A 2232   3.745  10.817   9.115  0.0957 -0.0881  0.1293
  140loPI   C3A 2233   3.800  11.032   8.761  0.0479  0.0109 -0.3221
  140loPI   C4A 2234   3.970  10.846   8.265 -0.1638  0.0344 -0.4942
  140loPI   C5A 2235   3.833  10.993   7.992  0.4971  0.1176  0.4102
  140loPI   C6A 2236   3.987  10.952   7.583  0.1026 -0.2599 -0.2164
  140loPI   C1B 2237   4.166  10.229   9.137 -0.0731  0.2033 -0.2104
  140loPI   C2B 2238   4.321  10.121   8.729 -0.4693 -0.1522 -0.1222
  140loPI   C3B 2239   4.577  10.030   8.404 -0.1028 -0.1335  0.0365
  140loPI   C4B 2240   4.787  10.218   8.077  0.0418 -0.0847  0.0947
  141loPI    C1 2241  15.822   2.794  10.383 -0.0746  0.2073 -0.0164
  141loPI    C2 2242  15.484   2.697  10.574 -0.2034  0.3027 -0.1931
  141loPI    C3 2243  15.819   2.491  10.645 -0.3857 -0.0371 -0.2922
  141loPI   PO4 2244  15.650   2.985  10.229  0.0797  0.0775  0.0917
  141loPI   GL1 2245  15.506   2.851   9.817  0.2318  0.0251 -0.0190
  141loPI   GL2 2246  15.297   3.026   9.606  0.0350 -0.0627  0.0617
  141loPI   C1A 2247  15.618   2.585   9.593  0.1155  0.1130 -0.3051
  141loPI   C2A 2248  15.655   2.209   9.356  0.2143 -0.1736  0.1685
  141loPI   C3A 2249  15.699   2.073   8.968 -0.2402 -0.0041  0.0320
  141loPI   C4A 2250  15.515   2.136   8.696  0.0908 -0.0114  0.0672
  141loPI   C5A 2251  15.545   2.032   8.266  0.0117 -0.2092 -0.1997
  141loPI   C6A 2252  15.639   2.061   7.887  0.2229  0.0971  0.1147
  141loPI   C1B 2253  15.313   3.321   9.289  0.1179  0.2162 -0.1646
  141loPI   C2B 2254  15.670   3.494   9.066  0.0181  0.1311 -0.1575
  141loPI   C3B 2255  15.612   3.578   8.634 -0.2197 -0.0243  0.0764
  141loPI   C4B 2256  15.585   3.949   8.401 -0.1129 -0.3115 -0.3436
  142loPI    C1 2257  10.360  16.169  10.620 -0.0421  0.0279 -0.1447
  142loPI    C2 2258  10.115  15.868  10.717  0.0819 -0.0690 -0.1304
  142loPI    C3 2259  10.260  16.107  11.002 -0.2595  0.1955 -0.1721
  142loPI   PO4 2260  10.378  16.102  10.376  0.0964  0.6057  0.0564
  142loPI   GL1 2261  10.342  15.937   9.927 -0.2387  0.0006  0.0490
  142loPI   GL2 2262  10.647  15.887  10.006 -0.2593 -0.2196  0.0493
  142loPI   C1A 2263  10.257  16.112   9.465  0.2356  0.0684 -0.2224
  142loPI   C2A 2264  10.317  16.290   9.004  0.2894 -0.2345 -0.2517
  142loPI   C3A 2265  10.104  16.411   8.618  0.1118 -0.0396  0.2343
  142loPI   C4A 2266   9.874  16.488   8.263 -0.0349  0.2165 -0.0027
  142loPI   C5A 2267   9.572  16.600   7.872 -0.1191  0.0796 -0.2219
  142loPI   C6A 2268   9.275  16.872   7.921  0.0399 -0.1448 -0.0166
  142loPI   C1B 2269  10.644  16.307   9.812 -0.1361  0.0540  0.2812
  142loPI   C2B 2270  10.681  16.452   9.354 -0.1495  0.2666 -0.0422
  142loPI   C3B 2271  10.591  16.738   8.983 -0.4749  0.0265  0.0883
  142loPI   C4B 2272  10.726  16.742   8.586  0.0055 -0.0560 -0.3442
  143loPI    C1 2273  12.339  11.397  10.320  0.0409 -0.1365  0.0812
  143loPI    C2 2274  12.175  11.096  10.524 -0.0603 -0.1161  0.0304
  143loPI    C3 2275  12.567  11.168  10.556 -0.0355 -0.2529  0.0429
  143loPI   PO4 2276  12.185  11.387  10.121  0.3343 -0.3940 -0.2212
  143loPI   GL1 2277  12.235  11.703   9.832 -0.1575  0.0065 -0.0889
  143loPI   GL2 2278  12.521  11.574   9.780 -0.1707 -0.1666  0.1289
  143loPI   C1A 2279  12.237  11.644   9.373  0.2597 -0.0758 -0.1482
  143loPI   C2A 2280  12.322  11.786   8.892  0.0430 -0.1264 -0.1487
  143loPI   C3A 2281  12.470  11.644   8.518  0.1236 -0.0209 -0.1065
  143loPI   C4A 2282  12.682  11.472   8.189  0.0453  0.1422 -0.0281
  143loPI   C5A 2283  12.687  11.265   7.843 -0.1014  0.0513  0.3070
  143loPI   C6A 2284  12.667  10.934   7.515  0.2606 -0.1089 -0.0416
  143loPI   C1B 2285  12.755  11.552   9.300  0.1546 -0.1404 -0.1806
  143loPI   C2B 2286  12.819  11.593   8.869 -0.0911  0.1910 -0.0087
  143loPI   C3B 2287  13.016  11.703   8.430 -0.0644  0.0297  0.0930
  143loPI   C4B 2288  13.197  11.746   7.965  0.0139 -0.2866  0.0212
  144loPI    C1 2289   8.540  11.441  10.052 -0.0927  0.3130 -0.0591
  144loPI    C2 2290   8.853  11.603  10.240  0.0142 -0.1014  0.1309
  144loPI    C3 2291   8.527  11.499  10.448 -0.1134  0.0078 -0.0128
  144loPI   PO4 2292   8.500  11.477   9.840  0.1023  0.0941 -0.1916
  144loPI   GL1 2293   8.355  11.288   9.505  0.0497 -0.0664  0.0618
  144loPI   GL2 2294   8.578  11.299   9.425 -0.1309 -0.1302  0.4299
  144loPI   C1A 2295   8.249  11.405   9.043 -0.3262  0.0561  0.0393
  144loPI   C2A 2296   8.285  11.493   8.600  0.2903  0.0789 -0.1419
  144loPI   C3A 2297   8.404  11.619   8.197 -0.0530  0.1744 -0.1454
  144loPI   C4A 2298   8.542  11.469   7.749 -0.2944  0.0322 -0.0636
  144loPI   C5A 2299   8.782  11.494   7.324 -0.0209 -0.1283 -0.0693
  144loPI   C6A 2300   8.640  11.720   6.880  0.0500  0.4310 -0.1927
  144loPI   C1B 2301   8.732  11.367   8.990  0.2477  0.1350 -0.1278
  144loPI   C2B 2302   8.756  11.420   8.573  0.2225 -0.2102 -0.1103
  144loPI   C3B 2303   8.973  11.549   8.191  0.0291 -0.0713  0.0476
  144loPI   C4B 2304   9.050  11.696   7.736 -0.1008  0.0246  0.0421
  145loPI    C1 2305   4.943  17.451  10.702 -0.4007 -0.0225 -0.0488
  145loPI    C2 2306   4.923  17.687  11.024  0.1227 -0.1112  0.0571
  145loPI    C3 2307   4.782  17.313  11.041 -0.2306  0.0180  0.0495
  145loPI   PO4 2308   4.797  17.654  10.502  0.2509  0.2864 -0.1769
  145loPI   GL1 2309   4.712  17.575  10.125  0.1667  0.0419  0.1906
  145loPI   GL2 2310   4.754  17.299   9.954  0.0567  0.1396  0.0199
  145loPI   C1A 2311   4.853  17.796   9.687  0.1359 -0.1678 -0.2982
  145loPI   C2A 2312   4.836  17.895   9.157  0.1980  0.1647 -0.2825
  145loPI   C3A 2313   4.851  17.939   8.759 -0.0162 -0.1109  0.1336
  145loPI   C4A 2314   4.575  17.733   8.440 -0.1016 -0.2092 -0.1866
  145loPI   C5A 2315   4.169  17.739   8.381  0.0955 -0.0943 -0.0945
  145loPI   C6A 2316   3.998  17.586   8.086  0.3063  0.0761  0.0149
  145loPI   C1B 2317   4.664  17.258   9.568  0.0270 -0.1305 -0.1705
  145loPI   C2B 2318   4.644  17.370   9.218 -0.0616  0.0818  0.3157
  145loPI   C3B 2319   4.935  17.450   8.910  0.0307 -0.1466  0.1387
  145loPI   C4B 2320   5.110  17.560   8.516 -0.2417  0.0260  0.2331
  146loPI    C1 2321  15.547   4.770  10.550  0.1390 -0.0670 -0.4152
  146loPI    C2 2322  15.202   4.962  10.483 -0.0119 -0.1640  0.0460
  146loPI    C3 2323  15.537   5.170  10.548 -0.0828 -0.0623  0.0879
  146loPI   PO4 2324  15.586   4.550  10.317 -0.0157  0.0896  0.1305
  146loPI   GL1 2325  15.760   4.457   9.848 -0.0624  0.3314  0.0302
  146loPI   GL2 2326  16.062   4.343   9.736  0.0509  0.0202 -0.0054
  146loPI   C1A 2327  15.694   4.269   9.455 -0.0862  0.0517 -0.4888
  146loPI   C2A 2328  15.830   4.298   9.028  0.2388  0.0357 -0.2186
  146loPI   C3A 2329  15.898   4.277   8.574 -0.1403 -0.0284 -0.0641
  146loPI   C4A 2330  15.878   4.309   8.198  0.0749  0.0118 -0.0969
  146loPI   C5A 2331  15.764   3.922   7.936  0.0553 -0.1933  0.2543
  146loPI   C6A 2332  15.380   3.616   8.059 -0.0353 -0.4854 -0.1129
  146loPI   C1B 2333  16.058   4.606   9.337 -0.0310  0.0056 -0.1709
  146loPI   C2B 2334  16.106   4.686   8.851 -0.1426 -0.0899 -0.2512
  146loPI   C3B 2335  16.442   4.726   8.538  0.0777 -0.2239  0.1311
  146loPI   C4B 2336  16.793   4.961   8.542  0.0812  0.5119  0.0597
  147loPI    C1 2337  12.391   9.014  10.233 -0.0499  0.1648  0.0774
  147loPI    C2 2338  12.013   8.907  10.310 -0.0000 -0.0398  0.0434
  147loPI    C3 2339  12.268   8.971  10.611 -0.0470  0.0462  0.0651
  147loPI   PO4 2340  12.342   9.038   9.972  0.3456  0.1082  0.3809
  147loPI   GL1 2341  12.235   9.372   9.669 -0.1891 -0.2473  0.1912
  147loPI   GL2 2342  12.193   9.735   9.741  0.4003 -0.0159 -0.1831
  147loPI   C1A 2343  12.133   9.340   9.233 -0.0956 -0.1406  0.1780
  147loPI   C2A 2344  12.440   9.473   8.862 -0.0144 -0.0876  0.0693
  147loPI   C3A 2345  12.678   9.699   8.521  0.1289 -0.1520  0.1481
  147loPI   C4A 2346  12.776   9.957   8.149 -0.1964  0.1568  0.3700
  147loPI   C5A 2347  13.097   9.880   7.957 -0.1593  0.1964 -0.3458
  147loPI   C6A 2348  13.313   9.565   7.767 -0.1831 -0.0616  0.0655
  147loPI   C1B 2349  12.131   9.811   9.163 -0.0468 -0.0172 -0.1709
  147loPI   C2B 2350  12.166   9.869   8.790  0.1777 -0.0862  0.2282
  147loPI   C3B 2351  12.322  10.121   8.429  0.1252 -0.3513  0.1064
  147loPI   C4B 2352  12.487  10.383   8.095 -0.4800 -0.0749 -0.1151
  148loPI    C1 2353   9.276  10.733  10.080  0.0710  0.1255 -0.1336
  148loPI    C2 2354   9.397  10.850  10.443  0.1087 -0.0461 -0.0899
  148loPI    C3 2355   9.384  10.461  10.352 -0.2552 -0.0238 -0.1492
  148loPI   PO4 2356   9.367  10.919   9.946 -0.0566 -0.0276  0.2251
  148loPI   GL1 2357   9.520  10.928   9.598 -0.0880 -0.0616  0.0151
  148loPI   GL2 2358   9.565  10.666   9.520 -0.1735  0.1023  0.0122
  148loPI   C1A 2359   9.478  11.282   9.420 -0.2927  0.2078 -0.0373
  148loPI   C2A 2360   9.642  11.406   8.999  0.1749  0.2063 -0.2306
  148loPI   C3A 2361   9.663  11.544   8.544 -0.1779  0.2826  0.1256
  148loPI   C4A 2362   9.543  11.775   8.140 -0.0509 -0.4488 -0.0812
  148loPI   C5A 2363   9.613  11.768   7.731  0.0707  0.2835 -0.3544
  148loPI   C6A 2364   9.841  11.493   7.522 -0.2069 -0.3915 -0.0632
  148loPI   C1B 2365   9.609  10.916   9.067  0.0409  0.0492 -0.0141
  148loPI   C2B 2366   9.751  11.052   8.653  0.2340 -0.0311 -0.2199
  148loPI   C3B 2367   9.790  10.920   8.308 -0.0668 -0.2698  0.3817
  148loPI   C4B 2368   9.959  10.843   7.939 -0.0560  0.0432 -0.0173
  149loPI    C1 2369   6.337   6.254  10.549  0.1830 -0.0552  0.0452
  149loPI    C2 2370   6.225   5.879  10.631  0.1010 -0.0053  0.1638
  149loPI    C3 2371   6.292   6.138  10.929  0.0340  0.1102  0.0791
  149loPI   PO4 2372   6.237   6.275  10.288 -0.0532  0.0083 -0.1195
  149loPI   GL1 2373   6.314   6.354   9.858  0.0245 -0.3279 -0.0978
  149loPI   GL2 2374   6.540   6.262   9.662  0.1518  0.0206 -0.1936
  149loPI   C1A 2375   6.285   6.647   9.467 -0.1658  0.1636  0.0696
  149loPI   C2A 2376   6.041   6.748   9.094  0.0443  0.1523  0.0380
  149loPI   C3A 2377   5.928   6.738   8.658  0.0853 -0.0509 -0.0288
  149loPI   C4A 2378   5.877   6.857   8.238 -0.3451  0.0214  0.4311
  149loPI   C5A 2379   5.961   6.783   7.829  0.1801 -0.0197  0.3897
  149loPI   C6A 2380   6.055   6.868   7.384 -0.0884 -0.1217 -0.2206
  149loPI   C1B 2381   6.482   6.205   9.236 -0.1295  0.0550 -0.1073
  149loPI   C2B 2382   6.313   6.383   8.828  0.2072 -0.0409  0.1924
  149loPI   C3B 2383   6.423   6.592   8.461  0.1326 -0.1017  0.2818
  149loPI   C4B 2384   6.444   6.745   8.014  0.0729 -0.2226 -0.0641
  150loPI    C1 2385  12.654  14.948  10.359 -0.0697 -0.0489  0.1593
  150loPI    C2 2386  12.716  14.564  10.266 -0.2267 -0.0441  0.0306
  150loPI    C3 2387  12.980  14.760  10.494  0.1240 -0.0807 -0.3325
  150loPI   PO4 2388  12.481  15.049  10.177 -0.0599 -0.0535 -0.2322
  150loPI   GL1 2389  12.344  14.971   9.776 -0.3693 -0.1552  0.0037
  150loPI   GL2 2390  12.409  14.651   9.827  0.2034 -0.0802  0.1513
  150loPI   C1A 2391  12.398  15.163   9.382 -0.3174 -0.3680  0.0514
  150loPI   C2A 2392  12.518  15.225   9.013 -0.0890  0.3947 -0.0558
  150loPI   C3A 2393  12.514  15.152   8.598  0.0953 -0.0713 -0.0156
  150loPI   C4A 2394  12.382  15.015   8.194 -0.2353  0.0126 -0.2262
  150loPI   C5A 2395  12.282  14.827   7.810 -0.4891 -0.1492 -0.0650
  150loPI   C6A 2396  12.323  14.743   7.439  0.0040  0.2653 -0.2286
  150loPI   C1B 2397  12.191  14.577   9.467 -0.1366  0.4368  0.0111
  150loPI   C2B 2398  12.145  14.546   9.034 -0.3009 -0.2614 -0.0085
  150loPI   C3B 2399  12.101  14.805   8.697 -0.1840 -0.6195  0.2196
  150loPI   C4B 2400  11.933  15.030   8.415  0.0134  0.3666  0.1508
  151loPI    C1 2401   0.282   9.183  10.128 -0.1776 -0.2359 -0.3304
  151loPI    C2 2402   0.579   8.918  10.088  0.1389  0.0808 -0.1364
  151loPI    C3 2403   0.376   8.941  10.432  0.0492  0.0300 -0.1854
  151loPI   PO4 2404   0.277   9.374   9.954 -0.1012 -0.0376 -0.0724
  151loPI   GL1 2405   0.239   9.683   9.540 -0.1275 -0.0868 -0.0266
  151loPI   GL2 2406   0.147   9.366   9.481 -0.0006 -0.0677  0.0374
  151loPI   C1A 2407   0.299   9.771   9.117  0.0966 -0.0771 -0.2258
  151loPI   C2A 2408   0.425   9.493   8.757 -0.0807  0.0224 -0.0733
  151loPI   C3A 2409   0.646   9.326   8.534  0.0243  0.2270  0.2300
  151loPI   C4A 2410   0.558   9.047   8.237  0.0518  0.2494  0.0571
  151loPI   C5A 2411   0.326   9.073   7.843 -0.2619  0.2915  0.2948
  151loPI   C6A 2412   0.120   8.849   7.568 -0.0419 -0.0714 -0.2440
  151loPI   C1B 2413   0.481   9.262   9.176 -0.1825 -0.0762  0.0073
  151loPI   C2B 2414   0.589   9.008   8.863 -0.0500  0.2410  0.1889
  151loPI   C3B 2415   0.437   8.698   8.550 -0.2054 -0.0589 -0.2356
  151loPI   C4B 2416   0.295   8.614   8.014 -0.1470 -0.3201 -0.1040
  152loPI    C1 2417  14.510  15.148  10.214 -0.0723  0.0701  0.0944
  152loPI    C2 2418  14.761  15.307  10.481 -0.1811  0.0903  0.1850
  152loPI    C3 2419  14.368  15.304  10.553 -0.1868 -0.1512  0.1499
  152loPI   PO4 2420  14.690  15.190  10.015  0.2269  0.1447  0.2612
  152loPI   GL1 2421  14.705  15.114   9.601  0.0409  0.1947  0.3541
  152loPI   GL2 2422  14.820  14.786   9.348 -0.0746 -0.0118 -0.1393
  152loPI   C1A 2423  14.732  15.195   9.157  0.0359 -0.0991  0.2154
  152loPI   C2A 2424  14.768  15.234   8.763  0.1055  0.3814 -0.0201
  152loPI   C3A 2425  14.623  15.562   8.453  0.0753 -0.1930 -0.3028
  152loPI   C4A 2426  14.439  15.533   8.079  0.2917 -0.0004  0.1791
  152loPI   C5A 2427  14.646  15.749   7.775 -0.1482 -0.0228  0.1234
  152loPI   C6A 2428  14.761  16.167   7.712  0.0664 -0.1606  0.0393
  152loPI   C1B 2429  15.107  14.797   9.068 -0.0163 -0.2501  0.2675
  152loPI   C2B 2430  15.420  14.782   8.714  0.2034 -0.3938 -0.2960
  152loPI   C3B 2431  15.831  14.853   8.450 -0.3048  0.0862 -0.1506
  152loPI   C4B 2432  16.089  14.715   8.134  0.1277 -0.0692  0.4577
  153loPI    C1 2433   1.856  13.376  10.065 -0.1931 -0.0546  0.0774
  153loPI    C2 2434   1.562  13.402  10.335 -0.1493 -0.1186  0.1317
  153loPI    C3 2435   1.917  13.252  10.440 -0.1122 -0.0855  0.0542
  153loPI   PO4 2436   1.946  13.647   9.920 -0.1813 -0.0157  0.1988
  153loPI   GL1 2437   1.874  13.689   9.516  0.0030  0.0364  0.0143
  153loPI   GL2 2438   2.055  13.370   9.365  0.0702 -0.0786 -0.2270
  153loPI   C1A 2439   1.795  13.849   9.202  0.0660  0.0787 -0.1411
  153loPI   C2A 2440   1.812  13.875   8.764  0.0826 -0.1411  0.1367
  153loPI   C3A 2441   2.015  14.050   8.358 -0.1278  0.4720  0.0899
  153loPI   C4A 2442   2.039  14.236   7.991  0.0306  0.1681  0.1915
  153loPI   C5A 2443   2.373  14.463   7.756 -0.0340  0.0499 -0.0769
  153loPI   C6A 2444   2.895  14.569   7.715  0.1053 -0.0112  0.1330
  153loPI   C1B 2445   1.975  13.383   8.991 -0.3064  0.1587 -0.1106
  153loPI   C2B 2446   1.758  13.391   8.613 -0.1725  0.2236 -0.0039
  153loPI   C3B 2447   1.635  13.697   8.160  0.0807  0.0232  0.0804
  153loPI   C4B 2448   1.637  14.020   7.801 -0.0438  0.1103 -0.0021
  154loPI    C1 2449   7.463  11.362  10.125  0.0047  0.1666  0.2105
  154loPI    C2 2450   7.152  11.339  10.376 -0.1141  0.1527  0.0636
  154loPI    C3 2451   7.502  11.487  10.503 -0.0381 -0.2678  0.3641
  154loPI   PO4 2452   7.447  11.087   9.999  0.0448  0.2699  0.2064
  154loPI   GL1 2453   7.577  11.090   9.545  0.0561 -0.3719  0.3603
  154loPI   GL2 2454   7.771  10.857   9.627  0.1152  0.4506  0.1471
  154loPI   C1A 2455   7.512  11.051   9.157 -0.0111 -0.0019  0.1344
  154loPI   C2A 2456   7.522  10.972   8.732 -0.1942 -0.3341 -0.1890
  154loPI   C3A 2457   7.559  10.856   8.408 -0.0425 -0.0365  0.2303
  154loPI   C4A 2458   7.483  10.969   7.963  0.1126  0.0908 -0.0397
  154loPI   C5A 2459   7.718  10.754   7.594  0.0231  0.4399  0.2119
  154loPI   C6A 2460   8.114  10.652   7.337  0.1178  0.0052 -0.1005
  154loPI   C1B 2461   7.978  11.038   9.266  0.0409  0.2668 -0.0797
  154loPI   C2B 2462   7.999  10.980   8.895 -0.2659  0.0284 -0.2627
  154loPI   C3B 2463   8.015  11.128   8.464  0.1275  0.0129 -0.1689
  154loPI   C4B 2464   8.000  11.223   8.054  0.0136  0.3106 -0.0071
  155loPI    C1 2465   3.777  12.444  10.262 -0.1327 -0.1133 -0.1227
  155loPI    C2 2466   3.651  12.142  10.493 -0.0881 -0.0369  0.0028
  155loPI    C3 2467   3.519  12.514  10.560 -0.0039  0.0002 -0.0362
  155loPI   PO4 2468   4.096  12.392  10.127 -0.2318  0.1399 -0.0645
  155loPI   GL1 2469   4.179  12.333   9.720  0.0398 -0.2456  0.3259
  155loPI   GL2 2470   4.020  12.391   9.480  0.2564  0.2772  0.1812
  155loPI   C1A 2471   4.476  12.189   9.392 -0.1294  0.0481 -0.2162
  155loPI   C2A 2472   4.588  12.108   8.843  0.0135  0.3712 -0.3117
  155loPI   C3A 2473   4.600  12.237   8.347 -0.2190  0.0360 -0.0568
  155loPI   C4A 2474   5.075  12.236   8.134 -0.2060  0.0006 -0.1363
  155loPI   C5A 2475   5.604  12.144   8.269 -0.1455  0.1006 -0.2591
  155loPI   C6A 2476   5.913  12.470   8.491 -0.3161 -0.0581 -0.0671
  155loPI   C1B 2477   4.195  12.406   9.042 -0.0570 -0.0177  0.0480
  155loPI   C2B 2478   4.239  12.552   8.531  0.0830  0.0040 -0.0910
  155loPI   C3B 2479   4.062  12.778   8.268 -0.0994  0.2241  0.1649
  155loPI   C4B 2480   3.915  13.019   7.963 -0.2526  0.1988 -0.0473
  156loPI    C1 2481   6.906   5.713  10.155 -0.1043  0.2068 -0.1096
  156loPI    C2 2482   6.572   5.922  10.084 -0.2575  0.0070  0.0133
  156loPI    C3 2483   6.774   5.979  10.424 -0.1542  0.1418 -0.0695
  156loPI   PO4 2484   6.933   5.631   9.823 -0.0140  0.0660  0.0104
  156loPI   GL1 2485   7.127   5.827   9.562  0.1311  0.2882 -0.0648
  156loPI   GL2 2486   6.962   6.092   9.417 -0.1365 -0.0015  0.1895
  156loPI   C1A 2487   7.340   5.855   9.198 -0.3503  0.0436  0.1799
  156loPI   C2A 2488   7.231   5.853   8.818 -0.0704 -0.0425 -0.2938
  156loPI   C3A 2489   7.135   5.943   8.378 -0.0577  0.2024  0.0992
  156loPI   C4A 2490   6.963   6.089   7.935 -0.4780  0.0460  0.0690
  156loPI   C5A 2491   6.811   6.128   7.573 -0.2443  0.0362  0.6101
  156loPI   C6A 2492   6.490   5.972   7.336  0.0782  0.1445  0.1137
  156loPI   C1B 2493   6.966   6.277   9.044 -0.0771  0.0126  0.1089
  156loPI   C2B 2494   6.825   6.545   8.674  0.0612  0.0141  0.0379
  156loPI   C3B 2495   6.853   6.440   8.278  0.1336 -0.0784 -0.1851
  156loPI   C4B 2496   6.864   6.571   7.842  0.1771 -0.0534 -0.1480
  157loPI    C1 2497   9.109   7.221  10.435  0.1520  0.0798  0.0993
  157loPI    C2 2498   9.042   7.585  10.586 -0.1476  0.1392 -0.1659
  157loPI    C3 2499   8.937   7.261  10.794 -0.0046  0.2052  0.0116
  157loPI   PO4 2500   9.019   7.228  10.179  0.1127 -0.0189  0.0649
  157loPI   GL1 2501   9.241   7.312   9.856  0.0937 -0.0205  0.0838
  157loPI   GL2 2502   9.559   7.422   9.713  0.3523  0.0042 -0.1409
  157loPI   C1A 2503   9.129   7.339   9.303  0.1614 -0.2380  0.0097
  157loPI   C2A 2504   9.206   7.296   8.915  0.0141  0.1679 -0.2667
  157loPI   C3A 2505   9.400   7.405   8.528 -0.1111 -0.2950  0.1301
  157loPI   C4A 2506   9.430   7.431   8.186 -0.0259 -0.0529  0.2042
  157loPI   C5A 2507   9.259   7.724   7.829  0.5027  0.3055 -0.1131
  157loPI   C6A 2508   8.763   7.874   7.810  0.1190  0.2757  0.2214
  157loPI   C1B 2509   9.615   7.313   9.290  0.3703 -0.0900 -0.2241
  157loPI   C2B 2510   9.754   7.273   8.891  0.0232 -0.0260 -0.0374
  157loPI   C3B 2511   9.915   7.222   8.426  0.2375  0.1001  0.1560
  157loPI   C4B 2512   9.908   7.444   7.940 -0.0389 -0.2734 -0.0730
  158loPI    C1 2513  10.578  11.256  10.373 -0.2459 -0.1374  0.1300
  158loPI    C2 2514  10.924  11.239  10.573  0.2072  0.1242 -0.5936
  158loPI    C3 2515  10.650  11.512  10.672  0.2375 -0.0227 -0.0744
  158loPI   PO4 2516  10.646  11.306  10.110 -0.1814 -0.3463 -0.2173
  158loPI   GL1 2517  10.615  11.112   9.807  0.0220 -0.0110 -0.4228
  158loPI   GL2 2518  10.557  11.321   9.587  0.0634 -0.0948  0.5103
  158loPI   C1A 2519  10.455  10.806   9.472 -0.1577 -0.1516 -0.4027
  158loPI   C2A 2520  10.478  10.540   9.078 -0.3741 -0.2588  0.0591
  158loPI   C3A 2521  10.471  10.416   8.640 -0.0481  0.1142  0.3051
  158loPI   C4A 2522  10.457  10.115   8.356  0.1102  0.2372  0.0354
  158loPI   C5A 2523  10.482  10.062   7.968  0.0505  0.0601  0.0789
  158loPI   C6A 2524  10.698   9.650   7.797 -0.1049 -0.1824  0.0329
  158loPI   C1B 2525  10.543  11.244   9.257 -0.0493 -0.0726 -0.2621
  158loPI   C2B 2526  10.573  11.181   8.833 -0.1757 -0.1422  0.0706
  158loPI   C3B 2527  10.851  11.047   8.411  0.2616  0.1420 -0.0089
  158loPI   C4B 2528  10.879  10.975   8.011 -0.0524  0.0053 -0.1844
  159loPI    C1 2529   6.715   8.544  10.593 -0.0035  0.2312 -0.0917
  159loPI    C2 2530   6.894   8.293  10.338 -0.0705 -0.0767  0.1576
  159loPI    C3 2531   7.088   8.418  10.665  0.0037  0.2916 -0.0209
  159loPI   PO4 2532   6.622   8.726  10.341  0.0565 -0.1470  0.1067
  159loPI   GL1 2533   6.395   8.725   9.971  0.2298  0.1368 -0.1416
  159loPI   GL2 2534   6.547   9.006   9.971 -0.2803 -0.0906 -0.3469
  159loPI   C1A 2535   6.362   8.640   9.545 -0.2802 -0.1624 -0.1147
  159loPI   C2A 2536   6.539   8.793   9.270 -0.0543 -0.1262 -0.2258
  159loPI   C3A 2537   6.423   8.840   8.888  0.0106 -0.0029  0.0037
  159loPI   C4A 2538   6.708   8.738   8.523 -0.1410 -0.0004 -0.2934
  159loPI   C5A 2539   7.173   8.907   8.492  0.1188  0.3465 -0.1142
  159loPI   C6A 2540   7.454   9.072   8.198  0.0637 -0.1091  0.4691
  159loPI   C1B 2541   6.516   9.192   9.596 -0.0591 -0.1724  0.0729
  159loPI   C2B 2542   6.309   9.332   9.151  0.1010 -0.1272  0.0982
  159loPI   C3B 2543   6.287   9.332   8.798  0.2469  0.2918  0.0443
  159loPI   C4B 2544   6.235   9.068   8.429 -0.0817 -0.4559 -0.0471
  160loPI    C1 2545   3.158   9.462  10.433 -0.0742  0.1907 -0.1051
  160loPI    C2 2546   3.284   9.735  10.696  0.1518 -0.0593  0.0518
  160loPI    C3 2547   3.189   9.367  10.820 -0.2474 -0.0269 -0.1425
  160loPI   PO4 2548   3.086   9.685  10.196  0.0403 -0.4468  0.2083
  160loPI   GL1 2549   3.257   9.717   9.890  0.1658  0.0068 -0.0462
  160loPI   GL2 2550   3.232  10.169   9.891 -0.0123 -0.0651  0.1531
  160loPI   C1A 2551   3.638   9.852   9.687  0.2119  0.1154 -0.3489
  160loPI   C2A 2552   3.712  10.037   9.234 -0.1472  0.0268 -0.2648
  160loPI   C3A 2553   3.761  10.338   8.905  0.0229 -0.0474  0.0144
  160loPI   C4A 2554   4.080  10.583   8.742 -0.0275  0.1648  0.0691
  160loPI   C5A 2555   4.467  10.549   8.465  0.2750 -0.1078 -0.0478
  160loPI   C6A 2556   4.748  10.751   8.235  0.0004  0.0407  0.2262
  160loPI   C1B 2557   3.353  10.379   9.494 -0.0482  0.2316  0.2398
  160loPI   C2B 2558   3.278  10.317   9.069 -0.0665 -0.0539 -0.0207
  160loPI   C3B 2559   3.347  10.409   8.611  0.4038  0.2377 -0.1227
  160loPI   C4B 2560   3.734  10.437   8.397 -0.2225 -0.4367 -0.1560
  161loPI    C1 2561   1.490   6.392  10.535  0.1654  0.1129  0.2209
  161loPI    C2 2562   1.301   6.078  10.695 -0.0802  0.2285  0.1626
  161loPI    C3 2563   1.167   6.240  10.354  0.1895  0.2465  0.0630
  161loPI   PO4 2564   1.746   6.329  10.538 -0.1476 -0.2122  0.0050
  161loPI   GL1 2565   2.015   6.171  10.235 -0.2541  0.1098 -0.3207
  161loPI   GL2 2566   2.023   6.546  10.211 -0.0246  0.0049  0.1263
  161loPI   C1A 2567   2.322   5.811  10.199  0.1002  0.0558 -0.1634
  161loPI   C2A 2568   2.659   5.530   9.950  0.0132  0.3054 -0.2406
  161loPI   C3A 2569   2.609   5.406   9.599  0.1062 -0.0478 -0.4129
  161loPI   C4A 2570   2.540   5.336   9.114  0.2131  0.1283  0.1079
  161loPI   C5A 2571   2.640   5.293   8.717  0.1536 -0.2706  0.2754
  161loPI   C6A 2572   2.583   5.283   8.257  0.0822  0.1773 -0.2220
  161loPI   C1B 2573   2.046   6.480   9.790 -0.0168  0.0044  0.1273
  161loPI   C2B 2574   2.180   6.269   9.420  0.1659 -0.0722 -0.2963
  161loPI   C3B 2575   2.303   6.292   8.924 -0.0942  0.1152 -0.0232
  161loPI   C4B 2576   2.102   6.147   8.503 -0.3365  0.0074 -0.0366
  162loPI    C1 2577   6.700   9.239  10.578 -0.1190 -0.0549  0.3456
  162loPI    C2 2578   6.341   9.170  10.416 -0.0140  0.1592  0.0101
  162loPI    C3 2579   6.371   9.257  10.805 -0.3149  0.0547  0.0597
  162loPI   PO4 2580   6.882   9.214  10.327 -0.4186  0.0831  0.4758
  162loPI   GL1 2581   7.010   9.370   9.937  0.0223  0.3049 -0.0737
  162loPI   GL2 2582   7.186   9.413   9.635  0.0037  0.2605 -0.0948
  162loPI   C1A 2583   6.962   8.974   9.702 -0.0708 -0.1799  0.0417
  162loPI   C2A 2584   6.993   8.964   9.340 -0.0317  0.0851 -0.3748
  162loPI   C3A 2585   6.899   8.975   8.969  0.0333 -0.1006 -0.3463
  162loPI   C4A 2586   6.784   9.246   8.584  0.1483 -0.2203  0.0803
  162loPI   C5A 2587   6.717   9.128   8.181  0.0970  0.5172 -0.0886
  162loPI   C6A 2588   7.129   8.843   7.939 -0.0515 -0.2797  0.0265
  162loPI   C1B 2589   7.312   9.511   9.185 -0.0166  0.0166  0.0944
  162loPI   C2B 2590   7.306   9.478   8.809 -0.1500 -0.0883  0.1261
  162loPI   C3B 2591   7.107   9.564   8.387 -0.3569  0.1609  0.1190
  162loPI   C4B 2592   6.697   9.666   8.138 -0.0759  0.0372 -0.1075
  163loPI    C1 2593  11.254  14.405  10.431  0.2205  0.1089 -0.0816
  163loPI    C2 2594  11.423  14.095  10.620  0.2080  0.0117 -0.2280
  163loPI    C3 2595  11.436  14.460  10.783  0.1512 -0.0797 -0.0144
  163loPI   PO4 2596  11.372  14.381  10.117  0.0220  0.1231  0.0584
  163loPI   GL1 2597  11.304  14.622   9.901 -0.0173  0.1408  0.4273
  163loPI   GL2 2598  11.142  14.259   9.636 -0.0108 -0.3197  0.0110
  163loPI   C1A 2599  11.393  14.815   9.546  0.0947  0.0861 -0.1893
  163loPI   C2A 2600  11.193  14.852   9.196 -0.0489  0.2210 -0.2398
  163loPI   C3A 2601  11.158  14.768   8.745  0.0966  0.1592 -0.0063
  163loPI   C4A 2602  10.968  14.901   8.312  0.2223 -0.5127 -0.2125
  163loPI   C5A 2603  10.761  15.130   8.040  0.1500 -0.0210 -0.2910
  163loPI   C6A 2604  10.647  15.490   7.753 -0.1129 -0.1046  0.3476
  163loPI   C1B 2605  11.168  14.303   9.180 -0.0160 -0.2753  0.0801
  163loPI   C2B 2606  11.298  14.269   8.758  0.2322 -0.2142 -0.0043
  163loPI   C3B 2607  11.273  13.986   8.393  0.2130  0.1233  0.1666
  163loPI   C4B 2608  11.415  13.696   8.048 -0.1459  0.0447 -0.1654
  164loPI    C1 2609   9.500   6.972  10.285 -0.0894 -0.1731 -0.1526
  164loPI    C2 2610   9.217   6.795  10.065 -0.1887 -0.2963  0.0711
  164loPI    C3 2611   9.223   6.743  10.461 -0.1647  0.1287  0.1301
  164loPI   PO4 2612   9.597   7.098  10.135 -0.0248 -0.0367  0.0824
  164loPI   GL1 2613   9.623   6.821   9.744  0.1360 -0.2481  0.3038
  164loPI   GL2 2614   9.785   6.731   9.520 -0.1004 -0.0351 -0.2537
  164loPI   C1A 2615   9.302   6.895   9.523  0.0459 -0.1074  0.0457
  164loPI   C2A 2616   9.397   6.829   9.169 -0.0920  0.0612  0.0982
  164loPI   C3A 2617   9.457   6.916   8.764 -0.0303  0.1106  0.0962
  164loPI   C4A 2618   9.558   6.906   8.331 -0.1854 -0.0172 -0.1565
  164loPI   C5A 2619   9.708   6.958   7.962  0.1324 -0.0372  0.0031
  164loPI   C6A 2620   9.844   7.017   7.616  0.0288  0.2983  0.0383
  164loPI   C1B 2621   9.916   6.813   9.100 -0.0202  0.0287 -0.0707
  164loPI   C2B 2622   9.994   6.792   8.577  0.0887  0.0392  0.2066
  164loPI   C3B 2623  10.082   6.631   8.150 -0.3482 -0.1262 -0.0640
  164loPI   C4B 2624  10.072   6.308   7.973 -0.0988 -0.0278 -0.0998
  165loPI    C1 2625   5.367   2.625  10.470  0.0519 -0.0421 -0.1103
  165loPI    C2 2626   5.047   2.653  10.709  0.0672  0.2498 -0.1199
  165loPI    C3 2627   5.406   2.566  10.864 -0.0426 -0.2561 -0.1320
  165loPI   PO4 2628   5.177   2.703  10.238  0.2271  0.0451 -0.1370
  165loPI   GL1 2629   4.942   2.414   9.888 -0.0431 -0.2946  0.1334
  165loPI   GL2 2630   4.700   2.600   9.826  0.0552  0.0139 -0.1876
  165loPI   C1A 2631   4.917   2.471   9.405 -0.0064 -0.1090 -0.2463
  165loPI   C2A 2632   4.900   2.834   9.035  0.2941 -0.1274  0.1090
  165loPI   C3A 2633   4.601   3.008   8.760  0.1290  0.1398 -0.0097
  165loPI   C4A 2634   4.335   3.320   8.671  0.3080 -0.0140  0.2256
  165loPI   C5A 2635   3.900   3.500   8.478 -0.4800 -0.1040  0.1610
  165loPI   C6A 2636   3.621   3.665   8.471  0.1462 -0.2795 -0.3420
  165loPI   C1B 2637   4.521   3.031   9.882 -0.0044  0.1398  0.0416
  165loPI   C2B 2638   4.140   3.053   9.853  0.0834  0.1172  0.3446
  165loPI   C3B 2639   3.958   3.001   9.513 -0.2412  0.1773  0.0336
  165loPI   C4B 2640   3.517   3.063   9.611  0.1739  0.1470 -0.0249
  166loPI    C1 2641   0.201  12.272  10.078  0.1170  0.1411 -0.0058
  166loPI    C2 2642   0.412  12.598  10.176  0.0325  0.1163  0.2664
  166loPI    C3 2643   0.334  12.320  10.452 -0.0495 -0.0493  0.0790
  166loPI   PO4 2644   0.251  12.332   9.794  0.0765  0.1489 -0.3473
  166loPI   GL1 2645   0.389  12.178   9.441  0.0626  0.1554 -0.1591
  166loPI   GL2 2646   0.688  12.153   9.344 -0.0232  0.1544 -0.2170
  166loPI   C1A 2647   0.179  12.285   9.069  0.0952  0.0177  0.0583
  166loPI   C2A 2648   0.023  12.275   8.673 -0.1222  0.0898  0.0885
  166loPI   C3A 2649   0.024  12.179   8.238  0.1893 -0.0236  0.1594
  166loPI   C4A 2650  -0.149  11.802   7.921 -0.0378 -0.0255  0.0747
  166loPI   C5A 2651  -0.260  11.458   7.600  0.0527 -0.0169  0.0518
  166loPI   C6A 2652  -0.527  11.167   7.415  0.1749 -0.0447 -0.0100
  166loPI   C1B 2653   0.575  12.243   8.858 -0.0638  0.0651 -0.0635
  166loPI   C2B 2654   0.484  12.266   8.367 -0.0248  0.1978  0.1433
  166loPI   C3B 2655   0.316  12.120   7.909 -0.0176  0.3142  0.0170
  166loPI   C4B 2656   0.267  11.836   7.600 -0.3477 -0.2355 -0.1601
  167loPI    C1 2657   5.184   4.821  10.160  0.2191 -0.0041 -0.0695
  167loPI    C2 2658   4.965   4.677  10.462  0.1443  0.0299 -0.1072
  167loPI    C3 2659   5.267   4.461  10.313  0.1603 -0.0013 -0.0303
  167loPI   PO4 2660   5.011   4.857   9.982 -0.0737  0.0377 -0.2599
  167loPI   GL1 2661   4.914   4.773   9.698 -0.2469 -0.1759  0.1148
  167loPI   GL2 2662   4.850   4.980   9.513  0.0673  0.2674  0.0636
  167loPI   C1A 2663   4.637   4.378   9.508 -0.3956 -0.0583 -0.0119
  167loPI   C2A 2664   4.352   4.178   9.320  0.2145  0.2639  0.3508
  167loPI   C3A 2665   4.176   4.326   8.998  0.0461 -0.1830  0.1841
  167loPI   C4A 2666   4.346   4.371   8.580  0.0278 -0.2087 -0.2631
  167loPI   C5A 2667   4.546   4.162   8.256 -0.0237  0.2769  0.0279
  167loPI   C6A 2668   4.694   3.576   8.220 -0.0853 -0.1953  0.2825
  167loPI   C1B 2669   4.707   5.015   9.083  0.0629 -0.1405  0.0263
  167loPI   C2B 2670   4.749   5.491   8.876  0.0159  0.0045 -0.2835
  167loPI   C3B 2671   4.986   5.717   8.603 -0.1897 -0.1118 -0.1790
  167loPI   C4B 2672   5.136   5.847   8.273  0.3174  0.1351 -0.1868
  168loPI    C1 2673  13.015   1.415  10.581 -0.0402  0.2340  0.0434
  168loPI    C2 2674  13.397   1.444  10.465  0.0402 -0.0560  0.2252
  168loPI    C3 2675  13.300   1.495  10.850 -0.0664 -0.2493  0.2258
  168loPI   PO4 2676  12.882   1.602  10.354 -0.0518  0.0032  0.0847
  168loPI   GL1 2677  12.833   1.360   9.957  0.0026 -0.1977 -0.0914
  168loPI   GL2 2678  12.997   1.170   9.940 -0.1507  0.0721  0.1378
  168loPI   C1A 2679  12.896   1.556   9.540  0.1845  0.1759 -0.0356
  168loPI   C2A 2680  13.227   1.435   9.290  0.0546 -0.2264  0.2301
  168loPI   C3A 2681  13.349   1.146   9.055 -0.0644  0.0413  0.1629
  168loPI   C4A 2682  13.156   1.202   8.683 -0.1863  0.1023 -0.0552
  168loPI   C5A 2683  13.093   1.102   8.233 -0.0491 -0.0038  0.4544
  168loPI   C6A 2684  13.080   0.959   7.747  0.1409 -0.2977 -0.2929
  168loPI   C1B 2685  13.337   1.169   9.648  0.1112 -0.0755  0.3706
  168loPI   C2B 2686  13.592   0.882   9.384  0.1104  0.1961  0.3623
  168loPI   C3B 2687  13.486   0.685   8.972  0.3967 -0.1196 -0.0453
  168loPI   C4B 2688  13.415   0.783   8.565 -0.0567 -0.1620  0.0335
  169loPI    C1 2689  12.524   4.016  10.150  0.2668 -0.0314 -0.1654
  169loPI    C2 2690  12.150   4.151  10.186  0.2288 -0.1417 -0.1426
  169loPI    C3 2691  12.457   4.407  10.203  0.1619 -0.0682 -0.0222
  169loPI   PO4 2692  12.463   3.869   9.820  0.1589 -0.0892  0.1999
  169loPI   GL1 2693  12.650   3.626   9.454 -0.0862  0.2586  0.1364
  169loPI   GL2 2694  12.647   3.390   9.429 -0.0044 -0.0902  0.5063
  169loPI   C1A 2695  12.511   3.688   9.037 -0.1140 -0.1953  0.2069
  169loPI   C2A 2696  12.683   3.740   8.623  0.2698  0.4416  0.0443
  169loPI   C3A 2697  12.931   3.979   8.391  0.2417  0.1045 -0.1367
  169loPI   C4A 2698  12.741   4.068   8.001  0.3107 -0.0105 -0.2220
  169loPI   C5A 2699  12.487   4.189   7.672 -0.2002  0.1062  0.2948
  169loPI   C6A 2700  12.305   4.277   7.399 -0.0570 -0.0066 -0.1683
  169loPI   C1B 2701  12.639   3.234   8.974  0.0223 -0.3710  0.0952
  169loPI   C2B 2702  12.640   3.267   8.496  0.2240  0.1696  0.0655
  169loPI   C3B 2703  12.857   3.371   8.174  0.0054  0.0687 -0.3773
  169loPI   C4B 2704  13.078   3.689   8.018  0.3040  0.4117 -0.4952
  170loPI    C1 2705   7.516  13.337  10.873 -0.0526 -0.1343 -0.1966
  170loPI    C2 2706   7.866  13.240  11.041 -0.0591  0.1485 -0.0137
  170loPI    C3 2707   7.535  13.037  11.137  0.0426 -0.0820 -0.1434
  170loPI   PO4 2708   7.657  13.316  10.549  0.1234  0.2985  0.0355
  170loPI   GL1 2709   7.553  13.355  10.049 -0.0358 -0.0433  0.0594
  170loPI   GL2 2710   7.398  13.599  10.174  0.2028 -0.0913  0.0735
  170loPI   C1A 2711   7.240  13.258   9.735  0.0667  0.0999  0.2462
  170loPI   C2A 2712   7.167  13.194   9.357  0.0272 -0.1035  0.2072
  170loPI   C3A 2713   6.977  13.178   8.919  0.1473  0.1295 -0.1138
  170loPI   C4A 2714   7.142  13.403   8.534  0.5172 -0.0002 -0.0798
  170loPI   C5A 2715   6.985  13.573   8.123 -0.0798  0.0363 -0.1196
  170loPI   C6A 2716   6.907  13.914   7.989 -0.1178  0.0800  0.2085
  170loPI   C1B 2717   7.306  13.735   9.748 -0.0833 -0.1637  0.0583
  170loPI   C2B 2718   7.363  13.609   9.343 -0.5840  0.2296 -0.0036
  170loPI   C3B 2719   7.238  13.639   8.950 -0.1194 -0.1298  0.0648
  170loPI   C4B 2720   7.184  13.863   8.549 -0.1340 -0.1286 -0.0572
  171loPI    C1 2721  13.377   8.986  10.165 -0.1285  0.1542 -0.0826
  171loPI    C2 2722  13.182   8.678  10.330  0.1521  0.0378  0.0382
  171loPI    C3 2723  13.387   8.932  10.561  0.0794  0.2052 -0.0794
  171loPI   PO4 2724  13.202   8.905   9.861 -0.4034 -0.3129 -0.3043
  171loPI   GL1 2725  12.982   8.791   9.531  0.0184 -0.1035  0.1005
  171loPI   GL2 2726  12.558   8.755   9.530 -0.1728 -0.3052 -0.0415
  171loPI   C1A 2727  13.059   9.210   9.246 -0.0881 -0.3854 -0.0621
  171loPI   C2A 2728  13.023   9.289   8.810 -0.1356  0.0623  0.0192
  171loPI   C3A 2729  12.716   9.226   8.494 -0.0987 -0.0081  0.0127
  171loPI   C4A 2730  12.525   8.972   8.197 -0.1375  0.1155 -0.0484
  171loPI   C5A 2731  12.108   9.128   8.014 -0.1640 -0.0333 -0.1345
  171loPI   C6A 2732  11.760   9.532   8.103  0.2682 -0.1826  0.0259
  171loPI   C1B 2733  12.526   9.077   9.226  0.3173 -0.1835 -0.1722
  171loPI   C2B 2734  12.391   8.931   8.804  0.0398  0.2674  0.2983
  171loPI   C3B 2735  12.127   9.071   8.492  0.0697 -0.1849 -0.0921
  171loPI   C4B 2736  12.188   9.515   8.351 -0.0419 -0.3157 -0.3257
  172loPI    C1 2737   7.491   8.511  10.294  0.0988 -0.0635 -0.1380
  172loPI    C2 2738   7.590   8.888  10.381  0.2216 -0.1073 -0.0845
  172loPI    C3 2739   7.545   8.621  10.675 -0.0928 -0.0807 -0.1050
  172loPI   PO4 2740   7.396   8.345  10.137  0.0261  0.1271 -0.0804
  172loPI   GL1 2741   7.448   8.428   9.733 -0.2300  0.1831  0.1403
  172loPI   GL2 2742   7.744   8.385   9.827 -0.0201 -0.1676  0.0538
  172loPI   C1A 2743   7.324   8.625   9.293 -0.0608 -0.0755 -0.2004
  172loPI   C2A 2744   7.270   8.554   8.910 -0.0382  0.1270  0.1824
  172loPI   C3A 2745   7.064   8.382   8.550 -0.1972  0.0188 -0.1083
  172loPI   C4A 2746   6.851   8.036   8.416  0.1384  0.0510 -0.0783
  172loPI   C5A 2747   6.996   7.686   8.146 -0.1259  0.0492 -0.0369
  172loPI   C6A 2748   7.268   7.593   7.891  0.1378  0.2035 -0.0084
  172loPI   C1B 2749   7.824   8.412   9.384  0.0827 -0.1671 -0.1728
  172loPI   C2B 2750   7.773   8.464   9.011  0.3210 -0.1380  0.0388
  172loPI   C3B 2751   7.647   8.471   8.550 -0.0637 -0.0929 -0.1797
  172loPI   C4B 2752   7.592   8.566   8.122 -0.3029  0.0468 -0.2322
  173loPI    C1 2753   2.624  17.550  10.229  0.3073 -0.0590  0.0141
  173loPI    C2 2754   2.578  17.156  10.278 -0.2002 -0.0223 -0.1063
  173loPI    C3 2755   2.435  17.409  10.552  0.0782  0.0829 -0.0552
  173loPI   PO4 2756   2.838  17.528  10.015  0.2172 -0.0074 -0.2244
  173loPI   GL1 2757   2.728  17.651   9.755 -0.0024  0.1194  0.1484
  173loPI   GL2 2758   2.552  17.962   9.909 -0.2402 -0.0124 -0.2400
  173loPI   C1A 2759   2.886  17.642   9.225 -0.0551 -0.0775 -0.2189
  173loPI   C2A 2760   3.075  18.018   9.089  0.0660  0.0596 -0.0712
  173loPI   C3A 2761   3.383  18.017   8.809  0.1299  0.0060 -0.4788
  173loPI   C4A 2762   3.395  18.155   8.463  0.2398  0.2820  0.4381
  173loPI   C5A 2763   3.380  18.487   8.153 -0.2504 -0.0101  0.2479
  173loPI   C6A 2764   3.229  18.543   7.751 -0.2674 -0.2907  0.0519
  173loPI   C1B 2765   2.641  18.227   9.604  0.1999 -0.1106 -0.1169
  173loPI   C2B 2766   2.686  18.393   9.310 -0.2694  0.2620  0.2966
  173loPI   C3B 2767   2.802  18.407   8.880  0.5095 -0.1660 -0.1199
  173loPI   C4B 2768   2.928  18.023   8.597  0.2231 -0.0699 -0.0537
  174loPI    C1 2769  17.792  10.692   9.744  0.0770  0.0316  0.0934
  174loPI    C2 2770  17.708  10.972  10.016 -0.0340  0.0208  0.0707
  174loPI    C3 2771  18.005  10.712  10.082  0.2663  0.3283 -0.0397
  174loPI   PO4 2772  17.799  10.812   9.549  0.0505 -0.0105  0.0241
  174loPI   GL1 2773  17.670  10.895   9.226  0.2094 -0.1832 -0.0965
  174loPI   GL2 2774  17.609  11.219   9.165  0.1450 -0.2000  0.4456
  174loPI   C1A 2775  17.439  10.861   8.815  0.0773  0.1485  0.0481
  174loPI   C2A 2776  17.338  10.802   8.425  0.1217  0.1520 -0.3909
  174loPI   C3A 2777  17.105  11.015   8.065 -0.0862  0.0233 -0.0153
  174loPI   C4A 2778  16.965  10.945   7.698  0.0689  0.1494  0.1409
  174loPI   C5A 2779  16.784  10.597   7.609 -0.1954  0.2199  0.1908
  174loPI   C6A 2780  16.761  10.211   7.860 -0.0755  0.1754  0.0984
  174loPI   C1B 2781  17.392  11.351   8.843 -0.1379  0.2038 -0.2722
  174loPI   C2B 2782  17.232  11.330   8.418 -0.2128  0.1069 -0.4505
  174loPI   C3B 2783  16.891  11.444   8.112  0.0382 -0.2536 -0.2286
  174loPI   C4B 2784  16.640  11.335   7.758  0.2724 -0.0183  0.1811
  175loPI    C1 2785   3.798  15.198  10.226 -0.1021  0.0758  0.3306
  175loPI    C2 2786   3.705  14.969  10.540  0.0387 -0.2964  0.1072
  175loPI    C3 2787   4.088  15.031  10.444  0.0022  0.0342  0.1612
  175loPI   PO4 2788   3.669  15.279  10.158  0.1484 -0.0298  0.0831
  175loPI   GL1 2789   3.528  15.481   9.799 -0.1212  0.0518 -0.5243
  175loPI   GL2 2790   3.326  15.278   9.764  0.2195  0.0603  0.2004
  175loPI   C1A 2791   3.590  15.766   9.564  0.1371 -0.1148  0.3203
  175loPI   C2A 2792   3.668  15.739   9.154  0.0544 -0.0135  0.1217
  175loPI   C3A 2793   3.352  15.834   8.822  0.3553 -0.0199 -0.1958
  175loPI   C4A 2794   3.347  15.962   8.390 -0.2460  0.3162  0.0660
  175loPI   C5A 2795   3.523  15.836   8.040 -0.2882  0.0899 -0.0094
  175loPI   C6A 2796   3.929  15.674   7.899  0.0201 -0.4175 -0.1157
  175loPI   C1B 2797   3.403  15.241   9.347  0.4283  0.0794  0.1683
  175loPI   C2B 2798   3.712  15.044   9.050  0.0473  0.1571 -0.2334
  175loPI   C3B 2799   3.781  14.896   8.640 -0.0022  0.2498  0.0193
  175loPI   C4B 2800   3.722  14.810   8.288  0.1854  0.0095  0.0270
  176loPI    C1 2801  11.028  16.657  10.182  0.0277 -0.0070 -0.1613
  176loPI    C2 2802  10.732  16.413  10.294  0.0413 -0.0411 -0.1988
  176loPI    C3 2803  10.649  16.787  10.178  0.0043 -0.0776 -0.2906
  176loPI   PO4 2804  11.231  16.510  10.409  0.2372 -0.0710 -0.2085
  176loPI   GL1 2805  11.589  16.374  10.135 -0.4922  0.0078  0.2490
  176loPI   GL2 2806  11.479  16.601   9.953  0.1409  0.5089  0.0312
  176loPI   C1A 2807  11.569  16.056   9.788 -0.0809  0.3818  0.0458
  176loPI   C2A 2808  11.678  15.945   9.394 -0.0414  0.0678 -0.0183
  176loPI   C3A 2809  11.631  15.733   8.998 -0.1665 -0.1945 -0.0159
  176loPI   C4A 2810  11.586  15.556   8.548 -0.2833  0.3265  0.1046
  176loPI   C5A 2811  11.705  15.453   8.139  0.0472  0.4053 -0.1061
  176loPI   C6A 2812  11.898  15.097   7.882  0.1368  0.1644  0.1124
  176loPI   C1B 2813  11.509  16.842   9.620  0.0614 -0.1169 -0.3027
  176loPI   C2B 2814  11.617  17.273   9.361  0.0349  0.1281 -0.0010
  176loPI   C3B 2815  11.733  17.430   8.984 -0.4309  0.0085  0.0204
  176loPI   C4B 2816  11.752  17.129   8.701  0.1518 -0.0358 -0.0586
  177loPI    C1 2817  13.643   3.962   9.915 -0.0424 -0.2413  0.0653
  177loPI    C2 2818  13.504   4.045  10.281  0.0115  0.1373  0.0039
  177loPI    C3 2819  13.897   4.062  10.207 -0.0009  0.0809 -0.0762
  177loPI   PO4 2820  13.469   3.989   9.737  0.0113 -0.0053 -0.2294
  177loPI   GL1 2821  13.536   3.916   9.220 -0.0066 -0.0768 -0.0250
  177loPI   GL2 2822  13.758   4.143   9.362  0.0247 -0.1365 -0.2075
  177loPI   C1A 2823  13.396   4.201   9.062  0.2132  0.2133 -0.1606
  177loPI   C2A 2824  13.225   4.322   8.687  0.1840 -0.2227 -0.1191
  177loPI   C3A 2825  13.099   4.359   8.171  0.1058 -0.1575  0.1068
  177loPI   C4A 2826  13.071   4.366   7.745  0.0274  0.0064  0.1453
  177loPI   C5A 2827  13.348   4.381   7.371 -0.1331  0.0404  0.2143
  177loPI   C6A 2828  13.805   4.278   7.334 -0.3136  0.0651 -0.2633
  177loPI   C1B 2829  14.006   3.954   9.014  0.1437 -0.0272 -0.2419
  177loPI   C2B 2830  14.092   3.856   8.592 -0.0200  0.2576 -0.1188
  177loPI   C3B 2831  14.141   3.912   8.152  0.1051  0.0665  0.0925
  177loPI   C4B 2832  14.017   4.081   7.747  0.2174  0.1449  0.0746
  178loPI    C1 2833  17.543   1.824  10.195 -0.2591 -0.0147  0.0345
  178loPI    C2 2834  17.782   2.038  10.435  0.0219 -0.1995 -0.0761
  178loPI    C3 2835  17.419   1.929  10.561 -0.0598  0.1974  0.0441
  178loPI   PO4 2836  17.580   1.708  10.090  0.1312  0.2236  0.2924
  178loPI   GL1 2837  17.446   1.598   9.736  0.2728  0.0150  0.2370
  178loPI   GL2 2838  17.150   1.462   9.773  0.1956 -0.0454 -0.1518
  178loPI   C1A 2839  17.761   1.484   9.337 -0.0764 -0.0764  0.0432
  178loPI   C2A 2840  17.830   1.668   8.950 -0.1308  0.0385 -0.0272
  178loPI   C3A 2841  17.886   1.596   8.515 -0.1777  0.2835  0.1003
  178loPI   C4A 2842  18.008   1.311   8.139  0.0610  0.2115  0.1123
  178loPI   C5A 2843  18.070   0.800   8.131  0.1503 -0.0139 -0.1650
  178loPI   C6A 2844  18.205   0.412   8.210  0.2049 -0.0118 -0.0534
  178loPI   C1B 2845  17.281   1.234   9.386  0.3387 -0.1250 -0.0294
  178loPI   C2B 2846  17.389   1.372   9.034 -0.1323 -0.1283 -0.0301
  178loPI   C3B 2847  17.393   1.639   8.640 -0.0658  0.0353 -0.1479
  178loPI   C4B 2848  17.238   1.669   8.248  0.2270 -0.0662  0.0129
  179loPI    C1 2849  16.537   6.278  10.223 -0.2799  0.0881  0.0266
  179loPI    C2 2850  16.310   6.157   9.916 -0.2468  0.1674 -0.0296
  179loPI    C3 2851  16.250   6.006  10.282 -0.0951 -0.1449 -0.1299
  179loPI   PO4 2852  16.816   6.250  10.090  0.1625 -0.0494  0.0325
  179loPI   GL1 2853  16.765   6.305   9.574  0.3655 -0.2019 -0.0127
  179loPI   GL2 2854  16.828   6.651   9.453  0.0424 -0.1681  0.1164
  179loPI   C1A 2855  16.734   6.191   9.194 -0.3083  0.0435 -0.0770
  179loPI   C2A 2856  16.881   6.195   8.854  0.0601 -0.0986  0.1176
  179loPI   C3A 2857  17.051   6.116   8.401 -0.2517  0.1890 -0.0144
  179loPI   C4A 2858  17.008   6.007   8.026 -0.0847 -0.0534  0.0071
  179loPI   C5A 2859  17.321   5.918   7.737 -0.1357 -0.1736 -0.0522
  179loPI   C6A 2860  17.521   6.177   7.509  0.0606  0.0310 -0.2787
  179loPI   C1B 2861  16.914   6.599   9.027  0.0771 -0.3094  0.1431
  179loPI   C2B 2862  16.923   6.550   8.551  0.0068 -0.3087 -0.1862
  179loPI   C3B 2863  17.208   6.591   8.265  0.3166 -0.1047 -0.1395
  179loPI   C4B 2864  17.528   6.390   8.005 -0.2220  0.3338  0.2356
  180loPI    C1 2865  11.413  11.363  10.538 -0.0675  0.1690  0.5524
  180loPI    C2 2866  11.663  11.091  10.690 -0.1167 -0.1620  0.0651
  180loPI    C3 2867  11.807  11.430  10.535  0.0242 -0.3007 -0.1115
  180loPI   PO4 2868  11.332  11.342  10.324 -0.1491  0.1782 -0.2576
  180loPI   GL1 2869  11.306  11.553   9.892 -0.1619 -0.0800 -0.3619
  180loPI   GL2 2870  11.387  11.774   9.759  0.0408 -0.1527  0.0358
  180loPI   C1A 2871  11.060  11.409   9.565 -0.1826  0.1286 -0.2232
  180loPI   C2A 2872  11.034  11.357   9.228  0.2260 -0.0733 -0.0916
  180loPI   C3A 2873  11.016  11.350   8.745  0.0379  0.0164  0.2844
  180loPI   C4A 2874  11.073  11.560   8.302  0.1974 -0.0711 -0.2705
  180loPI   C5A 2875  11.127  11.813   7.893 -0.0842 -0.0859  0.1381
  180loPI   C6A 2876  10.783  12.116   7.848 -0.0117  0.2985 -0.0597
  180loPI   C1B 2877  11.486  11.588   9.347 -0.0766  0.1188 -0.0755
  180loPI   C2B 2878  11.521  11.536   8.897  0.1402 -0.1288  0.1264
  180loPI   C3B 2879  11.524  11.410   8.576 -0.1035 -0.1064 -0.0904
  180loPI   C4B 2880  11.332  11.081   8.214  0.5241 -0.1656 -0.2840
  181loPI    C1 2881   5.369  12.934  10.262  0.1069 -0.1548 -0.1669
  181loPI    C2 2882   5.570  12.760  10.561  0.1588  0.2421  0.0362
  181loPI    C3 2883   5.713  12.744  10.187  0.1497 -0.1636  0.0465
  181loPI   PO4 2884   5.138  12.776  10.319  0.2335  0.0998  0.1561
  181loPI   GL1 2885   5.000  12.444  10.022  0.2757  0.0893  0.0139
  181loPI   GL2 2886   5.105  12.213   9.779  0.3227 -0.2357  0.2146
  181loPI   C1A 2887   4.829  12.627   9.601 -0.2332  0.1266  0.0103
  181loPI   C2A 2888   4.757  12.614   9.129 -0.0769 -0.0459 -0.1319
  181loPI   C3A 2889   4.771  12.527   8.681 -0.0883 -0.1495 -0.0838
  181loPI   C4A 2890   4.681  12.720   8.211  0.3226  0.3344 -0.3420
  181loPI   C5A 2891   4.372  12.771   7.890 -0.3412  0.3383 -0.0125
  181loPI   C6A 2892   4.160  12.411   7.918 -0.2364 -0.0582 -0.2685
  181loPI   C1B 2893   5.207  12.440   9.350  0.0313 -0.2256  0.2136
  181loPI   C2B 2894   5.246  12.662   8.904 -0.0221  0.2506  0.0107
  181loPI   C3B 2895   5.395  12.591   8.570  0.1632  0.0162  0.0384
  181loPI   C4B 2896   5.409  12.657   8.114 -0.0368 -0.1626 -0.3556
  182loPI    C1 2897   7.178  13.421  10.589  0.1342 -0.1686  0.1436
  182loPI    C2 2898   6.849  13.383  10.813 -0.1310  0.1523 -0.1788
  182loPI    C3 2899   7.015  13.743  10.762 -0.0006  0.0630 -0.3948
  182loPI   PO4 2900   7.050  13.335  10.365  0.1996  0.0603  0.0949
  182loPI   GL1 2901   6.772  13.400  10.041 -0.0318  0.1684  0.0414
  182loPI   GL2 2902   6.674  13.653  10.203  0.0050  0.0590 -0.2271
  182loPI   C1A 2903   6.746  13.495   9.586 -0.2085 -0.0465 -0.2403
  182loPI   C2A 2904   6.764  13.533   9.136 -0.3459  0.2818 -0.0848
  182loPI   C3A 2905   6.737  13.653   8.733 -0.1398  0.0182  0.3898
  182loPI   C4A 2906   6.514  13.743   8.418  0.3517 -0.0771 -0.1497
  182loPI   C5A 2907   6.348  14.030   8.057 -0.0701 -0.0461  0.0171
  182loPI   C6A 2908   6.518  14.480   7.960  0.0054  0.1840  0.0084
  182loPI   C1B 2909   6.688  13.921   9.879 -0.0546 -0.0368 -0.2710
  182loPI   C2B 2910   6.486  14.178   9.545 -0.0192 -0.3629 -0.1474
  182loPI   C3B 2911   6.496  14.168   9.104  0.1600  0.0860  0.1301
  182loPI   C4B 2912   6.459  14.119   8.798  0.1180 -0.4269 -0.2948
  183loPI    C1 2913  11.974  17.806  10.378 -0.1133 -0.0821 -0.0345
  183loPI    C2 2914  11.886  18.191  10.313  0.0356 -0.0591 -0.1029
  183loPI    C3 2915  11.601  17.939  10.436 -0.0191  0.1147  0.1336
  183loPI   PO4 2916  12.230  17.842  10.375 -0.0574 -0.1955 -0.1373
  183loPI   GL1 2917  12.471  17.892  10.102 -0.0773 -0.0798  0.0404
  183loPI   GL2 2918  12.203  18.027   9.952  0.0862  0.0430 -0.0287
  183loPI   C1A 2919  12.461  17.659   9.742 -0.1500  0.2573 -0.4849
  183loPI   C2A 2920  12.548  17.674   9.234 -0.3606  0.0607 -0.0904
  183loPI   C3A 2921  12.495  17.610   8.854  0.4463  0.2013  0.2392
  183loPI   C4A 2922  12.163  17.662   8.569 -0.1777  0.0002 -0.0792
  183loPI   C5A 2923  11.807  17.766   8.348 -0.1673 -0.1393  0.2123
  183loPI   C6A 2924  11.492  17.724   8.030 -0.1413  0.0921 -0.1173
  183loPI   C1B 2925  12.167  18.043   9.501 -0.0555 -0.3344 -0.2376
  183loPI   C2B 2926  12.126  17.946   9.049  0.0875  0.2465 -0.0373
  183loPI   C3B 2927  11.794  18.024   8.785  0.1306  0.0506  0.3218
  183loPI   C4B 2928  11.422  17.950   8.964 -0.0906  0.2342 -0.1750
  184loPI    C1 2929  16.933  12.874   9.945  0.1366 -0.1262 -0.1662
  184loPI    C2 2930  16.942  12.769   9.559  0.0015 -0.1428 -0.1653
  184loPI    C3 2931  16.685  12.591   9.809 -0.0012 -0.0410 -0.0948
  184loPI   PO4 2932  16.807  13.132   9.964  0.1798  0.0196 -0.1993
  184loPI   GL1 2933  16.762  13.398   9.747  0.3384 -0.3076  0.0397
  184loPI   GL2 2934  16.593  13.597   9.545 -0.1366  0.0822  0.2760
  184loPI   C1A 2935  16.864  13.269   9.326  0.3361  0.2533 -0.1340
  184loPI   C2A 2936  16.799  13.230   8.968  0.0363  0.0033 -0.1971
  184loPI   C3A 2937  16.861  13.509   8.650  0.1257 -0.3180 -0.3783
  184loPI   C4A 2938  16.854  13.834   8.356 -0.4289 -0.4310 -0.2258
  184loPI   C5A 2939  16.800  14.180   8.126 -0.2060 -0.0431 -0.0458
  184loPI   C6A 2940  16.550  14.494   8.020 -0.0926 -0.0414  0.1167
  184loPI   C1B 2941  16.928  13.789   9.447  0.0721 -0.1685 -0.0542
  184loPI   C2B 2942  17.231  13.579   9.063  0.1084  0.0038 -0.2497
  184loPI   C3B 2943  17.486  13.538   8.722  0.2650 -0.0554 -0.0435
  184loPI   C4B 2944  17.456  13.470   8.289 -0.0781  0.4303  0.1221
  185loPI    C1 2945   4.990   8.582  10.236  0.0271  0.0202 -0.1480
  185loPI    C2 2946   4.657   8.388  10.341 -0.0295  0.2146  0.0409
  185loPI    C3 2947   4.829   8.642  10.597  0.1174  0.3136 -0.1534
  185loPI   PO4 2948   5.249   8.441  10.087  0.2884  0.0886 -0.2588
  185loPI   GL1 2949   5.270   8.365   9.685 -0.2427 -0.0762  0.2128
  185loPI   GL2 2950   5.513   8.027   9.655 -0.0870 -0.3598 -0.1785
  185loPI   C1A 2951   5.101   8.294   9.276  0.0394  0.1789 -0.0521
  185loPI   C2A 2952   5.132   8.369   8.768 -0.1589 -0.2239 -0.1880
  185loPI   C3A 2953   5.325   8.363   8.467  0.3528 -0.0542 -0.0696
  185loPI   C4A 2954   5.623   8.444   8.159 -0.3741  0.2046  0.0417
  185loPI   C5A 2955   5.990   8.457   8.022  0.0413  0.0066  0.2879
  185loPI   C6A 2956   6.096   8.470   7.623  0.2648 -0.0290 -0.0741
  185loPI   C1B 2957   5.757   7.963   9.246 -0.0535  0.0219 -0.0862
  185loPI   C2B 2958   6.014   7.884   8.997  0.3257 -0.1886 -0.1091
  185loPI   C3B 2959   5.945   7.738   8.638 -0.0243 -0.1262  0.2098
  185loPI   C4B 2960   6.332   7.696   8.384  0.3706  0.0102 -0.1379
  186loPI    C1 2961   5.233   9.354  10.375 -0.1564 -0.0196 -0.2609
  186loPI    C2 2962   5.235   8.967  10.474  0.0709  0.0300 -0.0609
  186loPI    C3 2963   4.891   9.147  10.377 -0.0671 -0.1699  0.0491
  186loPI   PO4 2964   5.422   9.425  10.113  0.2529 -0.0728 -0.0066
  186loPI   GL1 2965   5.553   9.177   9.864 -0.0089 -0.0389 -0.0467
  186loPI   GL2 2966   5.563   8.873  10.063  0.1445 -0.0559 -0.1129
  186loPI   C1A 2967   5.340   9.382   9.443  0.3775  0.0225 -0.3295
  186loPI   C2A 2968   5.262   9.303   8.999 -0.1492  0.0021  0.2519
  186loPI   C3A 2969   5.219   9.365   8.568 -0.0142 -0.0183 -0.0923
  186loPI   C4A 2970   5.102   9.386   8.197 -0.1384  0.2757 -0.0155
  186loPI   C5A 2971   5.037   9.536   7.802 -0.0758 -0.1965  0.0200
  186loPI   C6A 2972   5.057   9.973   7.690  0.1952 -0.1892  0.1718
  186loPI   C1B 2973   5.380   8.864   9.563  0.4165 -0.2634  0.0176
  186loPI   C2B 2974   5.276   8.777   9.125  0.3106 -0.0393 -0.2770
  186loPI   C3B 2975   5.432   8.858   8.753 -0.1585 -0.0496  0.1879
  186loPI   C4B 2976   5.390   8.921   8.286 -0.0616  0.0361  0.1885
  187loPI    C1 2977   7.373   5.351  10.183 -0.2594  0.1223 -0.3066
  187loPI    C2 2978   7.470   5.685   9.986  0.1463  0.3672  0.2788
  187loPI    C3 2979   7.345   5.706  10.366 -0.1523 -0.1276  0.2162
  187loPI   PO4 2980   7.390   5.136   9.980 -0.2292  0.1306 -0.1214
  187loPI   GL1 2981   7.657   5.361   9.657 -0.1409  0.0233  0.3006
  187loPI   GL2 2982   7.361   5.403   9.560 -0.1966  0.2569 -0.1267
  187loPI   C1A 2983   7.619   5.131   9.276  0.0011 -0.1063  0.1708
  187loPI   C2A 2984   7.483   5.050   8.790 -0.0612 -0.0683 -0.1191
  187loPI   C3A 2985   7.625   4.975   8.377  0.1169  0.0028 -0.0076
  187loPI   C4A 2986   7.593   4.816   7.884  0.1195  0.1498 -0.0859
  187loPI   C5A 2987   7.507   4.354   7.743 -0.1752  0.3528 -0.2045
  187loPI   C6A 2988   7.250   4.162   7.499 -0.0978 -0.0827 -0.1098
  187loPI   C1B 2989   7.170   5.402   9.086 -0.1446 -0.2396 -0.3201
  187loPI   C2B 2990   7.230   5.428   8.614  0.4824  0.0196 -0.2703
  187loPI   C3B 2991   7.146   5.410   8.186 -0.0833 -0.1439  0.0474
  187loPI   C4B 2992   7.289   5.723   7.843  0.0448  0.1277  0.0066
  188loPI    C1 2993  10.309  16.696  10.832 -0.2241 -0.0820 -0.0334
  188loPI    C2 2994  10.009  16.939  10.938 -0.0328  0.2511 -0.2396
  188loPI    C3 2995  10.042  16.577  11.105 -0.2673  0.4014  0.1448
  188loPI   PO4 2996  10.217  16.703  10.524 -0.3110 -0.0703  0.0645
  188loPI   GL1 2997   9.977  16.597  10.141 -0.0490 -0.0865  0.0869
  188loPI   GL2 2998  10.184  16.496  10.076  0.3432  0.2838 -0.1605
  188loPI   C1A 2999   9.830  16.372   9.752  0.0968  0.0326 -0.0267
  188loPI   C2A 3000   9.710  16.188   9.359 -0.1463 -0.1320 -0.1816
  188loPI   C3A 3001   9.647  16.084   8.987  0.3651  0.0100 -0.0369
  188loPI   C4A 3002   9.605  15.921   8.663  0.1531  0.1155  0.0919
  188loPI   C5A 3003   9.652  16.039   8.174 -0.3269  0.2429 -0.0994
  188loPI   C6A 3004   9.924  16.177   7.837 -0.3592  0.0359  0.2801
  188loPI   C1B 3005  10.389  16.685   9.674  0.0538 -0.0093  0.0822
  188loPI   C2B 3006  10.132  16.636   9.354  0.2861 -0.1732  0.1940
  188loPI   C3B 3007   9.841  16.558   9.032 -0.1409  0.2362 -0.0933
  188loPI   C4B 3008   9.609  16.452   8.688  0.4475  0.4120  0.0478
  189loPI    C1 3009  10.969   0.444  10.616  0.0613  0.2662 -0.0930
  189loPI    C2 3010  10.903   0.529  11.002 -0.0844 -0.0958 -0.0343
  189loPI    C3 3011  11.249   0.363  10.890 -0.1882 -0.3409 -0.0001
  189loPI   PO4 3012  10.711   0.256  10.531 -0.0208 -0.1588  0.1452
  189loPI   GL1 3013  10.417   0.400  10.274  0.0046 -0.3405 -0.0960
  189loPI   GL2 3014  10.674   0.541  10.124  0.0766  0.3094  0.3567
  189loPI   C1A 3015  10.389   0.619   9.740  0.3082  0.0948 -0.1734
  189loPI   C2A 3016  10.303   0.507   9.319 -0.0471  0.1574 -0.1485
  189loPI   C3A 3017  10.459   0.594   8.910  0.0466  0.1514 -0.1478
  189loPI   C4A 3018  10.528   0.821   8.531 -0.1216  0.0919  0.1280
  189loPI   C5A 3019  10.796   1.084   8.311 -0.0289 -0.2798 -0.1526
  189loPI   C6A 3020  11.046   1.044   7.917 -0.1739  0.0411 -0.1543
  189loPI   C1B 3021  11.020   0.447   9.749 -0.1987  0.0446  0.0265
  189loPI   C2B 3022  11.178   0.548   9.364 -0.0761  0.0363  0.0504
  189loPI   C3B 3023  11.123   0.385   8.916  0.0804 -0.1822  0.1798
  189loPI   C4B 3024  11.288   0.203   8.490  0.2522  0.1161 -0.0896
  190loPI    C1 3025   8.460  17.048  10.554 -0.0611 -0.1188  0.0682
  190loPI    C2 3026   8.535  16.937  10.931 -0.0725 -0.2208  0.0409
  190loPI    C3 3027   8.210  17.155  10.847 -0.0457 -0.1592  0.0962
  190loPI   PO4 3028   8.516  16.793  10.365  0.2038  0.1416 -0.1574
  190loPI   GL1 3029   8.390  16.596  10.075  0.1514  0.1647  0.1014
  190loPI   GL2 3030   8.103  16.459  10.215 -0.0908 -0.1446 -0.1124
  190loPI   C1A 3031   8.531  16.706   9.740 -0.2592 -0.1143  0.1140
  190loPI   C2A 3032   8.634  16.698   9.344  0.4327 -0.1669  0.1490
  190loPI   C3A 3033   8.819  16.680   8.905 -0.0924 -0.0276 -0.4071
  190loPI   C4A 3034   8.752  16.487   8.604 -0.1220  0.0684  0.0802
  190loPI   C5A 3035   8.624  16.251   8.207 -0.1046 -0.0453  0.0098
  190loPI   C6A 3036   8.375  15.863   8.126 -0.2207  0.0414  0.2497
  190loPI   C1B 3037   7.892  16.684   9.884 -0.1497  0.1635  0.0417
  190loPI   C2B 3038   7.707  17.050   9.731 -0.1869  0.1719 -0.1362
  190loPI   C3B 3039   7.475  17.140   9.306 -0.0589  0.0988  0.2563
  190loPI   C4B 3040   7.451  17.218   8.886 -0.2479  0.0817 -0.1777
  191loPI    C1 3041  14.298   8.663   9.870 -0.0566  0.0317 -0.1044
  191loPI    C2 3042  14.159   8.893  10.165  0.0193 -0.0080 -0.0375
  191loPI    C3 3043  14.058   8.972   9.786  0.1155  0.1888 -0.0239
  191loPI   PO4 3044  14.542   8.581  10.074 -0.1665 -0.0966 -0.0842
  191loPI   GL1 3045  14.813   8.542   9.754 -0.2278  0.0185  0.2545
  191loPI   GL2 3046  15.014   8.509   9.482  0.1410  0.2085  0.0949
  191loPI   C1A 3047  14.642   8.862   9.394 -0.0575  0.1838 -0.0571
  191loPI   C2A 3048  14.554   8.735   9.020  0.1970  0.1811  0.3931
  191loPI   C3A 3049  14.486   8.964   8.480  0.1739  0.0173 -0.3538
  191loPI   C4A 3050  14.071   9.019   8.229 -0.1001 -0.1752 -0.4363
  191loPI   C5A 3051  13.662   9.221   8.218  0.0433  0.3023 -0.2471
  191loPI   C6A 3052  13.322   9.055   7.908 -0.0297 -0.1288  0.0657
  191loPI   C1B 3053  15.030   8.527   9.076 -0.0349  0.1873  0.0124
  191loPI   C2B 3054  14.904   8.612   8.693  0.1162 -0.0791  0.0334
  191loPI   C3B 3055  14.964   8.671   8.257  0.0266  0.0520 -0.3805
  191loPI   C4B 3056  15.408   8.676   7.935 -0.0078 -0.1124 -0.1929
  192loPI    C1 3057   3.876  18.334  10.433 -0.3132 -0.3364  0.3193
  192loPI    C2 3058   4.127  18.297  10.743 -0.0388 -0.1362  0.1256
  192loPI    C3 3059   3.793  18.514  10.781  0.1299  0.1134  0.2034
  192loPI   PO4 3060   3.963  18.229  10.228  0.1190  0.0830  0.0269
  192loPI   GL1 3061   3.843  18.326   9.806  0.0717  0.1821 -0.1552
  192loPI   GL2 3062   3.677  18.596   9.603 -0.1662 -0.1069  0.0514
  192loPI   C1A 3063   3.960  17.939   9.498 -0.1078  0.0094 -0.1189
  192loPI   C2A 3064   3.871  17.670   9.161 -0.1390  0.0778 -0.0052
  192loPI   C3A 3065   3.815  17.697   8.779 -0.0973 -0.1313 -0.3401
  192loPI   C4A 3066   3.634  17.629   8.463 -0.1595  0.2372 -0.0118
  192loPI   C5A 3067   3.528  17.560   8.134  0.0970  0.1874  0.4202
  192loPI   C6A 3068   3.735  17.444   7.699 -0.1195  0.1589 -0.1246
  192loPI   C1B 3069   3.858  18.744   9.292 -0.0953  0.3995  0.0829
  192loPI   C2B 3070   3.885  18.898   8.861  0.4497 -0.0893  0.1564
  192loPI   C3B 3071   3.660  19.060   8.522  0.0588  0.5456 -0.0112
  192loPI   C4B 3072   3.535  19.197   8.120  0.1163  0.0616 -0.2810
  193loPI    C1 3073   2.456   4.700  10.408  0.1112 -0.0094 -0.1953
  193loPI    C2 3074   2.328   4.388  10.192  0.0297 -0.1354  0.0320
  193loPI    C3 3075   2.450   4.334  10.569  0.3112  0.0593 -0.0283
  193loPI   PO4 3076   2.651   4.788  10.316 -0.1041  0.1343 -0.1057
  193loPI   GL1 3077   2.605   4.980   9.931 -0.0612 -0.0600  0.0088
  193loPI   GL2 3078   2.302   4.752   9.833 -0.1446 -0.0331  0.0138
  193loPI   C1A 3079   2.837   4.857   9.611  0.1165 -0.2089 -0.0365
  193loPI   C2A 3080   2.985   5.028   9.217  0.2370  0.0355  0.2647
  193loPI   C3A 3081   3.111   5.080   8.758  0.2458  0.1185  0.3096
  193loPI   C4A 3082   3.110   5.134   8.329  0.0677  0.3101 -0.2130
  193loPI   C5A 3083   3.309   5.298   7.924 -0.0044 -0.1409 -0.1491
  193loPI   C6A 3084   3.683   5.284   7.704  0.1176  0.1509 -0.1728
  193loPI   C1B 3085   2.372   4.982   9.436  0.2081  0.0257  0.0874
  193loPI   C2B 3086   2.318   4.916   8.958 -0.1544  0.0842  0.0886
  193loPI   C3B 3087   2.225   4.912   8.538 -0.1132 -0.2399 -0.2699
  193loPI   C4B 3088   2.288   4.964   8.053  0.1646  0.0602 -0.2168
  194loPI    C1 3089  15.125   6.331  10.026  0.1221  0.0898 -0.0656
  194loPI    C2 3090  15.403   6.496   9.791  0.2685 -0.0279  0.0236
  194loPI    C3 3091  15.489   6.409  10.171  0.0412  0.1366  0.1147
  194loPI   PO4 3092  14.801   6.429  10.000  0.1652 -0.1305  0.2998
  194loPI   GL1 3093  14.749   6.701   9.600  0.0092  0.0554  0.2043
  194loPI   GL2 3094  14.951   6.370   9.414  0.1478  0.1054  0.1159
  194loPI   C1A 3095  14.484   6.727   9.135 -0.0006 -0.3214 -0.1661
  194loPI   C2A 3096  14.470   6.855   8.733  0.1806 -0.0291  0.2785
  194loPI   C3A 3097  14.543   6.868   8.376 -0.1841 -0.1810 -0.0434
  194loPI   C4A 3098  14.337   6.819   7.997  0.2321 -0.0124  0.1639
  194loPI   C5A 3099  14.120   7.013   7.640  0.1497  0.1674  0.3727
  194loPI   C6A 3100  13.661   7.009   7.381  0.2062 -0.1049  0.0031
  194loPI   C1B 3101  15.092   6.084   9.067  0.0104  0.0438 -0.1119
  194loPI   C2B 3102  15.075   5.895   8.689 -0.2190  0.2296 -0.3568
  194loPI   C3B 3103  14.858   5.946   8.286  0.2240  0.1414  0.1541
  194loPI   C4B 3104  14.826   5.934   7.897 -0.1752 -0.3922 -0.0724
  195loPI    C1 3105  15.084  11.515  10.412  0.1873  0.1030  0.2373
  195loPI    C2 3106  15.135  11.160  10.590 -0.0320  0.0155  0.1284
  195loPI    C3 3107  15.035  11.480  10.808 -0.1620 -0.0616  0.1830
  195loPI   PO4 3108  15.071  11.365  10.126 -0.2820 -0.3567  0.0922
  195loPI   GL1 3109  14.941  11.171   9.749  0.2499 -0.3324 -0.0104
  195loPI   GL2 3110  15.142  11.425   9.620 -0.1421  0.2938 -0.0073
  195loPI   C1A 3111  14.917  11.012   9.306 -0.0932  0.0177  0.1572
  195loPI   C2A 3112  14.785  10.689   9.176  0.2190 -0.3932  0.0094
  195loPI   C3A 3113  14.866  10.662   8.780  0.2344  0.1819  0.1123
  195loPI   C4A 3114  15.266  10.699   8.654  0.1958 -0.2412  0.0360
  195loPI   C5A 3115  15.418  10.782   8.193  0.1914 -0.0333 -0.2368
  195loPI   C6A 3116  15.430  11.152   7.775  0.1422 -0.0887  0.0755
  195loPI   C1B 3117  15.013  11.652   9.310  0.0214 -0.0744  0.2532
  195loPI   C2B 3118  14.994  11.618   8.951  0.1189  0.0007 -0.1578
  195loPI   C3B 3119  15.056  11.608   8.550  0.3031  0.3345 -0.0706
  195loPI   C4B 3120  15.052  11.648   8.099 -0.7090 -0.0707 -0.0067
  196loPI    C1 3121  13.339  13.403  10.490  0.1146  0.1715 -0.0967
  196loPI    C2 3122  13.008  13.488  10.698  0.0535 -0.0816 -0.0868
  196loPI    C3 3123  13.368  13.558  10.858  0.0076  0.2693 -0.1292
  196loPI   PO4 3124  13.237  13.552  10.139 -0.0061 -0.0633 -0.2534
  196loPI   GL1 3125  13.508  13.481   9.771 -0.1877 -0.1915  0.1491
  196loPI   GL2 3126  13.451  13.848   9.778  0.0598  0.0296  0.0380
  196loPI   C1A 3127  13.668  13.229   9.435 -0.4367  0.2631 -0.1754
  196loPI   C2A 3128  13.663  13.239   8.935  0.1025 -0.0271 -0.2935
  196loPI   C3A 3129  13.230  13.210   8.621  0.2350 -0.0553 -0.0738
  196loPI   C4A 3130  12.926  13.102   8.248  0.0391  0.0933 -0.1229
  196loPI   C5A 3131  12.742  13.207   7.959 -0.2670  0.1773 -0.2746
  196loPI   C6A 3132  12.572  13.565   7.787 -0.2823  0.0976  0.3627
  196loPI   C1B 3133  13.466  13.713   9.320 -0.0164  0.1598  0.2506
  196loPI   C2B 3134  13.540  13.716   8.825 -0.0295 -0.2058 -0.2294
  196loPI   C3B 3135  13.539  13.847   8.409  0.1090 -0.1033  0.1462
  196loPI   C4B 3136  13.676  13.834   7.985 -0.1688 -0.2019 -0.4338
  197loPI    C1 3137   9.235  13.283  10.424  0.1249  0.1863  0.1805
  197loPI    C2 3138   9.321  12.893  10.409  0.1649  0.2018 -0.0170
  197loPI    C3 3139   9.123  13.042  10.722 -0.1767 -0.0429 -0.1101
  197loPI   PO4 3140   9.143  13.269  10.173 -0.4091  0.1099 -0.1786
  197loPI   GL1 3141   9.109  13.498   9.763  0.1168  0.1831  0.1231
  197loPI   GL2 3142   9.176  13.197   9.727 -0.0152 -0.0827  0.0851
  197loPI   C1A 3143   9.069  13.760   9.421  0.1536 -0.0663 -0.0606
  197loPI   C2A 3144   8.975  13.765   8.970 -0.0850  0.1556 -0.4116
  197loPI   C3A 3145   8.762  13.988   8.641  0.0835  0.0868  0.2616
  197loPI   C4A 3146   8.763  14.306   8.483 -0.0782  0.0932  0.0713
  197loPI   C5A 3147   8.566  14.543   8.203  0.0147 -0.1395 -0.2224
  197loPI   C6A 3148   8.110  14.448   8.037 -0.0536 -0.0859 -0.2039
  197loPI   C1B 3149   9.170  13.012   9.406  0.0300  0.1165  0.0977
  197loPI   C2B 3150   9.096  12.777   9.128 -0.2827 -0.0241 -0.0679
  197loPI   C3B 3151   9.209  12.857   8.681 -0.0561  0.1018 -0.2000
  197loPI   C4B 3152   9.289  13.046   8.265 -0.1500 -0.1301 -0.0892
  198loPI    C1 3153   3.078  11.973  10.362 -0.1204 -0.1219 -0.0429
  198loPI    C2 3154   3.193  12.133  10.710  0.1112 -0.2308 -0.0677
  198loPI    C3 3155   2.813  12.168  10.590  0.0440 -0.1397  0.1661
  198loPI   PO4 3156   3.239  12.099  10.185 -0.2319 -0.0081  0.1424
  198loPI   GL1 3157   3.510  11.825  10.009 -0.2505  0.0430  0.1030
  198loPI   GL2 3158   3.697  12.156   9.869  0.0122  0.1056 -0.1632
  198loPI   C1A 3159   3.485  11.587   9.612 -0.1270 -0.1929  0.1022
  198loPI   C2A 3160   3.620  11.672   9.157  0.0269  0.4368  0.1763
  198loPI   C3A 3161   3.728  11.681   8.566  0.5780 -0.2131  0.4061
  198loPI   C4A 3162   3.590  11.865   8.197 -0.0370 -0.2557  0.0024
  198loPI   C5A 3163   3.784  12.064   7.821  0.2567  0.3051 -0.3774
  198loPI   C6A 3164   3.751  11.998   7.384 -0.0070  0.1078  0.1796
  198loPI   C1B 3165   3.637  12.057   9.464  0.0304 -0.1222 -0.0663
  198loPI   C2B 3166   3.627  12.175   9.070  0.0454 -0.1453  0.2433
  198loPI   C3B 3167   3.687  12.247   8.652 -0.1801  0.1548 -0.1015
  198loPI   C4B 3168   3.776  12.359   8.292  0.0692  0.5028 -0.3308
  199loPI    C1 3169  11.477  10.788  10.245 -0.0929 -0.0572 -0.1826
  199loPI    C2 3170  11.684  10.772   9.903 -0.1256  0.1099 -0.2112
  199loPI    C3 3171  11.777  11.045  10.180 -0.0931 -0.0309 -0.0822
  199loPI   PO4 3172  11.261  10.522  10.200 -0.1416 -0.3686  0.0195
  199loPI   GL1 3173  11.258  10.528   9.691  0.2297 -0.2022  0.2338
  199loPI   GL2 3174  10.933  10.642   9.796 -0.0892  0.1532  0.0444
  199loPI   C1A 3175  11.272  10.435   9.325  0.3554 -0.2560  0.1341
  199loPI   C2A 3176  11.306  10.430   8.813 -0.2661  0.2361  0.0534
  199loPI   C3A 3177  11.349  10.242   8.373  0.1336  0.0984  0.0938
  199loPI   C4A 3178  11.213  10.065   8.011  0.1478 -0.1753 -0.1769
  199loPI   C5A 3179  11.340   9.704   7.844 -0.1235 -0.0991 -0.2617
  199loPI   C6A 3180  11.465   9.798   7.303  0.1184  0.0868 -0.0000
  199loPI   C1B 3181  10.941  10.861   9.462 -0.0192 -0.0396  0.2660
  199loPI   C2B 3182  10.958  10.845   9.069  0.0915 -0.0366  0.1172
  199loPI   C3B 3183  10.907  10.623   8.621 -0.0697 -0.0245  0.2433
  199loPI   C4B 3184  10.873  10.484   8.184 -0.0866  0.0525 -0.1086
  200loPI    C1 3185   5.755  18.300  10.671  0.1231  0.0910  0.0010
  200loPI    C2 3186   5.563  18.644  10.739  0.1064  0.0684  0.0699
  200loPI    C3 3187   5.781  18.476  11.029  0.0746 -0.0045  0.0521
  200loPI   PO4 3188   5.745  18.353  10.331 -0.1460 -0.0593 -0.1838
  200loPI   GL1 3189   6.046  18.268  10.009  0.0288  0.3226 -0.1955
  200loPI   GL2 3190   6.304  18.552   9.963  0.1097  0.2228 -0.0216
  200loPI   C1A 3191   6.021  17.802   9.763 -0.0520  0.0171 -0.0977
  200loPI   C2A 3192   5.907  17.879   9.297  0.2466 -0.1520  0.1505
  200loPI   C3A 3193   5.911  17.805   8.818  0.0689  0.1100  0.2303
  200loPI   C4A 3194   5.750  17.891   8.406 -0.3633  0.0810 -0.3541
  200loPI   C5A 3195   5.280  17.996   8.265 -0.1440 -0.0194 -0.0074
  200loPI   C6A 3196   4.890  18.029   8.199  0.1795  0.2464 -0.0016
  200loPI   C1B 3197   6.001  18.328   9.547  0.1092 -0.1635 -0.1295
  200loPI   C2B 3198   5.949  18.317   9.093 -0.0755  0.0640  0.0043
  200loPI   C3B 3199   5.801  18.382   8.618  0.4212 -0.1320 -0.3378
  200loPI   C4B 3200   5.377  18.570   8.346 -0.3244 -0.0087 -0.3614
  201loPI    C1 3201   9.443   9.703  10.076  0.1279  0.1381 -0.0073
  201loPI    C2 3202   9.269  10.063  10.053  0.0171  0.0834 -0.0304
  201loPI    C3 3203   9.226   9.840  10.382  0.0227  0.0592 -0.0460
  201loPI   PO4 3204   9.669   9.795   9.994 -0.1057 -0.0073 -0.0450
  201loPI   GL1 3205  10.004   9.675   9.740 -0.0046 -0.0323 -0.0456
  201loPI   GL2 3206  10.058   9.279   9.664 -0.0607 -0.0978 -0.0607
  201loPI   C1A 3207   9.879   9.683   9.411 -0.2076 -0.1336  0.0382
  201loPI   C2A 3208   9.728   9.772   9.016  0.0339  0.1901  0.1726
  201loPI   C3A 3209   9.482   9.670   8.614  0.1134  0.1490  0.2462
  201loPI   C4A 3210   9.239   9.931   8.279  0.3783  0.0417  0.1346
  201loPI   C5A 3211   8.731  10.048   8.038 -0.4984 -0.1048  0.0100
  201loPI   C6A 3212   8.490   9.910   7.810 -0.1507 -0.0175  0.0348
  201loPI   C1B 3213   9.853   9.141   9.273  0.1517 -0.0247 -0.0166
  201loPI   C2B 3214   9.712   9.182   8.886  0.1376  0.2751 -0.3121
  201loPI   C3B 3215   9.556   9.029   8.482 -0.1865  0.3611 -0.1056
  201loPI   C4B 3216   9.654   8.945   8.179 -0.2103  0.1058  0.0827
  202loPI    C1 3217  15.622   2.003   9.920  0.1495  0.1057  0.1254
  202loPI    C2 3218  15.631   2.385  10.037 -0.0750  0.0401  0.3663
  202loPI    C3 3219  15.799   2.102  10.265 -0.0065 -0.0195  0.2430
  202loPI   PO4 3220  15.400   1.893   9.864 -0.2047 -0.0336  0.0326
  202loPI   GL1 3221  15.127   1.736   9.637  0.4337  0.4901  0.1295
  202loPI   GL2 3222  15.184   1.884   9.347  0.4056 -0.1234  0.4572
  202loPI   C1A 3223  14.972   1.452   9.359 -0.1618 -0.1894 -0.0196
  202loPI   C2A 3224  14.912   1.485   8.874 -0.0022  0.0335  0.0368
  202loPI   C3A 3225  14.742   1.405   8.511  0.0912 -0.1549 -0.0144
  202loPI   C4A 3226  14.432   1.295   8.133 -0.4091  0.0479  0.0312
  202loPI   C5A 3227  14.059   1.384   7.918 -0.0761  0.3580 -0.0816
  202loPI   C6A 3228  13.749   1.068   7.936  0.2014 -0.1610 -0.0316
  202loPI   C1B 3229  15.003   1.967   8.932 -0.1751 -0.0780  0.1235
  202loPI   C2B 3230  14.879   1.983   8.553 -0.0595 -0.1055  0.0348
  202loPI   C3B 3231  15.061   2.195   8.262  0.3563  0.2201 -0.4186
  202loPI   C4B 3232  15.342   2.506   8.099  0.0592  0.1112  0.1736
  203loPI    C1 3233   7.347   9.312  10.322 -0.2655  0.0473  0.0172
  203loPI    C2 3234   7.568   9.453  10.623  0.2280 -0.0925 -0.2684
  203loPI    C3 3235   7.169   9.456  10.650  0.2477  0.4263  0.1415
  203loPI   PO4 3236   7.554   9.383  10.129  0.0996  0.1136 -0.0314
  203loPI   GL1 3237   7.743   9.384   9.684  0.2169  0.1559 -0.0325
  203loPI   GL2 3238   8.007   9.379   9.570  0.2601  0.5120 -0.2564
  203loPI   C1A 3239   7.510   9.823   9.505 -0.0003  0.2160 -0.1080
  203loPI   C2A 3240   7.633   9.966   9.124 -0.1682 -0.2673  0.1941
  203loPI   C3A 3241   7.511  10.056   8.704 -0.4181 -0.4232 -0.0525
  203loPI   C4A 3242   7.616   9.915   8.275 -0.0952 -0.0459 -0.2658
  203loPI   C5A 3243   7.746  10.034   7.874 -0.0810  0.1382 -0.0657
  203loPI   C6A 3244   7.986   9.865   7.536  0.1825 -0.0887  0.2415
  203loPI   C1B 3245   7.816   9.488   9.229  0.1251  0.1022 -0.2531
  203loPI   C2B 3246   7.773   9.647   8.746 -0.2143 -0.1979 -0.0360
  203loPI   C3B 3247   7.631   9.478   8.435 -0.0316  0.2159  0.0795
  203loPI   C4B 3248   7.463   9.497   8.000  0.1159 -0.4144  0.1725
  204loPI    C1 3249   3.772  14.174  10.117 -0.1552 -0.3293 -0.1668
  204loPI    C2 3250   3.618  14.421  10.392 -0.0656 -0.0431 -0.3697
  204loPI    C3 3251   3.504  14.038  10.382 -0.1913 -0.0176 -0.0385
  204loPI   PO4 3252   3.728  14.323   9.844 -0.1852 -0.1331 -0.0987
  204loPI   GL1 3253   3.611  14.602   9.598  0.3415 -0.3297  0.1332
  204loPI   GL2 3254   3.714  15.002   9.613  0.1210  0.1577  0.1035
  204loPI   C1A 3255   3.764  14.590   9.244 -0.1334  0.0119 -0.0653
  204loPI   C2A 3256   3.966  14.528   8.902 -0.2154 -0.3524  0.1632
  204loPI   C3A 3257   4.028  14.355   8.501  0.0848 -0.0449  0.2614
  204loPI   C4A 3258   4.017  14.331   8.084 -0.2165 -0.4014  0.0129
  204loPI   C5A 3259   4.005  14.134   7.749 -0.0569  0.2918  0.2579
  204loPI   C6A 3260   4.128  13.839   7.713  0.3038  0.0938 -0.3259
  204loPI   C1B 3261   3.904  15.340   9.427  0.0751  0.1171  0.1120
  204loPI   C2B 3262   4.049  15.415   9.041 -0.1456 -0.0071 -0.1559
  204loPI   C3B 3263   4.167  15.389   8.593  0.1191 -0.0278  0.0648
  204loPI   C4B 3264   4.124  15.375   8.200 -0.0056  0.0636 -0.1467
  205loPI    C1 3265   4.628   5.865  10.458  0.0196  0.2096  0.1343
  205loPI    C2 3266   4.326   5.648  10.606  0.0278  0.0286 -0.1077
  205loPI    C3 3267   4.360   6.035  10.702 -0.2645  0.0437 -0.0558
  205loPI   PO4 3268   4.644   5.796  10.159  0.0975  0.1190 -0.1098
  205loPI   GL1 3269   4.509   5.966   9.783  0.2282 -0.1257  0.1395
  205loPI   GL2 3270   4.275   5.747   9.651 -0.0018 -0.0915  0.1552
  205loPI   C1A 3271   4.727   5.685   9.402 -0.2412  0.0144 -0.1719
  205loPI   C2A 3272   5.178   5.809   9.231  0.0072 -0.0659  0.1348
  205loPI   C3A 3273   5.410   5.858   8.872 -0.0952 -0.0918 -0.0141
  205loPI   C4A 3274   5.620   5.881   8.603 -0.1451 -0.0517 -0.1819
  205loPI   C5A 3275   5.642   5.994   8.149 -0.0426  0.2317 -0.0682
  205loPI   C6A 3276   5.709   6.122   7.734  0.0128  0.0229 -0.0249
  205loPI   C1B 3277   4.252   5.804   9.204  0.0748 -0.0234  0.3453
  205loPI   C2B 3278   4.336   5.776   8.771 -0.0306  0.1787  0.1279
  205loPI   C3B 3279   4.228   5.809   8.356 -0.0462  0.1004  0.1748
  205loPI   C4B 3280   3.847   5.637   8.049  0.0947  0.0087  0.1978
  206loPI    C1 3281  15.102   0.164  10.339  0.1574 -0.0857  0.1346
  206loPI    C2 3282  15.498   0.116  10.319  0.1420 -0.1075 -0.1499
  206loPI    C3 3283  15.335   0.292  10.638  0.3969  0.0639 -0.1111
  206loPI   PO4 3284  15.025   0.212  10.195  0.3490  0.1057 -0.0089
  206loPI   GL1 3285  14.905   0.246   9.758 -0.1592  0.0712  0.0015
  206loPI   GL2 3286  14.680   0.007   9.836  0.1900 -0.0293 -0.0973
  206loPI   C1A 3287  14.723   0.153   9.381 -0.1068 -0.1186 -0.0726
  206loPI   C2A 3288  14.710   0.062   8.884  0.3127 -0.1026  0.1729
  206loPI   C3A 3289  14.803  -0.054   8.454  0.0563  0.2487  0.1891
  206loPI   C4A 3290  14.630  -0.032   8.044  0.2211 -0.0222 -0.1617
  206loPI   C5A 3291  14.995   0.083   7.724  0.1571 -0.0004  0.2178
  206loPI   C6A 3292  15.340   0.061   7.329 -0.1211  0.1321 -0.2397
  206loPI   C1B 3293  14.855  -0.314   9.497 -0.0323  0.1724 -0.0487
  206loPI   C2B 3294  15.111  -0.383   9.061 -0.0592  0.1673 -0.1942
  206loPI   C3B 3295  15.252  -0.329   8.677  0.3572  0.1242  0.2158
  206loPI   C4B 3296  15.264  -0.210   8.209 -0.2769 -0.2959  0.0693
  207loPI    C1 3297  17.065   1.798  10.252  0.0526 -0.2061 -0.3131
  207loPI    C2 3298  16.723   1.954  10.389  0.1088 -0.0542 -0.3446
  207loPI    C3 3299  16.873   1.623  10.556  0.1417  0.0911 -0.0816
  207loPI   PO4 3300  17.074   1.952  10.039 -0.0369  0.0559  0.1217
  207loPI   GL1 3301  17.315   2.024   9.612  0.0550 -0.2339 -0.1019
  207loPI   GL2 3302  17.631   2.107   9.707  0.1706 -0.2459  0.0951
  207loPI   C1A 3303  17.469   1.939   9.205 -0.0891 -0.0918  0.1963
  207loPI   C2A 3304  17.153   2.046   8.862 -0.0185  0.1991  0.0704
  207loPI   C3A 3305  17.027   2.206   8.477 -0.1042 -0.1471 -0.4209
  207loPI   C4A 3306  16.794   2.065   8.177  0.1528  0.1797 -0.0736
  207loPI   C5A 3307  16.874   1.905   7.822  0.4164 -0.3789  0.0689
  207loPI   C6A 3308  17.324   1.649   7.740 -0.1134  0.2369 -0.0612
  207loPI   C1B 3309  17.932   1.906   9.465  0.0594  0.0219 -0.1200
  207loPI   C2B 3310  18.215   1.966   9.045 -0.1756  0.1310 -0.0802
  207loPI   C3B 3311  18.302   2.004   8.639 -0.2585 -0.1703 -0.1017
  207loPI   C4B 3312  18.126   2.020   8.367 -0.2503  0.2030  0.2381
  208loPI    C1 3313   3.209  11.089  10.123 -0.1006  0.0150  0.1252
  208loPI    C2 3314   3.198  10.957  10.500 -0.0006  0.0661  0.1464
  208loPI    C3 3315   2.974  11.269  10.392 -0.1513 -0.0487  0.1238
  208loPI   PO4 3316   3.242  10.928   9.975 -0.2880 -0.1761 -0.2326
  208loPI   GL1 3317   3.084  10.870   9.562 -0.3858 -0.0423 -0.1021
  208loPI   GL2 3318   3.214  11.153   9.521 -0.0965  0.0625  0.1277
  208loPI   C1A 3319   3.132  10.765   9.193  0.1652  0.2628 -0.0667
  208loPI   C2A 3320   3.333  10.832   8.845  0.1632  0.2459 -0.2598
  208loPI   C3A 3321   3.478  10.903   8.394  0.1632 -0.1039 -0.4364
  208loPI   C4A 3322   3.491  11.307   8.207 -0.1636  0.1616 -0.2804
  208loPI   C5A 3323   3.539  11.541   7.867 -0.0241  0.0329  0.4947
  208loPI   C6A 3324   3.549  11.552   7.431 -0.0918 -0.2384 -0.1219
  208loPI   C1B 3325   3.401  11.236   9.126  0.4155  0.1642 -0.1449
  208loPI   C2B 3326   3.295  11.387   8.663 -0.2003  0.0194  0.0629
  208loPI   C3B 3327   3.154  11.627   8.268  0.2700 -0.0222  0.0502
  208loPI   C4B 3328   2.972  11.673   7.846  0.0273  0.1187 -0.1649
  209loPI    C1 3329  13.262   7.934   9.819  0.0865 -0.1465 -0.0049
  209loPI    C2 3330  13.299   7.829  10.203 -0.0620  0.0403  0.0620
  209loPI    C3 3331  13.336   8.213  10.096  0.2850 -0.0492 -0.1532
  209loPI   PO4 3332  13.028   7.804   9.725  0.1818  0.0148 -0.1586
  209loPI   GL1 3333  12.939   7.892   9.393 -0.0346  0.0012 -0.2300
  209loPI   GL2 3334  12.894   7.499   9.340  0.1816  0.1020 -0.1909
  209loPI   C1A 3335  12.891   8.089   8.943 -0.1620  0.2360  0.1580
  209loPI   C2A 3336  12.830   8.299   8.592 -0.2749 -0.0102  0.1744
  209loPI   C3A 3337  12.491   8.591   8.471  0.2806  0.2612  0.0264
  209loPI   C4A 3338  12.313   8.475   8.123 -0.0638  0.1714  0.0964
  209loPI   C5A 3339  12.225   8.157   7.841 -0.1709 -0.0332 -0.0433
  209loPI   C6A 3340  12.218   7.740   7.778  0.6440  0.2063 -0.0672
  209loPI   C1B 3341  12.880   7.597   8.978 -0.0610 -0.0738  0.3112
  209loPI   C2B 3342  12.471   7.829   8.685  0.0599  0.0706 -0.3926
  209loPI   C3B 3343  12.492   8.065   8.264  0.0241  0.0668 -0.3878
  209loPI   C4B 3344  12.865   8.264   8.042  0.1936  0.1116  0.1517
  210loPI    C1 3345   0.826  12.374   9.919 -0.1168  0.2001  0.1139
  210loPI    C2 3346   0.813  11.983   9.833  0.0059  0.2007  0.0909
  210loPI    C3 3347   0.733  12.110  10.204 -0.0457  0.1549  0.0955
  210loPI   PO4 3348   0.723  12.529   9.768 -0.3270  0.2799  0.4030
  210loPI   GL1 3349   0.619  12.840   9.354 -0.0010  0.1142 -0.0817
  210loPI   GL2 3350   0.320  12.636   9.380  0.1098 -0.0057  0.0794
  210loPI   C1A 3351   0.806  12.979   8.978 -0.0205  0.1846  0.1939
  210loPI   C2A 3352   1.106  12.979   8.729  0.0786  0.0661  0.1573
  210loPI   C3A 3353   1.273  12.784   8.322  0.5638 -0.0501  0.0322
  210loPI   C4A 3354   1.676  12.658   7.989 -0.2021  0.1762  0.1747
  210loPI   C5A 3355   1.854  12.498   7.571 -0.0268  0.2238 -0.1778
  210loPI   C6A 3356   1.993  12.135   7.295  0.1169 -0.1246 -0.0959
  210loPI   C1B 3357   0.367  12.730   8.990 -0.0195  0.0646 -0.0043
  210loPI   C2B 3358   0.362  12.657   8.594 -0.0780 -0.0628  0.0014
  210loPI   C3B 3359   0.230  12.675   8.145 -0.0364  0.1663 -0.1201
  210loPI   C4B 3360   0.124  12.803   7.730 -0.0897 -0.1831 -0.1605
  211loPI    C1 3361  12.123   7.060  10.122  0.0021  0.1015 -0.0307
  211loPI    C2 3362  12.456   7.257  10.223 -0.0227  0.0469  0.1631
  211loPI    C3 3363  12.116   7.322  10.424 -0.1053  0.0286  0.0309
  211loPI   PO4 3364  12.187   7.001   9.780  0.1189  0.0968  0.0503
  211loPI   GL1 3365  12.241   6.743   9.511 -0.0551  0.2016  0.0076
  211loPI   GL2 3366  12.632   6.904   9.498  0.0314  0.0301  0.0429
  211loPI   C1A 3367  12.212   6.913   9.147  0.0629 -0.4412 -0.1144
  211loPI   C2A 3368  12.161   6.996   8.738 -0.2588 -0.0105  0.0210
  211loPI   C3A 3369  12.136   6.994   8.384 -0.0973  0.1646 -0.2002
  211loPI   C4A 3370  12.315   7.029   7.956  0.1444 -0.4132 -0.1243
  211loPI   C5A 3371  12.501   7.308   7.630 -0.0913  0.1845 -0.0952
  211loPI   C6A 3372  12.392   7.548   7.351 -0.3594 -0.0377  0.4866
  211loPI   C1B 3373  12.760   7.034   9.093  0.0345  0.0700  0.2160
  211loPI   C2B 3374  13.053   7.059   8.798 -0.3354 -0.0168  0.3944
  211loPI   C3B 3375  13.221   7.119   8.405 -0.2223 -0.1310  0.1424
  211loPI   C4B 3376  13.042   7.221   8.008 -0.2173  0.3052  0.1008
  212loPI    C1 3377  14.559   7.768   9.868  0.2640 -0.0855 -0.2139
  212loPI    C2 3378  14.541   7.859  10.257 -0.4570 -0.2268 -0.2023
  212loPI    C3 3379  14.436   8.131   9.983  0.2661 -0.0500 -0.3221
  212loPI   PO4 3380  14.823   7.616   9.810  0.0411  0.1880  0.0033
  212loPI   GL1 3381  15.094   7.576   9.413  0.0365  0.2570  0.3096
  212loPI   GL2 3382  15.203   7.304   9.241 -0.0010  0.3000  0.3608
  212loPI   C1A 3383  14.846   7.637   9.111  0.0472  0.1508 -0.2685
  212loPI   C2A 3384  14.984   7.728   8.693 -0.2866  0.0485 -0.1298
  212loPI   C3A 3385  14.881   7.707   8.287 -0.1201 -0.0335 -0.3149
  212loPI   C4A 3386  14.763   7.271   8.186 -0.0739  0.1619 -0.3961
  212loPI   C5A 3387  14.914   6.873   7.898 -0.0585  0.3422 -0.0815
  212loPI   C6A 3388  15.338   6.724   7.737  0.0995  0.0150 -0.1071
  212loPI   C1B 3389  15.182   7.273   8.844 -0.1703 -0.2713 -0.0164
  212loPI   C2B 3390  15.194   7.346   8.434 -0.0119 -0.2023 -0.1995
  212loPI   C3B 3391  15.261   7.261   7.990 -0.4883  0.1892 -0.1151
  212loPI   C4B 3392  15.014   7.577   7.814  0.3405  0.1368  0.0980
  213loPI    C1 3393   9.436   5.704  10.101  0.1397  0.1739 -0.0485
  213loPI    C2 3394   9.730   5.474  10.247 -0.0739 -0.0905 -0.0255
  213loPI    C3 3395   9.549   5.742  10.483  0.0923  0.0162 -0.0178
  213loPI   PO4 3396   9.372   5.430   9.818  0.4219 -0.2004 -0.1848
  213loPI   GL1 3397   9.373   5.522   9.380  0.0352  0.3090 -0.2103
  213loPI   GL2 3398   9.282   5.850   9.486  0.0054 -0.2304  0.3539
  213loPI   C1A 3399   9.310   5.478   9.015  0.1040 -0.1219 -0.2474
  213loPI   C2A 3400   9.443   5.290   8.655  0.0619  0.1782  0.0134
  213loPI   C3A 3401   9.478   5.178   8.241 -0.3496 -0.1639 -0.0087
  213loPI   C4A 3402   9.363   5.190   7.765  0.0185 -0.4265  0.0854
  213loPI   C5A 3403   9.090   4.998   7.411 -0.2223  0.0595  0.2284
  213loPI   C6A 3404   8.874   5.159   7.042 -0.0187  0.2505 -0.2036
  213loPI   C1B 3405   9.253   6.025   9.182 -0.0882  0.1916  0.2239
  213loPI   C2B 3406   9.242   5.957   8.723  0.3091  0.0469 -0.1284
  213loPI   C3B 3407   9.145   6.011   8.321  0.1283  0.1733  0.0836
  213loPI   C4B 3408   8.959   6.082   7.884  0.0592 -0.2380  0.1122
  214loPI    C1 3409   9.325   8.595  10.344 -0.3475  0.0692 -0.2383
  214loPI    C2 3410   9.130   8.504  10.681 -0.0786 -0.1652 -0.1420
  214loPI    C3 3411   9.507   8.382  10.629  0.1093  0.4283 -0.2499
  214loPI   PO4 3412   9.130   8.509  10.156 -0.1362 -0.1308 -0.0300
  214loPI   GL1 3413   9.348   8.597   9.794 -0.0934  0.0272 -0.1653
  214loPI   GL2 3414   9.081   8.650   9.587 -0.0105  0.0185 -0.4317
  214loPI   C1A 3415   9.418   8.847   9.343 -0.0123  0.1586  0.0202
  214loPI   C2A 3416   9.548   8.707   8.920  0.0548  0.5794  0.3124
  214loPI   C3A 3417   9.287   8.623   8.674 -0.1102  0.2968  0.2193
  214loPI   C4A 3418   9.119   8.510   8.221 -0.0481 -0.0843 -0.1478
  214loPI   C5A 3419   9.091   8.471   7.932 -0.0020 -0.0467 -0.2595
  214loPI   C6A 3420   9.153   8.255   7.657 -0.3024 -0.1755  0.0697
  214loPI   C1B 3421   8.993   8.717   9.100 -0.3776 -0.1512  0.2929
  214loPI   C2B 3422   8.657   8.614   8.793  0.0016 -0.2168  0.2267
  214loPI   C3B 3423   8.580   8.521   8.359  0.0025 -0.0147 -0.1974
  214loPI   C4B 3424   8.553   8.176   8.158  0.1917 -0.0002  0.0832
  215loPI    C1 3425   8.538   9.031  10.515  0.1049  0.1601  0.0999
  215loPI    C2 3426   8.557   8.759  10.808 -0.0902 -0.0249 -0.0558
  215loPI    C3 3427   8.673   9.136  10.877 -0.1164 -0.0706  0.2531
  215loPI   PO4 3428   8.477   8.883  10.308 -0.0835 -0.0383 -0.2211
  215loPI   GL1 3429   8.392   8.781   9.872  0.0527 -0.2443 -0.0700
  215loPI   GL2 3430   8.329   8.962   9.688 -0.2332 -0.1998  0.1114
  215loPI   C1A 3431   8.272   8.464   9.613  0.2692  0.0361 -0.0226
  215loPI   C2A 3432   8.269   8.379   9.109 -0.0409 -0.1150 -0.5028
  215loPI   C3A 3433   8.225   8.399   8.668  0.1137 -0.0608  0.0757
  215loPI   C4A 3434   8.076   8.632   8.389 -0.0318  0.1080  0.0933
  215loPI   C5A 3435   8.254   8.628   7.960  0.0802 -0.0933 -0.1016
  215loPI   C6A 3436   8.733   8.866   7.934  0.0666 -0.1395 -0.1640
  215loPI   C1B 3437   8.529   8.869   9.328  0.0166 -0.1110  0.0695
  215loPI   C2B 3438   8.656   9.173   8.979  0.1711  0.0176 -0.0628
  215loPI   C3B 3439   8.552   9.492   8.645 -0.1584 -0.0626  0.1074
  215loPI   C4B 3440   8.347   9.788   8.326 -0.0436  0.3805  0.2551
  216loPI    C1 3441  10.913  15.972  10.628 -0.0900 -0.1075 -0.0693
  216loPI    C2 3442  11.211  15.829  10.853  0.0361  0.1385 -0.0765
  216loPI    C3 3443  10.860  15.922  11.021 -0.0997 -0.3151 -0.0963
  216loPI   PO4 3444  10.913  15.808  10.444 -0.0345 -0.0675  0.0039
  216loPI   GL1 3445  10.958  15.520  10.218 -0.0407 -0.1882  0.4202
  216loPI   GL2 3446  10.701  15.299  10.121  0.0212  0.0024 -0.0351
  216loPI   C1A 3447  11.163  15.632   9.873  0.2843  0.1972  0.0786
  216loPI   C2A 3448  11.126  15.686   9.453  0.1993  0.0874  0.0909
  216loPI   C3A 3449  11.131  15.835   9.005  0.0494 -0.1247  0.2169
  216loPI   C4A 3450  11.025  16.000   8.588 -0.3518 -0.3967 -0.0277
  216loPI   C5A 3451  11.129  16.427   8.460  0.0363  0.1053 -0.1193
  216loPI   C6A 3452  11.480  16.757   8.510 -0.2358  0.7171 -0.2877
  216loPI   C1B 3453  10.659  15.416   9.747  0.2565  0.1980 -0.0641
  216loPI   C2B 3454  10.680  15.724   9.526 -0.0532  0.0314  0.2649
  216loPI   C3B 3455  10.745  16.000   9.251 -0.1634  0.3524 -0.0734
  216loPI   C4B 3456  10.809  16.289   8.885  0.1800 -0.2673 -0.1538
  217loPI    C1 3457   1.739  16.612  10.654  0.1683  0.2937 -0.0934
  217loPI    C2 3458   2.041  16.371  10.548 -0.0368  0.0595 -0.1538
  217loPI    C3 3459   2.065  16.586  10.885  0.1592 -0.0253 -0.1122
  217loPI   PO4 3460   1.651  16.750  10.451  0.0678  0.0242 -0.1721
  217loPI   GL1 3461   1.840  16.618  10.118  0.0530  0.0082 -0.0885
  217loPI   GL2 3462   1.447  16.591   9.938 -0.2294  0.2528  0.0407
  217loPI   C1A 3463   1.927  16.745   9.672  0.3093 -0.0753  0.1254
  217loPI   C2A 3464   2.212  16.571   9.366  0.0445  0.0675  0.2725
  217loPI   C3A 3465   2.240  16.541   8.942  0.0961 -0.1562  0.0472
  217loPI   C4A 3466   2.152  16.563   8.427  0.1450 -0.0501 -0.2923
  217loPI   C5A 3467   2.136  16.555   8.051 -0.2472  0.2120  0.1703
  217loPI   C6A 3468   2.448  16.406   7.670  0.4584  0.1873  0.2088
  217loPI   C1B 3469   1.425  16.351   9.520 -0.1927  0.0168 -0.3859
  217loPI   C2B 3470   1.427  16.301   9.074 -0.2341 -0.2254 -0.0237
  217loPI   C3B 3471   1.359  16.252   8.620 -0.0668  0.1799 -0.0600
  217loPI   C4B 3472   1.605  16.372   8.242 -0.0319 -0.1294  0.0086
  218loPI    C1 3473  13.706  15.837  10.137  0.0215 -0.3074  0.0404
  218loPI    C2 3474  14.101  15.881  10.101 -0.0408  0.2313 -0.0648
  218loPI    C3 3475  13.904  16.078  10.388 -0.2127 -0.1841  0.1100
  218loPI   PO4 3476  13.603  15.853   9.873 -0.1816  0.0865 -0.2693
  218loPI   GL1 3477  13.431  15.769   9.558  0.2684  0.3428  0.1381
  218loPI   GL2 3478  13.152  15.577   9.547  0.1079  0.0014 -0.4029
  218loPI   C1A 3479  13.489  15.819   9.165  0.1357 -0.0506  0.1352
  218loPI   C2A 3480  13.456  15.805   8.808 -0.0072  0.0954 -0.1551
  218loPI   C3A 3481  13.480  15.920   8.456  0.1835  0.1153  0.0737
  218loPI   C4A 3482  13.606  16.069   8.040 -0.0561  0.1318  0.2304
  218loPI   C5A 3483  13.774  16.298   7.665  0.0872  0.1217 -0.2130
  218loPI   C6A 3484  13.546  16.470   7.311 -0.0647 -0.3180 -0.0673
  218loPI   C1B 3485  13.070  15.554   9.196 -0.0244  0.2824  0.0494
  218loPI   C2B 3486  13.032  15.493   8.806  0.2315 -0.0790  0.1291
  218loPI   C3B 3487  12.959  15.672   8.480  0.1170 -0.0105  0.1671
  218loPI   C4B 3488  12.834  15.368   8.148 -0.1933 -0.0030 -0.0049
  219loPI    C1 3489   3.885  14.085  10.699  0.1682 -0.2372 -0.2968
  219loPI    C2 3490   3.644  13.777  10.786  0.1467 -0.1174  0.0844
  219loPI    C3 3491   3.766  14.024  11.076  0.1636  0.2365 -0.2165
  219loPI   PO4 3492   4.020  13.886  10.524 -0.1154  0.1379 -0.0876
  219loPI   GL1 3493   4.152  13.836   9.971 -0.0833  0.0820 -0.0724
  219loPI   GL2 3494   3.897  13.737   9.696  0.0256  0.0267  0.2851
  219loPI   C1A 3495   4.293  13.477   9.653 -0.2845  0.3393  0.0676
  219loPI   C2A 3496   3.938  13.362   9.385  0.1310  0.2125 -0.1653
  219loPI   C3A 3497   3.800  13.304   8.929  0.1689  0.0449  0.0966
  219loPI   C4A 3498   3.912  13.215   8.478  0.1082  0.0946  0.2312
  219loPI   C5A 3499   4.078  13.513   8.075  0.1934  0.0483 -0.1470
  219loPI   C6A 3500   4.504  13.660   7.988  0.0331 -0.2328 -0.2642
  219loPI   C1B 3501   4.189  13.802   9.314  0.3786  0.1894 -0.5516
  219loPI   C2B 3502   4.234  13.535   8.967  0.1482  0.0850 -0.0973
  219loPI   C3B 3503   4.363  13.646   8.493 -0.3345  0.0399  0.1597
  219loPI   C4B 3504   4.256  13.941   8.277 -0.0065 -0.0511  0.3639
  220loPI    C1 3505   2.506   7.341  10.338 -0.0766 -0.0139  0.0464
  220loPI    C2 3506   2.809   7.344  10.599 -0.0079  0.2779 -0.0336
  220loPI    C3 3507   2.444   7.457  10.716 -0.0159  0.2368 -0.0187
  220loPI   PO4 3508   2.565   7.213  10.182 -0.0342  0.1078 -0.1872
  220loPI   GL1 3509   2.907   7.126   9.981  0.0959 -0.0907  0.0645
  220loPI   GL2 3510   3.103   6.832   9.969  0.1952 -0.1859  0.2238
  220loPI   C1A 3511   2.910   7.362   9.577  0.1776 -0.2356  0.2262
  220loPI   C2A 3512   2.997   7.277   9.152 -0.1508 -0.1919 -0.3401
  220loPI   C3A 3513   2.999   7.076   8.757 -0.0291 -0.0077 -0.1735
  220loPI   C4A 3514   2.829   6.765   8.381  0.1254  0.2995 -0.1543
  220loPI   C5A 3515   2.513   6.519   8.138 -0.2457 -0.1360 -0.0101
  220loPI   C6A 3516   2.272   6.676   7.874 -0.2849 -0.1000 -0.0255
  220loPI   C1B 3517   3.205   6.931   9.569  0.1546  0.0949  0.2060
  220loPI   C2B 3518   3.343   6.925   9.144  0.3071  0.0659  0.2742
  220loPI   C3B 3519   3.636   7.008   8.834 -0.0234 -0.0430 -0.2100
  220loPI   C4B 3520   3.804   7.272   8.481 -0.4002 -0.1041  0.2664
  221loPI    C1 3521  16.160  16.739  10.071  0.1115  0.0795 -0.1470
  221loPI    C2 3522  15.826  16.960  10.076  0.0207 -0.0527 -0.2906
  221loPI    C3 3523  15.947  16.774  10.408  0.1168  0.2383 -0.1592
  221loPI   PO4 3524  16.199  16.781   9.826  0.1594  0.3564  0.0094
  221loPI   GL1 3525  16.198  16.624   9.439 -0.0355  0.2313 -0.1011
  221loPI   GL2 3526  16.376  16.911   9.400 -0.2454  0.0469  0.0855
  221loPI   C1A 3527  16.246  16.442   9.027 -0.2263 -0.0757 -0.0138
  221loPI   C2A 3528  16.313  16.567   8.608  0.1590 -0.1516  0.0254
  221loPI   C3A 3529  16.542  16.747   8.287 -0.1412 -0.1584 -0.0908
  221loPI   C4A 3530  16.892  16.624   8.033 -0.0888  0.0871 -0.0366
  221loPI   C5A 3531  17.284  16.353   7.925 -0.0924 -0.1761 -0.1199
  221loPI   C6A 3532  17.691  16.259   8.015  0.0821  0.0791  0.2550
  221loPI   C1B 3533  16.560  16.861   8.935  0.5008 -0.0939 -0.1231
  221loPI   C2B 3534  16.634  17.123   8.596  0.0291 -0.0266  0.1213
  221loPI   C3B 3535  16.664  17.186   8.105  0.1442  0.1935  0.1413
  221loPI   C4B 3536  16.739  17.157   7.689 -0.0241 -0.4042 -0.1345
  222loPI    C1 3537  15.729   3.493  10.555 -0.0020  0.0886 -0.0629
  222loPI    C2 3538  16.024   3.226  10.513  0.2850  0.3669  0.1372
  222loPI    C3 3539  15.730   3.158  10.775  0.0043 -0.0488 -0.2690
  222loPI   PO4 3540  15.701   3.649  10.257 -0.0129  0.0536 -0.0112
  222loPI   GL1 3541  15.803   3.880   9.855 -0.0360 -0.0885  0.2825
  222loPI   GL2 3542  16.092   3.729   9.713  0.0488  0.3615 -0.0393
  222loPI   C1A 3543  15.500   3.785   9.551  0.1791 -0.0408 -0.0389
  222loPI   C2A 3544  15.438   3.920   9.171  0.1786 -0.0325 -0.0612
  222loPI   C3A 3545  15.417   4.175   8.849  0.0064 -0.0286 -0.1070
  222loPI   C4A 3546  15.319   4.428   8.549 -0.2289 -0.4761  0.1679
  222loPI   C5A 3547  15.412   4.495   8.132 -0.1425  0.3717 -0.2757
  222loPI   C6A 3548  15.654   4.415   7.742  0.1188  0.2475 -0.1876
  222loPI   C1B 3549  15.910   3.839   9.313 -0.1379 -0.0629 -0.1602
  222loPI   C2B 3550  15.977   3.849   8.880  0.0169  0.0537  0.0624
  222loPI   C3B 3551  16.057   3.715   8.440 -0.0948  0.1008 -0.0619
  222loPI   C4B 3552  15.824   3.432   8.105 -0.0474  0.0726  0.1520
  223loPI    C1 3553  13.883   1.528  10.312  0.0059  0.0739  0.0245
  223loPI    C2 3554  13.728   1.636   9.959 -0.0188  0.2083  0.0758
  223loPI    C3 3555  13.641   1.845  10.289  0.0801  0.1404  0.1459
  223loPI   PO4 3556  14.100   1.315  10.260  0.1045 -0.0417  0.3180
  223loPI   GL1 3557  14.461   1.052  10.098  0.3462  0.0329 -0.0226
  223loPI   GL2 3558  14.195   0.904   9.991  0.2304  0.1520  0.2301
  223loPI   C1A 3559  14.489   1.196   9.612 -0.1464  0.0086 -0.1730
  223loPI   C2A 3560  14.362   1.355   9.213  0.1828 -0.0886 -0.0592
  223loPI   C3A 3561  14.350   1.184   8.779 -0.2448 -0.0623  0.0383
  223loPI   C4A 3562  14.205   0.938   8.498  0.0561 -0.0351 -0.1397
  223loPI   C5A 3563  14.373   0.777   8.113  0.3270  0.0560  0.1283
  223loPI   C6A 3564  14.338   0.949   7.704  0.1217 -0.3577 -0.1061
  223loPI   C1B 3565  14.051   1.067   9.549 -0.1722 -0.1763  0.3831
  223loPI   C2B 3566  13.855   1.326   9.276 -0.1370 -0.1561 -0.0704
  223loPI   C3B 3567  14.001   1.521   8.911  0.0025  0.2049  0.0515
  223loPI   C4B 3568  14.079   1.484   8.472  0.4669  0.1982 -0.2293
  224loPI    C1 3569   7.986   3.625   9.854 -0.0362  0.0590 -0.2603
  224loPI    C2 3570   7.731   3.852  10.063  0.0894  0.0323 -0.0756
  224loPI    C3 3571   8.124   3.922  10.084  0.1225 -0.1434 -0.0903
  224loPI   PO4 3572   7.884   3.376   9.933 -0.0672  0.1686 -0.0417
  224loPI   GL1 3573   7.691   3.115   9.684 -0.0512 -0.3386 -0.0216
  224loPI   GL2 3574   7.805   2.820   9.823  0.2839 -0.0323  0.1051
  224loPI   C1A 3575   7.851   3.117   9.162  0.0015  0.3859 -0.0448
  224loPI   C2A 3576   7.934   3.014   8.740  0.3775  0.0144 -0.1654
  224loPI   C3A 3577   7.605   2.907   8.467 -0.0577  0.3389  0.1648
  224loPI   C4A 3578   7.346   2.908   8.052 -0.1605  0.0451 -0.1840
  224loPI   C5A 3579   7.158   2.591   7.776 -0.0127 -0.0382 -0.0281
  224loPI   C6A 3580   6.902   2.199   7.879  0.1598 -0.1450  0.0465
  224loPI   C1B 3581   7.624   2.717   9.337 -0.3878  0.1464 -0.2812
  224loPI   C2B 3582   7.620   2.638   8.863 -0.2452  0.1072 -0.2699
  224loPI   C3B 3583   7.904   2.522   8.444  0.0717 -0.0648  0.0767
  224loPI   C4B 3584   7.770   2.643   7.995 -0.1099 -0.4044 -0.0841
  225loPI    C1 3585  10.161   0.800  10.431 -0.0267  0.2100  0.1634
  225loPI    C2 3586  10.074   0.834  10.820  0.0638 -0.1518  0.2185
  225loPI    C3 3587  10.054   0.477  10.641  0.3754 -0.0518 -0.0236
  225loPI   PO4 3588  10.158   1.127  10.432  0.1833  0.0252 -0.1267
  225loPI   GL1 3589  10.139   1.393  10.026 -0.5308  0.0238  0.0548
  225loPI   GL2 3590  10.101   1.056   9.909 -0.1255  0.1112  0.1890
  225loPI   C1A 3591  10.031   1.512   9.539 -0.0798 -0.0627 -0.2941
  225loPI   C2A 3592   9.901   1.387   9.159 -0.3801 -0.3328  0.2140
  225loPI   C3A 3593   9.949   1.401   8.843  0.0034  0.0049  0.2561
  225loPI   C4A 3594   9.845   1.352   8.413  0.0661 -0.1245  0.4158
  225loPI   C5A 3595   9.786   1.078   8.042  0.0022 -0.3019  0.1086
  225loPI   C6A 3596   9.942   0.687   7.816 -0.0464  0.1794 -0.1199
  225loPI   C1B 3597  10.060   0.990   9.489  0.2996 -0.2230  0.0225
  225loPI   C2B 3598  10.110   0.890   9.121 -0.1638 -0.1416  0.0245
  225loPI   C3B 3599  10.079   0.962   8.695 -0.3083 -0.3728  0.2207
  225loPI   C4B 3600  10.056   0.724   8.324  0.1729  0.0400 -0.0659
  226loPI    C1 3601   0.166  15.246  10.344  0.0448  0.0793  0.1721
  226loPI    C2 3602   0.153  14.879  10.503 -0.0983 -0.0115 -0.0452
  226loPI    C3 3603   0.457  15.124  10.591  0.0275 -0.2015  0.0572
  226loPI   PO4 3604   0.001  15.193  10.069 -0.1607 -0.0931  0.3486
  226loPI   GL1 3605  -0.040  14.995   9.664 -0.2286  0.1882  0.2670
  226loPI   GL2 3606  -0.328  15.066   9.728  0.0308  0.0655  0.1894
  226loPI   C1A 3607   0.185  15.227   9.232  0.2612 -0.0390 -0.3590
  226loPI   C2A 3608   0.250  15.553   8.999  0.1925 -0.0795  0.0188
  226loPI   C3A 3609   0.281  15.454   8.616 -0.3187  0.1612 -0.1757
  226loPI   C4A 3610   0.356  15.210   8.266  0.0638 -0.1013 -0.2175
  226loPI   C5A 3611   0.688  15.107   8.069 -0.0743 -0.1095 -0.0330
  226loPI   C6A 3612   0.848  14.891   7.741 -0.0511  0.1999 -0.1776
  226loPI   C1B 3613  -0.371  15.011   9.266  0.1978  0.0110 -0.1254
  226loPI   C2B 3614  -0.432  14.917   8.808  0.0047 -0.0744 -0.0447
  226loPI   C3B 3615  -0.508  14.877   8.408 -0.3719 -0.0083  0.0547
  226loPI   C4B 3616  -0.471  15.136   8.030  0.1942  0.1414  0.1111
  227loPI    C1 3617   2.975   6.358  10.631  0.0172  0.0906 -0.1518
  227loPI    C2 3618   3.036   6.324  11.025  0.1962 -0.2704 -0.2061
  227loPI    C3 3619   2.697   6.488  10.888  0.1456 -0.1161  0.0958
  227loPI   PO4 3620   3.150   6.231  10.562  0.0466 -0.1239 -0.0141
  227loPI   GL1 3621   3.293   6.013  10.192 -0.0289 -0.0231  0.0782
  227loPI   GL2 3622   3.413   5.760  10.036  0.2184  0.0099 -0.1053
  227loPI   C1A 3623   3.004   5.855   9.780  0.0141 -0.0671  0.2242
  227loPI   C2A 3624   2.953   5.616   9.321 -0.1973 -0.1955  0.0977
  227loPI   C3A 3625   2.977   5.546   8.970 -0.1383 -0.0040  0.2532
  227loPI   C4A 3626   2.939   5.668   8.580  0.0190  0.1318 -0.0055
  227loPI   C5A 3627   2.989   5.645   8.118  0.2033  0.3314  0.2347
  227loPI   C6A 3628   2.653   5.558   7.818  0.2193  0.0380  0.1268
  227loPI   C1B 3629   3.422   5.983   9.573 -0.0763 -0.0022 -0.0818
  227loPI   C2B 3630   3.305   5.940   9.097  0.2153  0.1627 -0.0419
  227loPI   C3B 3631   3.224   6.090   8.689  0.0596 -0.1390  0.3180
  227loPI   C4B 3632   3.153   6.182   8.291  0.1271  0.0580  0.2430
  228loPI    C1 3633   6.011  16.759  10.877  0.2634 -0.0654  0.1199
  228loPI    C2 3634   6.210  17.053  10.693 -0.0333  0.1083  0.0706
  228loPI    C3 3635   5.930  17.140  10.966 -0.1162 -0.1287  0.0633
  228loPI   PO4 3636   5.993  16.597  10.667 -0.1093  0.0295  0.0715
  228loPI   GL1 3637   5.911  16.703  10.247  0.1381 -0.1910 -0.0802
  228loPI   GL2 3638   5.684  16.943  10.051  0.1179 -0.0421  0.0469
  228loPI   C1A 3639   5.958  16.399   9.970 -0.2735  0.1914  0.3897
  228loPI   C2A 3640   6.099  16.467   9.542  0.0932  0.0545 -0.1938
  228loPI   C3A 3641   6.071  16.426   9.107 -0.2763  0.1756  0.0417
  228loPI   C4A 3642   6.183  16.448   8.741  0.0768 -0.2806 -0.1727
  228loPI   C5A 3643   6.075  16.653   8.369 -0.0067 -0.1256 -0.1467
  228loPI   C6A 3644   6.081  16.808   8.036 -0.1074 -0.2828 -0.1587
  228loPI   C1B 3645   5.645  16.655   9.617  0.2964  0.3356 -0.2329
  228loPI   C2B 3646   5.650  16.779   9.139 -0.0843  0.1526  0.0474
  228loPI   C3B 3647   5.728  16.767   8.727  0.2471  0.1043 -0.0622
  228loPI   C4B 3648   5.762  16.287   8.564 -0.3380 -0.0837 -0.1430
  229loPI    C1 3649  18.403  17.393  10.577 -0.3556 -0.0875  0.1521
  229loPI    C2 3650  18.301  17.011  10.517 -0.1061 -0.1336  0.0092
  229loPI    C3 3651  18.627  17.100  10.732 -0.1446 -0.0016  0.0139
  229loPI   PO4 3652  18.420  17.446  10.302  0.1304 -0.0636  0.1487
  229loPI   GL1 3653  18.624  17.517   9.844 -0.2575  0.0959  0.1141
  229loPI   GL2 3654  18.364  17.237   9.838 -0.1565  0.1292 -0.3151
  229loPI   C1A 3655  18.713  17.427   9.472 -0.2751  0.0574 -0.1277
  229loPI   C2A 3656  18.852  17.394   9.115 -0.1416  0.0090 -0.1259
  229loPI   C3A 3657  19.007  17.304   8.727  0.2437  0.0286  0.1003
  229loPI   C4A 3658  19.021  17.319   8.243 -0.0373  0.0307 -0.1866
  229loPI   C5A 3659  19.055  17.615   8.015  0.1805  0.1514 -0.0133
  229loPI   C6A 3660  19.056  17.898   7.726  0.0377  0.2763 -0.1223
  229loPI   C1B 3661  18.238  17.340   9.438  0.0549 -0.0669 -0.0673
  229loPI   C2B 3662  18.283  17.346   9.003  0.0539  0.1655  0.2788
  229loPI   C3B 3663  18.326  17.416   8.530 -0.2442 -0.2002  0.0504
  229loPI   C4B 3664  18.516  17.344   8.177  0.1135  0.2046  0.2454
  230loPI    C1 3665  13.906  17.367  10.309 -0.0852  0.0718 -0.1647
  230loPI    C2 3666  13.956  17.762  10.354  0.0488  0.0385 -0.0104
  230loPI    C3 3667  13.639  17.580  10.518  0.0939  0.0504  0.0911
  230loPI   PO4 3668  13.937  17.302  10.095  0.0044  0.1573 -0.0070
  230loPI   GL1 3669  13.835  17.293   9.744  0.1268 -0.0007  0.1017
  230loPI   GL2 3670  14.013  17.594   9.712 -0.0187 -0.0774  0.1218
  230loPI   C1A 3671  13.357  17.320   9.614 -0.0678  0.4405  0.1019
  230loPI   C2A 3672  13.160  17.297   9.214 -0.3915 -0.4317 -0.2763
  230loPI   C3A 3673  13.151  17.326   8.759  0.1132 -0.0369  0.0731
  230loPI   C4A 3674  13.114  17.326   8.324 -0.1677  0.1333 -0.3750
  230loPI   C5A 3675  12.931  17.332   8.033  0.2953 -0.1192  0.0786
  230loPI   C6A 3676  12.699  17.644   7.815 -0.0417 -0.1446 -0.1639
  230loPI   C1B 3677  14.319  17.786   9.403 -0.2094 -0.0524 -0.1814
  230loPI   C2B 3678  14.241  18.071   9.081 -0.1511 -0.0655  0.2098
  230loPI   C3B 3679  14.384  18.195   8.637 -0.1486 -0.2207  0.1276
  230loPI   C4B 3680  14.801  17.904   8.516  0.0563  0.1206  0.2699
  231loPI    C1 3681  13.803   7.524   9.919  0.1332  0.1067  0.0667
  231loPI    C2 3682  13.987   7.385   9.593  0.0282 -0.1884  0.1303
  231loPI    C3 3683  14.103   7.731   9.754  0.1430 -0.0863 -0.1639
  231loPI   PO4 3684  13.556   7.523   9.861  0.1249 -0.0794  0.0589
  231loPI   GL1 3685  13.481   7.549   9.507 -0.2989 -0.0227  0.2303
  231loPI   GL2 3686  13.658   7.894   9.495 -0.1519 -0.1397  0.1077
  231loPI   C1A 3687  13.320   7.795   9.115  0.2104  0.1647  0.2260
  231loPI   C2A 3688  13.408   7.961   8.679 -0.1329  0.0439 -0.1020
  231loPI   C3A 3689  13.685   8.051   8.328 -0.3556 -0.0740  0.1795
  231loPI   C4A 3690  13.856   8.274   8.018  0.0497 -0.0187 -0.0263
  231loPI   C5A 3691  13.844   8.711   7.902 -0.0209  0.0425 -0.2271
  231loPI   C6A 3692  13.865   9.127   7.763 -0.2454 -0.0503 -0.0985
  231loPI   C1B 3693  13.768   8.278   9.175  0.0028  0.2624  0.1489
  231loPI   C2B 3694  13.695   8.642   9.150  0.1918  0.0269  0.1384
  231loPI   C3B 3695  13.483   8.889   8.875  0.0064 -0.2353  0.0472
  231loPI   C4B 3696  13.300   9.038   8.465  0.1632  0.1573 -0.1654
  232loPI    C1 3697  18.422   4.193  10.266  0.1668  0.1254  0.0093
  232loPI    C2 3698  18.171   4.499  10.323  0.0032  0.0139 -0.1004
  232loPI    C3 3699  18.225   4.228  10.612  0.0408  0.0682 -0.0560
  232loPI   PO4 3700  18.519   4.140   9.993  0.1424  0.0495 -0.2156
  232loPI   GL1 3701  18.371   4.009   9.556 -0.0678 -0.1406  0.0675
  232loPI   GL2 3702  18.390   4.293   9.511  0.1666  0.0575  0.0328
  232loPI   C1A 3703  18.366   4.005   9.064  0.0376  0.0771 -0.0312
  232loPI   C2A 3704  18.531   4.133   8.657 -0.0308  0.1392 -0.0176
  232loPI   C3A 3705  18.763   4.224   8.360  0.0476  0.2091 -0.1749
  232loPI   C4A 3706  19.087   4.072   8.058 -0.2610 -0.0639  0.0893
  232loPI   C5A 3707  19.559   3.885   8.028  0.0253 -0.0400 -0.1218
  232loPI   C6A 3708  19.771   3.740   7.674  0.1342 -0.1858 -0.1941
  232loPI   C1B 3709  18.320   4.581   9.179 -0.0126 -0.0324  0.3886
  232loPI   C2B 3710  18.284   4.588   8.711  0.0405  0.0140  0.1748
  232loPI   C3B 3711  18.029   4.753   8.209 -0.1191  0.0481  0.3571
  232loPI   C4B 3712  17.802   4.954   7.938 -0.1057  0.1147 -0.1896
  233loPI    C1 3713  14.827  16.033  10.136  0.0812 -0.1005 -0.0179
  233loPI    C2 3714  14.916  15.645  10.102 -0.1380 -0.1681  0.1554
  233loPI    C3 3715  14.962  15.831  10.453  0.1420  0.0107  0.0276
  233loPI   PO4 3716  14.579  16.061  10.025 -0.0506 -0.1701  0.3164
  233loPI   GL1 3717  14.574  16.063   9.705  0.2100 -0.0964  0.0339
  233loPI   GL2 3718  14.368  16.335   9.664  0.1133 -0.3067  0.2420
  233loPI   C1A 3719  14.446  16.033   9.239  0.0348  0.1660  0.3133
  233loPI   C2A 3720  14.441  16.236   8.926  0.1823 -0.0304 -0.1971
  233loPI   C3A 3721  14.386  16.503   8.520 -0.1019 -0.2784 -0.1501
  233loPI   C4A 3722  14.276  16.822   8.224 -0.0054  0.0813 -0.1374
  233loPI   C5A 3723  13.921  16.813   7.877  0.1190 -0.0867 -0.1249
  233loPI   C6A 3724  13.827  16.879   7.499 -0.0632 -0.1463 -0.0919
  233loPI   C1B 3725  14.358  16.565   9.325  0.1896  0.1309  0.0960
  233loPI   C2B 3726  14.258  16.768   8.943  0.1775  0.2569  0.3811
  233loPI   C3B 3727  14.119  17.118   8.704 -0.1624  0.0006  0.0044
  233loPI   C4B 3728  14.171  17.398   8.449  0.0443  0.3288  0.2539
  234loPI    C1 3729   8.034  11.603  10.420  0.2025  0.0321 -0.0174
  234loPI    C2 3730   8.132  11.354  10.717 -0.1158 -0.0842 -0.0066
  234loPI    C3 3731   8.218  11.743  10.746  0.1696 -0.1519  0.0816
  234loPI   PO4 3732   8.086  11.492  10.254 -0.0871 -0.1425 -0.1108
  234loPI   GL1 3733   7.865  11.433   9.894  0.0286 -0.0418 -0.0528
  234loPI   GL2 3734   8.029  11.758   9.854 -0.1113  0.0583 -0.1105
  234loPI   C1A 3735   7.864  11.476   9.456 -0.3295  0.0292  0.1845
  234loPI   C2A 3736   7.735  11.497   9.065  0.1994  0.2080  0.3388
  234loPI   C3A 3737   7.686  11.450   8.634 -0.4424  0.0081 -0.2101
  234loPI   C4A 3738   7.529  11.436   8.249 -0.3536  0.0282  0.0912
  234loPI   C5A 3739   7.232  11.422   7.942 -0.0813 -0.0393  0.2504
  234loPI   C6A 3740   6.795  11.618   7.837  0.4126  0.0088  0.0253
  234loPI   C1B 3741   7.768  11.988   9.505 -0.0090 -0.0227  0.1714
  234loPI   C2B 3742   7.631  11.945   9.095  0.0315  0.1275  0.3326
  234loPI   C3B 3743   7.531  11.929   8.708  0.1302 -0.1765  0.2106
  234loPI   C4B 3744   7.379  11.882   8.291  0.0125 -0.1340 -0.1255
  235loPI    C1 3745  16.709   0.304  10.453  0.0656 -0.0563  0.0120
  235loPI    C2 3746  17.068   0.258  10.623  0.0935 -0.1891 -0.0818
  235loPI    C3 3747  16.736   0.190  10.836  0.1189  0.1135  0.0597
  235loPI   PO4 3748  16.731   0.298  10.177 -0.2386 -0.0316  0.0279
  235loPI   GL1 3749  17.016   0.123   9.829 -0.0099  0.1706  0.4567
  235loPI   GL2 3750  16.606   0.101   9.747  0.2910 -0.0446 -0.2098
  235loPI   C1A 3751  17.084   0.056   9.517  0.0103  0.0128 -0.0243
  235loPI   C2A 3752  17.083  -0.082   9.042  0.1647  0.0277 -0.0701
  235loPI   C3A 3753  17.152  -0.062   8.559 -0.0292  0.0602  0.1170
  235loPI   C4A 3754  17.193   0.121   8.135 -0.5119  0.0925 -0.0389
  235loPI   C5A 3755  17.173   0.461   7.898  0.2625  0.0607  0.0412
  235loPI   C6A 3756  16.858   0.700   7.982 -0.1237 -0.1001 -0.0758
  235loPI   C1B 3757  16.671  -0.138   9.381 -0.1841  0.2300  0.1608
  235loPI   C2B 3758  16.609  -0.305   8.992 -0.2035 -0.1276  0.2043
  235loPI   C3B 3759  16.759  -0.436   8.498  0.1228 -0.0039  0.1097
  235loPI   C4B 3760  16.952  -0.308   8.139  0.0093  0.1697 -0.2215
  236loPI    C1 3761  14.932   2.152  10.276 -0.0774 -0.2496 -0.0324
  236loPI    C2 3762  15.315   2.148  10.391 -0.0347  0.0316 -0.1545
  236loPI    C3 3763  15.028   2.030  10.644  0.1208 -0.0599 -0.0191
  236loPI   PO4 3764  14.981   2.211   9.979 -0.1319  0.2742 -0.0829
  236loPI   GL1 3765  15.071   2.412   9.654 -0.0914 -0.4454 -0.0834
  236loPI   GL2 3766  14.956   2.686   9.518 -0.0963  0.0497 -0.1895
  236loPI   C1A 3767  15.152   2.362   9.223 -0.0070 -0.0461 -0.1794
  236loPI   C2A 3768  15.088   2.482   8.745  0.3943  0.4838 -0.0242
  236loPI   C3A 3769  14.941   2.750   8.409 -0.0892 -0.2084 -0.1401
  236loPI   C4A 3770  14.846   2.764   8.013  0.0133  0.1496 -0.0762
  236loPI   C5A 3771  14.714   2.421   7.751 -0.0401 -0.0255  0.0205
  236loPI   C6A 3772  14.537   2.023   7.764  0.4574  0.0728  0.0237
  236loPI   C1B 3773  14.785   2.723   9.104 -0.0371 -0.0334  0.2036
  236loPI   C2B 3774  14.550   2.821   8.716  0.3029 -0.0566  0.0157
  236loPI   C3B 3775  14.378   2.861   8.357  0.3267 -0.0942  0.1797
  236loPI   C4B 3776  14.357   2.998   7.943  0.2664 -0.3191  0.1892
  237loPI    C1 3777  15.470   7.806  10.163  0.0587 -0.1951  0.0018
  237loPI    C2 3778  15.198   7.954  10.416  0.1371 -0.0241 -0.0125
  237loPI    C3 3779  15.267   7.560  10.405 -0.0589 -0.0610  0.0405
  237loPI   PO4 3780  15.403   7.884   9.938 -0.2252 -0.3482  0.1969
  237loPI   GL1 3781  15.274   8.079   9.544  0.2873  0.1986 -0.0972
  237loPI   GL2 3782  15.569   8.248   9.474  0.0768 -0.2748 -0.3061
  237loPI   C1A 3783  15.153   8.045   9.151  0.0734 -0.1998  0.2039
  237loPI   C2A 3784  15.233   8.192   8.832 -0.1705  0.2480  0.1178
  237loPI   C3A 3785  15.105   8.143   8.378  0.0347 -0.3081 -0.1230
  237loPI   C4A 3786  15.053   8.169   8.015  0.0383 -0.0267  0.2819
  237loPI   C5A 3787  14.700   8.006   7.885  0.0556 -0.1822  0.0430
  237loPI   C6A 3788  14.414   7.692   8.029  0.0035 -0.0202 -0.2580
  237loPI   C1B 3789  15.770   8.132   9.070  0.3248 -0.0104 -0.0621
  237loPI   C2B 3790  15.785   8.310   8.641 -0.2409 -0.1630  0.0181
  237loPI   C3B 3791  15.862   8.630   8.268  0.0908  0.2019  0.1832
  237loPI   C4B 3792  15.979   9.054   8.191 -0.1166 -0.1081 -0.2315
  238loPI    C1 3793   1.153  17.898  10.375  0.0407 -0.0022  0.2248
  238loPI    C2 3794   1.412  17.727  10.628 -0.1362 -0.1082  0.3371
  238loPI    C3 3795   1.035  17.797  10.744 -0.1418  0.1046  0.1976
  238loPI   PO4 3796   1.378  17.946  10.162 -0.0623  0.1144  0.2862
  238loPI   GL1 3797   1.572  18.268   9.955  0.1392  0.1161  0.0284
  238loPI   GL2 3798   1.284  18.313   9.872  0.2220 -0.3467  0.0524
  238loPI   C1A 3799   1.622  18.167   9.504 -0.0873  0.3255  0.0036
  238loPI   C2A 3800   1.486  18.076   9.090  0.1512  0.0331  0.0930
  238loPI   C3A 3801   1.506  17.982   8.790  0.2070 -0.0996 -0.2504
  238loPI   C4A 3802   1.820  18.054   8.321 -0.2085 -0.5203  0.0105
  238loPI   C5A 3803   2.133  17.725   8.175 -0.0745 -0.1201 -0.0260
  238loPI   C6A 3804   2.175  17.297   8.060 -0.2214 -0.2926 -0.0808
  238loPI   C1B 3805   1.142  18.039   9.491  0.1178 -0.0114 -0.3690
  238loPI   C2B 3806   0.971  18.070   9.088  0.1499 -0.2239  0.0874
  238loPI   C3B 3807   1.037  18.194   8.636 -0.0543  0.0583 -0.0700
  238loPI   C4B 3808   0.877  18.070   8.227 -0.2135  0.3831 -0.1375
  239loPI    C1 3809  14.797   5.055  10.175 -0.1634  0.2767  0.1359
  239loPI    C2 3810  14.510   5.196   9.935  0.0628 -0.2783 -0.4893
  239loPI    C3 3811  14.424   4.914  10.205 -0.1319  0.1353 -0.1079
  239loPI   PO4 3812  15.067   5.035   9.945  0.2207  0.0623 -0.1280
  239loPI   GL1 3813  14.996   5.188   9.500  0.0030  0.1317  0.0102
  239loPI   GL2 3814  15.279   5.027   9.490  0.2659  0.2803 -0.1640
  239loPI   C1A 3815  14.785   5.073   9.111  0.0356 -0.2639  0.0419
  239loPI   C2A 3816  14.792   5.208   8.664 -0.1011 -0.1277  0.0118
  239loPI   C3A 3817  14.938   5.474   8.370  0.0805 -0.0600 -0.1866
  239loPI   C4A 3818  15.115   5.389   8.042  0.2912  0.0823 -0.0350
  239loPI   C5A 3819  15.059   5.602   7.676  0.0434 -0.0586  0.3782
  239loPI   C6A 3820  15.015   5.543   7.239 -0.2188 -0.1786  0.1106
  239loPI   C1B 3821  15.282   5.070   8.996  0.4055  0.0934  0.0390
  239loPI   C2B 3822  15.230   5.022   8.533 -0.1714  0.1511  0.1537
  239loPI   C3B 3823  15.373   4.990   8.077 -0.1251 -0.0318 -0.1660
  239loPI   C4B 3824  15.202   4.681   7.773 -0.1047  0.0961  0.1548
  240loPI    C1 3825   2.961  10.088  10.506  0.1252  0.3262  0.2446
  240loPI    C2 3826   2.633  10.104  10.733  0.0103  0.1129  0.0973
  240loPI    C3 3827   2.994  10.077  10.904 -0.0483  0.3274  0.2593
  240loPI   PO4 3828   2.841  10.181  10.207 -0.0927  0.0291  0.1172
  240loPI   GL1 3829   2.808   9.919   9.808 -0.2905 -0.0156 -0.0627
  240loPI   GL2 3830   2.672   9.639   9.879 -0.2538 -0.0145  0.1711
  240loPI   C1A 3831   3.117   9.949   9.486 -0.0254  0.3883 -0.0244
  240loPI   C2A 3832   3.326   9.706   9.309  0.0680  0.0792 -0.0265
  240loPI   C3A 3833   3.378   9.367   9.047 -0.1243 -0.2440  0.1034
  240loPI   C4A 3834   3.378   9.424   8.699  0.1171  0.4312 -0.0116
  240loPI   C5A 3835   3.449   9.788   8.283  0.0166 -0.1105  0.0176
  240loPI   C6A 3836   3.655  10.102   8.079 -0.1815 -0.0258  0.1902
  240loPI   C1B 3837   2.925   9.432   9.563  0.0029  0.2525 -0.0278
  240loPI   C2B 3838   2.841   9.267   9.091  0.1161 -0.1628  0.2483
  240loPI   C3B 3839   2.891   9.160   8.551  0.2513 -0.2094  0.2235
  240loPI   C4B 3840   3.237   9.005   8.295 -0.1043  0.1248 -0.1516
  241loPI    C1 3841  10.189   6.620   9.843 -0.1770  0.1435  0.1111
  241loPI    C2 3842  10.395   6.336  10.035 -0.0445  0.2020  0.0564
  241loPI    C3 3843  10.003   6.378  10.102 -0.0633  0.0124  0.0714
  241loPI   PO4 3844  10.413   6.846   9.833  0.5682  0.1189 -0.0529
  241loPI   GL1 3845  10.854   6.917   9.728 -0.0657 -0.0871  0.1747
  241loPI   GL2 3846  11.053   7.253   9.695  0.1755  0.0445 -0.2045
  241loPI   C1A 3847  11.079   6.774   9.317  0.0462  0.0849 -0.0494
  241loPI   C2A 3848  11.064   6.928   8.885 -0.0824 -0.0235  0.0263
  241loPI   C3A 3849  11.181   6.922   8.521  0.0666 -0.1454  0.1858
  241loPI   C4A 3850  10.971   6.965   8.133 -0.3050 -0.1436  0.1271
  241loPI   C5A 3851  10.644   6.908   7.741 -0.0998  0.1041  0.1105
  241loPI   C6A 3852  10.302   6.626   7.640 -0.1364  0.0654 -0.1026
  241loPI   C1B 3853  11.217   7.267   9.319 -0.3809  0.1809  0.2289
  241loPI   C2B 3854  11.244   7.391   8.971  0.0137 -0.1229  0.0722
  241loPI   C3B 3855  11.247   7.486   8.597 -0.1582  0.4406 -0.2197
  241loPI   C4B 3856  11.598   7.652   8.466 -0.5541 -0.1208 -0.3978
  242loPI    C1 3857  12.369   8.531  10.174 -0.1126 -0.1789 -0.1775
  242loPI    C2 3858  12.326   8.164  10.328 -0.0676 -0.0963  0.0353
  242loPI    C3 3859  12.115   8.470  10.477 -0.0039 -0.0098 -0.0504
  242loPI   PO4 3860  12.416   8.409   9.916  0.2351 -0.2242  0.3777
  242loPI   GL1 3861  12.302   8.279   9.469  0.2285 -0.1706  0.1060
  242loPI   GL2 3862  12.071   8.132   9.562  0.1089  0.3333  0.3758
  242loPI   C1A 3863  12.730   8.351   9.295 -0.0478 -0.0686  0.1153
  242loPI   C2A 3864  12.867   8.767   9.072 -0.0886  0.1032  0.0422
  242loPI   C3A 3865  12.933   8.829   8.644 -0.1538 -0.3057 -0.0279
  242loPI   C4A 3866  12.985   8.741   8.224  0.1170 -0.0610 -0.0887
  242loPI   C5A 3867  12.826   8.755   7.830  0.0408 -0.1221 -0.0732
  242loPI   C6A 3868  12.466   8.933   7.623 -0.0146  0.0490  0.1586
  242loPI   C1B 3869  11.984   8.141   9.050 -0.2543  0.2110  0.2178
  242loPI   C2B 3870  12.062   8.028   8.637 -0.2258 -0.4348  0.2059
  242loPI   C3B 3871  12.037   7.921   8.219 -0.0853  0.0462 -0.0291
  242loPI   C4B 3872  11.933   7.444   8.140  0.1039  0.2432  0.1204
  243loPI    C1 3873  15.685   6.847  10.257  0.3015 -0.0322 -0.0247
  243loPI    C2 3874  15.498   7.126  10.474  0.2043 -0.0360 -0.1031
  243loPI    C3 3875  15.483   6.742  10.586  0.3175 -0.0134 -0.0089
  243loPI   PO4 3876  15.725   6.948  10.086  0.0451  0.1021 -0.1847
  243loPI   GL1 3877  15.689   6.999   9.638 -0.0239 -0.1783  0.0765
  243loPI   GL2 3878  15.826   7.279   9.423 -0.2261 -0.0446  0.0126
  243loPI   C1A 3879  15.594   6.963   9.124 -0.0494 -0.0458  0.3691
  243loPI   C2A 3880  15.641   7.120   8.704 -0.1813  0.1525  0.0724
  243loPI   C3A 3881  15.663   7.262   8.306 -0.1288 -0.1073 -0.0231
  243loPI   C4A 3882  15.782   7.458   8.078  0.1555 -0.3682 -0.3463
  243loPI   C5A 3883  16.181   7.607   7.965 -0.2490 -0.0218  0.0022
  243loPI   C6A 3884  16.575   7.511   7.906 -0.2832  0.0139 -0.2611
  243loPI   C1B 3885  16.013   7.241   9.019 -0.6466 -0.1971  0.0544
  243loPI   C2B 3886  16.140   7.251   8.604 -0.0164  0.0663 -0.2905
  243loPI   C3B 3887  16.219   7.173   8.200 -0.1812  0.5617 -0.0347
  243loPI   C4B 3888  16.302   7.112   7.782 -0.1772 -0.1140  0.0744
  244loPI    C1 3889   1.648   5.683  10.738 -0.0290 -0.0420 -0.1318
  244loPI    C2 3890   1.519   5.348  10.914 -0.1599  0.1421  0.1282
  244loPI    C3 3891   1.390   5.704  11.043  0.0660  0.2988 -0.0714
  244loPI   PO4 3892   1.792   5.469  10.386  0.0772 -0.2128 -0.1412
  244loPI   GL1 3893   1.840   5.689   9.959  0.0735  0.0171 -0.0880
  244loPI   GL2 3894   1.496   5.612   9.816 -0.1385  0.2613 -0.1637
  244loPI   C1A 3895   2.180   5.768   9.635 -0.2153 -0.1093 -0.1838
  244loPI   C2A 3896   2.385   5.798   9.225 -0.1926 -0.1298  0.2402
  244loPI   C3A 3897   2.322   5.781   8.769 -0.2342 -0.0357 -0.3026
  244loPI   C4A 3898   2.437   5.877   8.313 -0.2426 -0.1446  0.0171
  244loPI   C5A 3899   2.743   6.077   8.090  0.1777 -0.0301  0.0864
  244loPI   C6A 3900   2.978   5.971   7.759  0.2597  0.0342 -0.1523
  244loPI   C1B 3901   1.607   5.329   9.551  0.4212  0.1330  0.2390
  244loPI   C2B 3902   1.568   5.314   9.058  0.0744  0.1102 -0.0689
  244loPI   C3B 3903   1.633   5.391   8.615 -0.0752  0.0334  0.0158
  244loPI   C4B 3904   1.884   5.087   8.239 -0.0894 -0.1630 -0.1064
  245loPI    C1 3905   1.372  11.831  10.094 -0.2365  0.0237 -0.2072
  245loPI    C2 3906   1.565  11.595   9.835 -0.2574  0.0459 -0.2433
  245loPI    C3 3907   1.299  11.438  10.088  0.0210 -0.0303  0.0080
  245loPI   PO4 3908   1.249  12.072  10.012 -0.0354 -0.1325 -0.0912
  245loPI   GL1 3909   1.193  12.281   9.614 -0.1645  0.2359 -0.1041
  245loPI   GL2 3910   1.094  12.594   9.466  0.2458  0.3570 -0.1945
  245loPI   C1A 3911   1.204  12.058   9.246  0.2668 -0.1061  0.1144
  245loPI   C2A 3912   0.994  12.028   8.809 -0.1443 -0.2227 -0.1219
  245loPI   C3A 3913   0.910  12.079   8.443 -0.1851  0.0379 -0.0593
  245loPI   C4A 3914   0.975  12.319   8.089 -0.0317  0.1467  0.3650
  245loPI   C5A 3915   1.092  12.348   7.660  0.0481 -0.2224 -0.1595
  245loPI   C6A 3916   1.297  12.613   7.369  0.0393  0.0417  0.2173
  245loPI   C1B 3917   0.921  12.531   9.057 -0.1669  0.1470 -0.0029
  245loPI   C2B 3918   0.872  12.548   8.593  0.0728 -0.2837 -0.0241
  245loPI   C3B 3919   0.704  12.767   8.261  0.0219  0.1968 -0.0792
  245loPI   C4B 3920   0.811  13.092   8.035 -0.0036 -0.2097 -0.0920
  246loPI    C1 3921  13.714  16.580  10.444 -0.0638 -0.0793 -0.1505
  246loPI    C2 3922  14.013  16.845  10.431 -0.1214 -0.0174 -0.2245
  246loPI    C3 3923  13.772  16.831  10.750 -0.0575 -0.0479 -0.1773
  246loPI   PO4 3924  13.684  16.599  10.160 -0.1300  0.2649 -0.0200
  246loPI   GL1 3925  13.931  16.811   9.941 -0.1575 -0.0266 -0.5087
  246loPI   GL2 3926  13.511  16.925   9.872  0.1239  0.2951 -0.0233
  246loPI   C1A 3927  13.892  16.677   9.583 -0.2869 -0.1740  0.0893
  246loPI   C2A 3928  13.785  16.650   9.112  0.3615 -0.0514  0.1838
  246loPI   C3A 3929  13.841  16.707   8.689 -0.0125 -0.1696  0.0434
  246loPI   C4A 3930  13.756  16.985   8.351 -0.1486  0.2209 -0.0436
  246loPI   C5A 3931  13.534  17.238   8.075 -0.0989  0.2942 -0.0814
  246loPI   C6A 3932  13.346  17.652   7.800  0.3501 -0.3076 -0.0288
  246loPI   C1B 3933  13.444  16.884   9.414  0.1774  0.0744 -0.4254
  246loPI   C2B 3934  13.328  16.845   8.980 -0.1923  0.0711 -0.0948
  246loPI   C3B 3935  13.276  16.846   8.592 -0.2022  0.0142  0.5858
  246loPI   C4B 3936  12.970  16.779   8.234 -0.3602  0.1318  0.3023
  247loPI    C1 3937  10.728   5.032  10.110 -0.0252 -0.0586 -0.0724
  247loPI    C2 3938  10.843   5.377  10.278 -0.0723  0.0253 -0.2101
  247loPI    C3 3939  10.771   5.056  10.507 -0.1002  0.1275 -0.0745
  247loPI   PO4 3940  10.567   5.100   9.945  0.0788  0.2628 -0.1904
  247loPI   GL1 3941  10.591   5.311   9.552  0.2179  0.0891  0.1331
  247loPI   GL2 3942  10.301   5.493   9.538  0.0435 -0.0633  0.1498
  247loPI   C1A 3943  10.663   5.156   9.065  0.0561 -0.0106  0.0310
  247loPI   C2A 3944  10.816   4.884   8.829  0.0962  0.0328 -0.0839
  247loPI   C3A 3945  10.814   4.941   8.448  0.1233 -0.0379 -0.0219
  247loPI   C4A 3946  10.782   4.819   8.086  0.1510 -0.0276 -0.0767
  247loPI   C5A 3947  10.838   4.481   7.900  0.1067  0.0227  0.0042
  247loPI   C6A 3948  10.729   4.069   7.749  0.2825 -0.0042  0.2060
  247loPI   C1B 3949  10.253   5.442   9.138 -0.0431 -0.1870  0.3160
  247loPI   C2B 3950  10.264   5.273   8.779 -0.4508 -0.0672  0.2110
  247loPI   C3B 3951   9.957   5.470   8.417 -0.1447  0.0168 -0.0904
  247loPI   C4B 3952   9.919   5.329   7.979 -0.0379  0.1554  0.1242
  248loPI    C1 3953  18.389   0.514  10.531  0.1690  0.1381  0.1036
  248loPI    C2 3954  18.038   0.351  10.430  0.1767  0.2980 -0.1915
  248loPI    C3 3955  18.194   0.281  10.792 -0.0025 -0.0350 -0.1746
  248loPI   PO4 3956  18.568   0.436  10.339  0.2060 -0.0214 -0.1255
  248loPI   GL1 3957  18.706   0.209   9.947 -0.0730 -0.2044  0.0924
  248loPI   GL2 3958  18.249   0.250   9.978 -0.0738 -0.0141  0.2131
  248loPI   C1A 3959  18.802   0.310   9.569 -0.0705 -0.0579 -0.1633
  248loPI   C2A 3960  18.837   0.345   9.106  0.3719 -0.3703  0.1087
  248loPI   C3A 3961  18.934   0.311   8.657  0.0809 -0.0651 -0.1202
  248loPI   C4A 3962  18.995   0.023   8.255 -0.1244 -0.0213  0.0454
  248loPI   C5A 3963  18.807  -0.325   8.087  0.2508 -0.1517 -0.0157
  248loPI   C6A 3964  18.520  -0.630   7.893 -0.2438 -0.0034 -0.0956
  248loPI   C1B 3965  18.339   0.277   9.482 -0.1680  0.2765 -0.1357
  248loPI   C2B 3966  18.318   0.316   9.099 -0.0787  0.0832 -0.0135
  248loPI   C3B 3967  18.489   0.445   8.714 -0.0160 -0.0704  0.4300
  248loPI   C4B 3968  18.741   0.676   8.358  0.1789 -0.1251  0.0627
  249loPI    C1 3969   2.101  12.924  10.063 -0.0523 -0.2219 -0.1238
  249loPI    C2 3970   2.320  12.589  10.076 -0.1131 -0.2591 -0.0488
  249loPI    C3 3971   2.272  12.810  10.406  0.0112 -0.1210 -0.1214
  249loPI   PO4 3972   2.149  12.946   9.771  0.2352 -0.3095 -0.4255
  249loPI   GL1 3973   2.062  12.822   9.438  0.1181  0.0937 -0.1354
  249loPI   GL2 3974   2.127  12.467   9.297  0.4718 -0.0467  0.0964
  249loPI   C1A 3975   2.294  12.996   9.044 -0.1252  0.2383 -0.1343
  249loPI   C2A 3976   2.193  13.117   8.575 -0.1145 -0.1789  0.1208
  249loPI   C3A 3977   2.077  12.796   8.282  0.1828 -0.0860  0.1633
  249loPI   C4A 3978   2.172  12.522   7.986  0.3286  0.1359  0.1184
  249loPI   C5A 3979   2.388  12.345   7.677 -0.2460 -0.1188  0.0417
  249loPI   C6A 3980   2.520  12.562   7.287 -0.2847  0.2076 -0.1846
  249loPI   C1B 3981   1.957  12.641   8.947 -0.1681  0.0726 -0.1495
  249loPI   C2B 3982   1.804  12.472   8.613  0.0230  0.0441 -0.3108
  249loPI   C3B 3983   1.576  11.994   8.658 -0.0197  0.0381  0.3512
  249loPI   C4B 3984   1.475  11.576   8.563  0.1928 -0.1600  0.1571
  250loPI    C1 3985   1.662   7.715  10.147 -0.2905  0.0157 -0.0197
  250loPI    C2 3986   1.519   7.501  10.453 -0.0828 -0.1720 -0.0511
  250loPI    C3 3987   1.370   7.865  10.376 -0.0232 -0.0514  0.3757
  250loPI   PO4 3988   1.623   7.516   9.977  0.1588 -0.2142 -0.4194
  250loPI   GL1 3989   1.923   7.235   9.749  0.3376 -0.2426  0.0280
  250loPI   GL2 3990   1.933   7.011   9.861 -0.2247  0.1364  0.3149
  250loPI   C1A 3991   1.871   7.361   9.289 -0.0782 -0.2134 -0.0450
  250loPI   C2A 3992   1.770   7.233   8.807 -0.3829 -0.2250 -0.4907
  250loPI   C3A 3993   1.562   7.121   8.441 -0.0725  0.0793 -0.4350
  250loPI   C4A 3994   1.482   6.927   8.087  0.0321 -0.0119  0.3672
  250loPI   C5A 3995   1.383   6.468   7.910  0.2496  0.0048 -0.0390
  250loPI   C6A 3996   1.101   6.286   7.607 -0.4257 -0.0166  0.2093
  250loPI   C1B 3997   2.086   6.816   9.466  0.1876 -0.0362 -0.2925
  250loPI   C2B 3998   2.051   6.906   9.033 -0.0974 -0.1224  0.0534
  250loPI   C3B 3999   1.894   6.715   8.705 -0.0890 -0.0471 -0.1403
  250loPI   C4B 4000   1.964   6.665   8.271  0.1456 -0.0465 -0.4404
  251loPI    C1 4001  10.442   2.560  10.737  0.2393  0.2626 -0.2689
  251loPI    C2 4002  10.777   2.707  10.900  0.1731  0.0386  0.0804
  251loPI    C3 4003  10.427   2.753  11.088  0.0303  0.1278 -0.2020
  251loPI   PO4 4004  10.517   2.602  10.520 -0.0689  0.2536  0.0779
  251loPI   GL1 4005  10.630   2.562  10.061  0.3107  0.0355  0.4522
  251loPI   GL2 4006  10.271   2.406   9.972  0.1032 -0.3789 -0.1272
  251loPI   C1A 4007  10.624   2.579   9.591 -0.2101  0.1807 -0.0022
  251loPI   C2A 4008  10.519   2.880   9.240  0.1362  0.1285  0.1550
  251loPI   C3A 4009  10.178   2.730   8.994 -0.1961  0.0840 -0.1144
  251loPI   C4A 4010   9.880   2.742   8.641  0.4324  0.0616 -0.0881
  251loPI   C5A 4011   9.716   2.637   8.170  0.2428  0.0554 -0.2060
  251loPI   C6A 4012   9.782   2.493   7.743  0.5444 -0.1087 -0.2081
  251loPI   C1B 4013  10.462   2.168   9.780 -0.1053  0.0169  0.2138
  251loPI   C2B 4014  10.315   1.965   9.494 -0.1876 -0.0509  0.0523
  251loPI   C3B 4015  10.360   1.817   9.100  0.2189  0.2078 -0.2395
  251loPI   C4B 4016  10.600   1.863   8.686  0.0192  0.0789  0.1921
  252loPI    C1 4017  10.772   4.254  10.035  0.0261  0.0315 -0.4589
  252loPI    C2 4018  11.117   4.394   9.889  0.2831 -0.0668  0.0323
  252loPI    C3 4019  10.934   4.586  10.188  0.0638 -0.1781 -0.0282
  252loPI   PO4 4020  10.673   4.143   9.790 -0.0705 -0.0765  0.0300
  252loPI   GL1 4021  10.516   4.031   9.397  0.0160  0.0143  0.0228
  252loPI   GL2 4022  10.350   4.348   9.449  0.0514 -0.1758 -0.3166
  252loPI   C1A 4023  10.853   3.794   9.254 -0.1327 -0.0844 -0.0094
  252loPI   C2A 4024  11.073   3.845   8.913 -0.2440  0.1194  0.0018
  252loPI   C3A 4025  10.899   4.094   8.591  0.1836  0.2037  0.2427
  252loPI   C4A 4026  10.973   4.042   8.171  0.0631 -0.1587 -0.1839
  252loPI   C5A 4027  11.260   4.183   7.804 -0.0892  0.1905 -0.0867
  252loPI   C6A 4028  11.137   3.919   7.514  0.0349 -0.2219 -0.1547
  252loPI   C1B 4029  10.130   4.156   9.100 -0.1363 -0.0075  0.1908
  252loPI   C2B 4030   9.980   3.767   8.798 -0.1858 -0.0209 -0.3035
  252loPI   C3B 4031   9.776   3.616   8.426 -0.0357 -0.1213 -0.2614
  252loPI   C4B 4032   9.415   3.842   8.167 -0.1080  0.0810 -0.1002
  253loPI    C1 4033   4.975  10.122  10.070 -0.1625  0.1835 -0.0664
  253loPI    C2 4034   5.349  10.264  10.052 -0.0552 -0.0834  0.0047
  253loPI    C3 4035   5.240  10.026  10.354 -0.2588 -0.0792 -0.0634
  253loPI   PO4 4036   4.797  10.332  10.007  0.3157 -0.0387 -0.1647
  253loPI   GL1 4037   4.700  10.740   9.863  0.1220 -0.2596 -0.1430
  253loPI   GL2 4038   4.539  10.972   9.940  0.3729  0.1506  0.0753
  253loPI   C1A 4039   4.744  10.918   9.440  0.1492  0.3891  0.0907
  253loPI   C2A 4040   4.524  11.138   9.134 -0.1320  0.1842 -0.1257
  253loPI   C3A 4041   4.337  11.024   8.804  0.2243  0.1459 -0.0829
  253loPI   C4A 4042   4.410  11.070   8.398  0.0836  0.0555 -0.0260
  253loPI   C5A 4043   4.375  10.989   7.915 -0.0718  0.0733 -0.0519
  253loPI   C6A 4044   4.467  11.180   7.564  0.0945  0.0853 -0.4050
  253loPI   C1B 4045   4.241  10.923   9.598  0.0714 -0.0535  0.1855
  253loPI   C2B 4046   4.274  10.736   9.230  0.2032 -0.0201  0.2811
  253loPI   C3B 4047   4.609  10.589   8.980  0.0217  0.1464 -0.1283
  253loPI   C4B 4048   4.780  10.817   8.742 -0.1095 -0.0833 -0.1235
  254loPI    C1 4049   6.406  18.266  10.352  0.0254 -0.0172  0.0827
  254loPI    C2 4050   6.216  18.489  10.624 -0.2778 -0.1210 -0.0395
  254loPI    C3 4051   6.186  18.090  10.637  0.0390 -0.1453  0.0152
  254loPI   PO4 4052   6.642  18.300  10.233 -0.2742 -0.0100  0.3250
  254loPI   GL1 4053   6.744  18.464   9.842 -0.0883  0.1354 -0.0035
  254loPI   GL2 4054   6.739  18.800   9.883  0.0649 -0.0961  0.2790
  254loPI   C1A 4055   6.796  18.321   9.504  0.0136  0.2910  0.1123
  254loPI   C2A 4056   6.864  18.381   9.137 -0.0198  0.0308  0.2322
  254loPI   C3A 4057   6.828  18.281   8.694 -0.0407  0.3059 -0.2048
  254loPI   C4A 4058   6.710  18.325   8.351  0.0407 -0.0263 -0.0885
  254loPI   C5A 4059   6.839  18.335   7.906  0.1544  0.0709  0.2309
  254loPI   C6A 4060   6.699  18.364   7.391  0.2022  0.2107 -0.0199
  254loPI   C1B 4061   6.814  18.779   9.410  0.0078 -0.0167  0.1007
  254loPI   C2B 4062   6.784  18.744   8.885 -0.1251 -0.1880  0.1205
  254loPI   C3B 4063   6.722  18.811   8.432 -0.0841 -0.1454  0.1500
  254loPI   C4B 4064   6.860  18.894   8.020 -0.0191  0.1453 -0.0433
  255loPI    C1 4065   8.509   4.420  10.162 -0.2046 -0.0697  0.2277
  255loPI    C2 4066   8.816   4.602  10.341 -0.0997 -0.0619  0.0423
  255loPI    C3 4067   8.642   4.287  10.515  0.0520 -0.1037  0.1202
  255loPI   PO4 4068   8.637   4.376   9.870  0.2494 -0.3530  0.0796
  255loPI   GL1 4069   8.805   4.210   9.372  0.2965 -0.0404 -0.2814
  255loPI   GL2 4070   9.039   4.209   9.247  0.1538  0.1704 -0.1502
  255loPI   C1A 4071   8.467   4.346   9.137 -0.2445  0.0904 -0.0746
  255loPI   C2A 4072   8.189   4.481   8.846 -0.1510  0.1101  0.1672
  255loPI   C3A 4073   8.137   4.583   8.385  0.0768  0.2093 -0.1261
  255loPI   C4A 4074   8.089   4.886   8.039  0.2229  0.2556 -0.1076
  255loPI   C5A 4075   7.901   5.152   7.783 -0.0300 -0.0984 -0.0308
  255loPI   C6A 4076   7.752   5.552   7.774  0.1343  0.1618 -0.1419
  255loPI   C1B 4077   9.062   4.102   8.867  0.2027  0.0957  0.2800
  255loPI   C2B 4078   9.011   4.019   8.513  0.1419 -0.0175 -0.1534
  255loPI   C3B 4079   8.959   4.068   8.124  0.2629  0.1559 -0.0690
  255loPI   C4B 4080   9.015   3.916   7.757  0.0943 -0.0368 -0.0130
  256loPI    C1 4081  16.210   2.019  10.536  0.1111 -0.1004 -0.0276
  256loPI    C2 4082  16.104   1.776  10.835  0.0734 -0.2062 -0.1264
  256loPI    C3 4083  16.475   1.925  10.821  0.0392 -0.1025  0.0389
  256loPI   PO4 4084  16.269   1.877  10.228 -0.1741 -0.0042  0.0089
  256loPI   GL1 4085  16.081   2.092   9.796  0.0960  0.1379  0.2309
  256loPI   GL2 4086  16.178   2.390   9.675  0.2195  0.0044  0.2417
  256loPI   C1A 4087  16.080   1.844   9.430 -0.0545  0.1363  0.0477
  256loPI   C2A 4088  16.124   1.771   9.079 -0.1247  0.1072 -0.2790
  256loPI   C3A 4089  16.032   1.682   8.655  0.0420  0.1487  0.3462
  256loPI   C4A 4090  15.799   1.592   8.237 -0.0545 -0.0782 -0.4373
  256loPI   C5A 4091  16.010   1.304   7.950 -0.2241 -0.0421  0.0570
  256loPI   C6A 4092  15.928   1.013   7.678 -0.0860 -0.1938 -0.1075
  256loPI   C1B 4093  16.105   2.263   9.167 -0.0288 -0.0139  0.0547
  256loPI   C2B 4094  16.033   2.283   8.706 -0.1314  0.2137 -0.3126
  256loPI   C3B 4095  15.885   2.412   8.247 -0.0789 -0.4048  0.0619
  256loPI   C4B 4096  16.008   2.477   7.827  0.2379 -0.1421  0.1964
  257loPI    C1 4097   9.883  12.499  10.073 -0.1891  0.1160  0.0226
  257loPI    C2 4098  10.061  12.740  10.338  0.2023 -0.2755  0.1284
  257loPI    C3 4099   9.700  12.588  10.417 -0.0386  0.2427  0.0713
  257loPI   PO4 4100   9.913  12.696   9.823  0.1500 -0.2327 -0.1889
  257loPI   GL1 4101  10.217  12.593   9.490  0.1747 -0.2154 -0.0014
  257loPI   GL2 4102  10.500  12.497   9.281 -0.1131 -0.3399  0.1283
  257loPI   C1A 4103  10.202  12.893   9.280  0.0704  0.3516 -0.2952
  257loPI   C2A 4104  10.292  13.086   8.885  0.1660 -0.2721  0.1016
  257loPI   C3A 4105  10.133  13.247   8.511 -0.1877  0.0448 -0.3123
  257loPI   C4A 4106  10.048  13.502   8.017  0.1879 -0.0783 -0.0514
  257loPI   C5A 4107   9.766  13.771   7.724  0.1981  0.2679 -0.1604
  257loPI   C6A 4108   9.492  13.730   7.415  0.0711 -0.3140 -0.2654
  257loPI   C1B 4109  10.568  12.268   8.948  0.1075  0.0371  0.1407
  257loPI   C2B 4110  10.636  12.357   8.587 -0.0232 -0.3557 -0.0093
  257loPI   C3B 4111  10.697  12.503   8.144 -0.0845  0.1950  0.1605
  257loPI   C4B 4112  10.461  12.653   7.788 -0.2726  0.2269 -0.1470
  258loPI    C1 4113  16.616  15.198  10.077 -0.2182 -0.0820 -0.0790
  258loPI    C2 4114  16.376  15.391   9.821 -0.2058 -0.0394 -0.0588
  258loPI    C3 4115  16.305  15.409  10.215 -0.1091  0.0591 -0.0452
  258loPI   PO4 4116  16.698  14.999  10.036 -0.1477  0.2266 -0.1717
  258loPI   GL1 4117  16.706  14.716   9.680  0.2584 -0.1440 -0.0943
  258loPI   GL2 4118  16.629  15.039   9.570  0.0216 -0.2298  0.4280
  258loPI   C1A 4119  17.160  14.836   9.405  0.1534  0.0921 -0.3335
  258loPI   C2A 4120  17.437  15.005   9.020 -0.0728 -0.3253  0.0687
  258loPI   C3A 4121  17.622  15.208   8.622  0.0888  0.0262  0.2259
  258loPI   C4A 4122  17.738  15.508   8.378  0.1202 -0.1048 -0.0827
  258loPI   C5A 4123  17.772  15.537   7.972  0.0347 -0.2214  0.1367
  258loPI   C6A 4124  17.696  15.291   7.609 -0.1563  0.1119 -0.2432
  258loPI   C1B 4125  16.642  14.850   9.198 -0.0812  0.0894  0.0488
  258loPI   C2B 4126  16.968  14.918   8.929  0.0524  0.1288 -0.0641
  258loPI   C3B 4127  17.252  14.888   8.590 -0.0968 -0.0162 -0.1641
  258loPI   C4B 4128  17.516  15.041   8.114 -0.0238  0.1891 -0.1218
  259loPI    C1 4129   6.498  10.530  10.328 -0.3927 -0.0565  0.3094
  259loPI    C2 4130   6.641  10.175  10.444  0.2814  0.1316  0.1006
  259loPI    C3 4131   6.613  10.475  10.707  0.1170  0.0506  0.1773
  259loPI   PO4 4132   6.642  10.592  10.065 -0.2286  0.1618  0.0500
  259loPI   GL1 4133   6.716  10.701   9.621 -0.1254  0.1156 -0.1337
  259loPI   GL2 4134   6.772  10.370   9.506  0.2083  0.3644 -0.0665
  259loPI   C1A 4135   6.602  10.770   9.268  0.2680  0.0099  0.1061
  259loPI   C2A 4136   6.605  11.123   8.905  0.2810  0.3223  0.0085
  259loPI   C3A 4137   6.542  11.190   8.443 -0.0221 -0.0529 -0.0552
  259loPI   C4A 4138   6.548  11.236   7.975  0.2338 -0.2917  0.2278
  259loPI   C5A 4139   6.284  11.256   7.596  0.3418  0.3033  0.3592
  259loPI   C6A 4140   5.973  10.913   7.629 -0.2489  0.1021 -0.1205
  259loPI   C1B 4141   6.728  10.372   9.010  0.1289  0.2553  0.0862
  259loPI   C2B 4142   6.655  10.673   8.693  0.3242  0.3443 -0.5859
  259loPI   C3B 4143   6.645  10.714   8.245  0.0583 -0.1427  0.1052
  259loPI   C4B 4144   6.434  10.745   7.837 -0.0201  0.0233  0.0732
  260loPI    C1 4145   8.020  17.842  10.485  0.1425 -0.1341 -0.1805
  260loPI    C2 4146   8.162  17.468  10.482  0.2786 -0.0947  0.3409
  260loPI    C3 4147   7.769  17.532  10.521  0.1886 -0.1860 -0.2987
  260loPI   PO4 4148   8.269  17.955  10.546 -0.1470 -0.3703 -0.4427
  260loPI   GL1 4149   8.564  17.896  10.294  0.1483 -0.1905  0.0746
  260loPI   GL2 4150   8.753  17.589  10.207 -0.3186  0.1949 -0.0606
  260loPI   C1A 4151   8.785  18.009   9.973  0.0897  0.2840  0.0153
  260loPI   C2A 4152   9.059  18.278   9.769  0.2457 -0.0726  0.0810
  260loPI   C3A 4153   9.077  18.278   9.477 -0.0064  0.1165  0.0120
  260loPI   C4A 4154   9.217  18.185   8.995  0.0698 -0.2500 -0.1877
  260loPI   C5A 4155   9.235  18.269   8.602 -0.0651  0.3627  0.0348
  260loPI   C6A 4156   9.492  18.182   8.278 -0.1276  0.0707 -0.0176
  260loPI   C1B 4157   8.848  17.511   9.834  0.2497 -0.3370 -0.1017
  260loPI   C2B 4158   8.850  17.645   9.459  0.0477 -0.0212  0.0160
  260loPI   C3B 4159   9.051  17.699   9.054  0.0892  0.2006  0.0080
  260loPI   C4B 4160   9.041  17.723   8.554 -0.0334  0.0211  0.3599
  261loPI    C1 4161   4.108  17.856  10.520  0.0664  0.2171 -0.3022
  261loPI    C2 4162   3.739  17.830  10.368 -0.0579  0.1103  0.0089
  261loPI    C3 4163   3.790  17.915  10.755  0.2456  0.1164 -0.0298
  261loPI   PO4 4164   4.237  17.652  10.413  0.0939 -0.1225  0.0331
  261loPI   GL1 4165   4.239  17.368  10.136  0.0864  0.0942 -0.1852
  261loPI   GL2 4166   4.097  17.009  10.046  0.2125  0.0511  0.0212
  261loPI   C1A 4167   4.398  17.631   9.729 -0.0817 -0.1250  0.2949
  261loPI   C2A 4168   4.430  17.797   9.375  0.1015  0.0245  0.3474
  261loPI   C3A 4169   4.323  17.797   8.965 -0.1737 -0.4043  0.3678
  261loPI   C4A 4170   4.214  18.055   8.740 -0.1908  0.0474 -0.1841
  261loPI   C5A 4171   4.155  18.288   8.331 -0.1651 -0.0773  0.0588
  261loPI   C6A 4172   4.413  18.721   8.261 -0.1412 -0.3142  0.1556
  261loPI   C1B 4173   4.227  16.942   9.601  0.2089 -0.1482  0.0590
  261loPI   C2B 4174   4.337  16.886   9.129 -0.0925  0.0056 -0.3336
  261loPI   C3B 4175   4.430  16.849   8.716 -0.0509  0.0689  0.0706
  261loPI   C4B 4176   4.451  17.139   8.339 -0.1217  0.0941  0.4255
  262loPI    C1 4177   5.914  13.166  10.406 -0.1173 -0.0536  0.0362
  262loPI    C2 4178   5.934  13.525  10.581  0.3226  0.0030 -0.1165
  262loPI    C3 4179   5.750  13.222  10.766  0.2635  0.2125  0.1756
  262loPI   PO4 4180   5.955  13.284  10.141 -0.3760  0.1046  0.2223
  262loPI   GL1 4181   5.936  13.046   9.760 -0.0736  0.0060 -0.1531
  262loPI   GL2 4182   6.194  13.120   9.585 -0.1438 -0.1866  0.1419
  262loPI   C1A 4183   5.745  13.265   9.478 -0.1969  0.2501 -0.0398
  262loPI   C2A 4184   5.627  13.536   9.217 -0.1589 -0.1779  0.3235
  262loPI   C3A 4185   5.661  13.826   8.924 -0.0646 -0.2235  0.0394
  262loPI   C4A 4186   5.564  14.044   8.613 -0.3070 -0.2843 -0.2931
  262loPI   C5A 4187   5.414  14.361   8.414  0.0145 -0.4225 -0.1117
  262loPI   C6A 4188   5.323  14.636   8.090 -0.1003 -0.2044  0.5100
  262loPI   C1B 4189   6.058  13.025   9.186 -0.1310  0.1127  0.0766
  262loPI   C2B 4190   5.850  12.906   8.761 -0.0220 -0.0725 -0.3237
  262loPI   C3B 4191   5.775  12.983   8.311 -0.2370 -0.1883 -0.2085
  262loPI   C4B 4192   5.441  13.202   8.078  0.1150 -0.0139 -0.0916
  263loPI    C1 4193  14.566  14.685   9.898 -0.3158 -0.4503  0.2203
  263loPI    C2 4194  14.428  14.534  10.242 -0.2587  0.0020  0.4491
  263loPI    C3 4195  14.785  14.714  10.232 -0.2356 -0.0557  0.1384
  263loPI   PO4 4196  14.652  14.543   9.759  0.0037  0.1949  0.4407
  263loPI   GL1 4197  14.552  14.306   9.400  0.2580  0.0815 -0.0082
  263loPI   GL2 4198  14.237  14.320   9.385  0.1276  0.0571  0.0473
  263loPI   C1A 4199  14.814  14.294   9.038 -0.2557 -0.1383  0.0260
  263loPI   C2A 4200  14.963  14.239   8.668 -0.3838 -0.1159  0.1631
  263loPI   C3A 4201  14.931  14.071   8.344 -0.1000 -0.1069 -0.1659
  263loPI   C4A 4202  15.237  13.828   8.160 -0.0618  0.2409  0.2075
  263loPI   C5A 4203  15.496  13.369   8.129 -0.0348 -0.1577  0.0109
  263loPI   C6A 4204  15.737  13.060   8.119 -0.1705  0.0122  0.0151
  263loPI   C1B 4205  14.302  14.283   8.932 -0.1176  0.1850  0.3833
  263loPI   C2B 4206  14.352  14.259   8.490 -0.0598  0.0157  0.1258
  263loPI   C3B 4207  14.519  14.365   8.144  0.0069 -0.3715  0.3028
  263loPI   C4B 4208  14.637  14.609   7.892 -0.1605 -0.0065  0.1029
  264loPI    C1 4209   4.839   9.807  10.477 -0.0720  0.0344 -0.1278
  264loPI    C2 4210   4.836   9.508  10.742 -0.1349  0.2341  0.1003
  264loPI    C3 4211   5.062   9.831  10.808 -0.0494  0.2287 -0.1561
  264loPI   PO4 4212   4.823   9.678  10.235  0.0761 -0.1930 -0.1958
  264loPI   GL1 4213   4.991   9.427   9.890 -0.0908 -0.1708 -0.2993
  264loPI   GL2 4214   4.681   9.215   9.832 -0.0369 -0.0141 -0.0121
  264loPI   C1A 4215   4.910   9.610   9.527  0.4022 -0.1487  0.1830
  264loPI   C2A 4216   4.748   9.505   9.124  0.2395  0.2518  0.0183
  264loPI   C3A 4217   4.781   9.454   8.655  0.0501  0.2395  0.1213
  264loPI   C4A 4218   4.665   9.584   8.188  0.1565  0.0069 -0.3215
  264loPI   C5A 4219   4.261   9.768   8.063 -0.2256  0.1422 -0.1708
  264loPI   C6A 4220   3.886   9.633   8.226 -0.0967  0.0538  0.1105
  264loPI   C1B 4221   4.387   9.503   9.586 -0.0658  0.3101 -0.1873
  264loPI   C2B 4222   4.309   9.734   9.190 -0.1386  0.0875 -0.2066
  264loPI   C3B 4223   4.359   9.676   8.864 -0.1514  0.0796  0.1413
  264loPI   C4B 4224   4.298   9.612   8.522  0.2288 -0.2768 -0.2699
  265loPI    C1 4225  13.664   8.543  10.338 -0.0133 -0.2496  0.0970
  265loPI    C2 4226  13.886   8.775  10.576 -0.0429 -0.0301 -0.0865
  265loPI    C3 4227  13.619   8.524  10.735 -0.0041  0.0541  0.1153
  265loPI   PO4 4228  13.723   8.702  10.073 -0.2135 -0.0350 -0.0327
  265loPI   GL1 4229  13.645   8.784   9.649  0.2020  0.0218  0.0201
  265loPI   GL2 4230  13.547   8.419   9.629 -0.0573  0.1626 -0.0207
  265loPI   C1A 4231  13.699   9.088   9.326 -0.0673  0.0917  0.1991
  265loPI   C2A 4232  13.568   9.444   8.974  0.0581  0.3921 -0.0412
  265loPI   C3A 4233  13.503   9.546   8.622 -0.2723  0.2599 -0.0053
  265loPI   C4A 4234  13.256   9.488   8.330  0.0579  0.0987  0.2495
  265loPI   C5A 4235  12.930   9.412   8.105  0.3555 -0.1247  0.0109
  265loPI   C6A 4236  12.493   9.403   7.942 -0.1501 -0.2178  0.0266
  265loPI   C1B 4237  13.276   8.396   9.275  0.2508  0.0785  0.0133
  265loPI   C2B 4238  13.283   8.421   8.870 -0.0579  0.0907 -0.0597
  265loPI   C3B 4239  13.266   8.324   8.347  0.2338  0.0407 -0.1238
  265loPI   C4B 4240  13.322   8.076   7.959 -0.1556  0.0534 -0.2503
  266loPI    C1 4241  10.431  11.973  10.112  0.0758  0.0378 -0.0329
  266loPI    C2 4242  10.323  11.757  10.431  0.2451 -0.1871 -0.1249
  266loPI    C3 4243  10.248  12.150  10.420  0.0419 -0.2176  0.0962
  266loPI   PO4 4244  10.404  11.767   9.965  0.2287 -0.2328  0.1016
  266loPI   GL1 4245  10.491  11.807   9.524  0.0908  0.0625  0.4062
  266loPI   GL2 4246  10.362  12.021   9.346 -0.1253 -0.2440  0.2397
  266loPI   C1A 4247  10.727  11.780   9.096  0.1467  0.2360 -0.1625
  266loPI   C2A 4248  10.690  11.820   8.688 -0.0637 -0.1056 -0.0979
  266loPI   C3A 4249  10.556  11.517   8.369  0.1134 -0.0222 -0.0942
  266loPI   C4A 4250  10.360  11.237   7.926 -0.0297 -0.2191  0.0518
  266loPI   C5A 4251  10.501  10.878   7.740 -0.2593  0.2258 -0.1641
  266loPI   C6A 4252  10.269  10.567   7.637 -0.1680  0.1396 -0.2212
  266loPI   C1B 4253  10.267  11.907   8.932 -0.0612  0.0228 -0.0396
  266loPI   C2B 4254  10.167  11.865   8.443 -0.3404  0.0529 -0.2264
  266loPI   C3B 4255  10.041  11.824   8.115 -0.2307 -0.1504  0.2193
  266loPI   C4B 4256  10.274  11.778   7.687  0.1479 -0.1552 -0.1398
  267loPI    C1 4257   4.749   5.314  10.139 -0.1259  0.0392  0.0079
  267loPI    C2 4258   4.994   5.180  10.426 -0.0926  0.0459 -0.0171
  267loPI    C3 4259   4.602   5.221  10.500 -0.0680  0.1477  0.0599
  267loPI   PO4 4260   4.913   5.398   9.954 -0.0238  0.1179 -0.1604
  267loPI   GL1 4261   5.115   5.318   9.694 -0.2764 -0.0924  0.2538
  267loPI   GL2 4262   5.395   4.983   9.691  0.0816 -0.0644  0.2060
  267loPI   C1A 4263   5.119   5.292   9.256  0.2061 -0.3566  0.1323
  267loPI   C2A 4264   5.248   5.390   8.865  0.1339  0.2931  0.0450
  267loPI   C3A 4265   5.536   5.412   8.474  0.2768 -0.0224 -0.0329
  267loPI   C4A 4266   5.900   5.533   8.147  0.1109  0.0678  0.2141
  267loPI   C5A 4267   6.107   5.401   7.703 -0.0739 -0.1135 -0.2420
  267loPI   C6A 4268   6.260   5.065   7.486  0.3935  0.1607  0.1731
  267loPI   C1B 4269   5.327   4.792   9.377  0.0443 -0.0695  0.0522
  267loPI   C2B 4270   5.143   4.921   8.947  0.0938 -0.1842  0.0480
  267loPI   C3B 4271   5.053   5.036   8.542  0.1970  0.0229  0.0134
  267loPI   C4B 4272   5.088   5.381   8.219 -0.0754  0.1058  0.1665
  268loPI    C1 4273  18.104  14.165  10.222 -0.1988  0.3443 -0.2031
  268loPI    C2 4274  18.448  14.114  10.420 -0.2991  0.0954 -0.0890
  268loPI    C3 4275  18.279  14.476  10.404 -0.1266  0.1817  0.0098
  268loPI   PO4 4276  18.153  14.011   9.946  0.1574 -0.1603  0.1524
  268loPI   GL1 4277  18.371  13.969   9.554  0.1047  0.1627 -0.1503
  268loPI   GL2 4278  18.645  13.848   9.477  0.1389  0.0834  0.1403
  268loPI   C1A 4279  18.327  14.002   9.039  0.1410  0.0451 -0.2619
  268loPI   C2A 4280  18.412  13.964   8.614 -0.0142 -0.1769 -0.0871
  268loPI   C3A 4281  18.245  13.966   8.191  0.0539  0.0684  0.0443
  268loPI   C4A 4282  18.005  14.122   8.035  0.0104 -0.0070  0.4264
  268loPI   C5A 4283  17.662  13.806   7.922  0.1390  0.1774 -0.0886
  268loPI   C6A 4284  17.543  13.443   7.743 -0.0609 -0.3171  0.2026
  268loPI   C1B 4285  18.846  13.811   9.113  0.1703 -0.1997 -0.1062
  268loPI   C2B 4286  18.810  13.704   8.683 -0.0724 -0.1138  0.0096
  268loPI   C3B 4287  18.764  13.815   8.227  0.3918  0.0674 -0.1225
  268loPI   C4B 4288  18.694  14.161   8.026 -0.1194 -0.6098  0.4400
  269loPI    C1 4289   0.006  16.574  10.163  0.2319 -0.1059 -0.0152
  269loPI    C2 4290  -0.126  16.539  10.539  0.1320 -0.0746 -0.0471
  269loPI    C3 4291  -0.147  16.227  10.290 -0.2324  0.0378 -0.1635
  269loPI   PO4 4292  -0.071  16.760   9.995 -0.0590  0.0274 -0.0777
  269loPI   GL1 4293   0.211  16.779   9.715  0.0021  0.0140 -0.3868
  269loPI   GL2 4294   0.402  16.572   9.856  0.2240  0.1150  0.3935
  269loPI   C1A 4295   0.115  16.883   9.296 -0.0749  0.0518 -0.2455
  269loPI   C2A 4296   0.161  16.932   8.913 -0.2383  0.0682  0.2039
  269loPI   C3A 4297   0.104  16.958   8.473  0.0313 -0.0204 -0.1638
  269loPI   C4A 4298   0.043  16.804   8.103 -0.2220 -0.0304 -0.3744
  269loPI   C5A 4299   0.272  16.515   7.819  0.2216  0.0934  0.0273
  269loPI   C6A 4300   0.567  16.256   7.775 -0.0594 -0.1704 -0.2009
  269loPI   C1B 4301   0.436  16.525   9.392 -0.2585 -0.0288 -0.0081
  269loPI   C2B 4302   0.408  16.479   8.961 -0.1100  0.2701  0.0446
  269loPI   C3B 4303   0.248  16.447   8.485 -0.0212 -0.4769  0.0318
  269loPI   C4B 4304   0.327  16.253   8.227 -0.1085 -0.0824  0.0208
  270loPI    C1 4305   1.237  14.657  10.152 -0.1069 -0.1030 -0.0088
  270loPI    C2 4306   1.131  14.479  10.494  0.0869 -0.1769  0.0138
  270loPI    C3 4307   1.287  14.847  10.500  0.0155 -0.1462 -0.0024
  270loPI   PO4 4308   1.001  14.766  10.017 -0.1288  0.6003  0.1054
  270loPI   GL1 4309   0.880  15.000   9.766 -0.0857 -0.0645  0.0492
  270loPI   GL2 4310   1.149  14.937   9.575  0.0141 -0.3408  0.1593
  270loPI   C1A 4311   0.697  15.089   9.418 -0.1056 -0.0707 -0.0620
  270loPI   C2A 4312   0.639  15.117   9.028  0.0077 -0.0142 -0.1512
  270loPI   C3A 4313   0.601  14.931   8.658 -0.3474 -0.1675  0.5952
  270loPI   C4A 4314   0.834  14.611   8.294 -0.2690 -0.0424  0.2274
  270loPI   C5A 4315   1.140  14.507   7.917  0.0381  0.2843 -0.0020
  270loPI   C6A 4316   1.322  14.361   7.523 -0.0534  0.3484 -0.1477
  270loPI   C1B 4317   1.112  14.901   9.230 -0.3039  0.0228  0.1778
  270loPI   C2B 4318   1.256  14.797   8.810  0.0596 -0.0312  0.3971
  270loPI   C3B 4319   1.546  14.840   8.447 -0.0090  0.2638 -0.0213
  270loPI   C4B 4320   1.685  14.730   8.033 -0.2156 -0.1551  0.3914
  271loPI    C1 4321   0.932   9.638  10.287 -0.2494  0.0345  0.2022
  271loPI    C2 4322   0.896   9.285  10.103 -0.1078  0.0684  0.1082
  271loPI    C3 4323   0.736   9.338  10.466 -0.0728 -0.1130  0.1513
  271loPI   PO4 4324   1.118   9.726  10.087 -0.2437  0.0783 -0.1680
  271loPI   GL1 4325   1.200   9.972   9.712 -0.1121 -0.0175  0.2321
  271loPI   GL2 4326   1.193  10.163   9.459 -0.2231  0.0546 -0.0187
  271loPI   C1A 4327   1.262   9.631   9.291  0.0732  0.1597 -0.2309
  271loPI   C2A 4328   1.474   9.569   8.785 -0.0407  0.4104 -0.0715
  271loPI   C3A 4329   1.574   9.729   8.382  0.1946  0.1321 -0.2230
  271loPI   C4A 4330   1.927   9.764   8.187 -0.0845  0.0091  0.0559
  271loPI   C5A 4331   2.270   9.519   7.946  0.0832 -0.2253 -0.0427
  271loPI   C6A 4332   2.435   9.183   7.687  0.1489  0.1743 -0.0004
  271loPI   C1B 4333   1.261  10.078   8.992 -0.0308  0.2798 -0.2043
  271loPI   C2B 4334   1.231  10.097   8.524 -0.0695  0.0642  0.1982
  271loPI   C3B 4335   1.258  10.293   8.072 -0.1230  0.2754 -0.0698
  271loPI   C4B 4336   1.315  10.512   7.742 -0.3235  0.0736  0.3202
  272loPI    C1 4337   4.805  14.539  10.422  0.0040 -0.2840 -0.3838
  272loPI    C2 4338   4.603  14.385  10.731  0.1596  0.1010 -0.0823
  272loPI    C3 4339   4.867  14.159  10.532  0.1905 -0.1000  0.1805
  272loPI   PO4 4340   4.485  14.688  10.207 -0.2857  0.0347 -0.0970
  272loPI   GL1 4341   4.375  14.442   9.873  0.2989 -0.3080  0.0783
  272loPI   GL2 4342   4.176  14.274   9.610  0.2077 -0.2378  0.1913
  272loPI   C1A 4343   4.634  14.486   9.559  0.0337 -0.1282  0.3057
  272loPI   C2A 4344   4.733  14.540   9.134 -0.4079  0.0511  0.3763
  272loPI   C3A 4345   4.696  14.411   8.772  0.0035 -0.0638  0.1063
  272loPI   C4A 4346   4.464  14.416   8.300  0.0676  0.0119 -0.0658
  272loPI   C5A 4347   4.615  14.144   7.964 -0.2351 -0.1317  0.1617
  272loPI   C6A 4348   4.434  14.256   7.505  0.0848  0.0382 -0.0790
  272loPI   C1B 4349   4.259  14.287   9.197  0.1295  0.1736  0.1938
  272loPI   C2B 4350   4.505  13.980   8.815  0.0353  0.0071 -0.0105
  272loPI   C3B 4351   4.730  14.011   8.452 -0.2117 -0.3732 -0.0735
  272loPI   C4B 4352   5.113  14.081   8.133 -0.0616  0.1435 -0.0154
  273loPI    C1 4353  17.696   0.317  10.824  0.2245 -0.0982 -0.0199
  273loPI    C2 4354  17.723  -0.037  11.010  0.0867 -0.0988 -0.0002
  273loPI    C3 4355  17.591   0.284  11.209  0.3327 -0.0070  0.0178
  273loPI   PO4 4356  17.580   0.197  10.563 -0.0810  0.2009  0.1383
  273loPI   GL1 4357  17.687   0.103  10.081 -0.0892  0.2089  0.2104
  273loPI   GL2 4358  17.519  -0.180   9.877  0.0075  0.0689 -0.1436
  273loPI   C1A 4359  17.521   0.261   9.623 -0.0987 -0.3607  0.1623
  273loPI   C2A 4360  17.510   0.201   9.160  0.0891 -0.1494  0.0142
  273loPI   C3A 4361  17.553   0.150   8.723 -0.2150 -0.0158 -0.0095
  273loPI   C4A 4362  17.713   0.220   8.314  0.0504 -0.0946 -0.2655
  273loPI   C5A 4363  17.655   0.092   7.899 -0.1625 -0.2087 -0.1176
  273loPI   C6A 4364  17.895  -0.089   7.520  0.2150  0.2496 -0.1573
  273loPI   C1B 4365  17.486  -0.353   9.413  0.5088 -0.1247  0.0210
  273loPI   C2B 4366  17.566  -0.238   9.025  0.1182  0.1141  0.2197
  273loPI   C3B 4367  17.657  -0.368   8.700  0.0509  0.0748 -0.1166
  273loPI   C4B 4368  17.579  -0.267   8.262  0.5512  0.0417 -0.1792
  274loPI    C1 4369  16.763  12.030  10.198  0.1779  0.0937  0.0867
  274loPI    C2 4370  16.745  12.420  10.288  0.0829  0.0835  0.1129
  274loPI    C3 4371  16.673  12.146  10.570 -0.3502  0.0529 -0.0205
  274loPI   PO4 4372  16.801  12.030   9.930 -0.0460  0.1140 -0.1421
  274loPI   GL1 4373  16.847  11.643   9.661  0.0755  0.2975 -0.2235
  274loPI   GL2 4374  16.976  11.238   9.510  0.0903 -0.1175  0.2003
  274loPI   C1A 4375  16.455  11.864   9.417  0.1805  0.0765 -0.0412
  274loPI   C2A 4376  16.387  11.943   9.068 -0.1945 -0.2261  0.0597
  274loPI   C3A 4377  16.422  11.910   8.602  0.0632 -0.3124 -0.1854
  274loPI   C4A 4378  16.407  11.873   8.160 -0.0288  0.1281 -0.2526
  274loPI   C5A 4379  16.283  11.697   7.856  0.0159  0.0254  0.2160
  274loPI   C6A 4380  16.216  11.459   7.584  0.2500 -0.0619 -0.0957
  274loPI   C1B 4381  17.135  10.973   9.183 -0.0772  0.1110  0.1031
  274loPI   C2B 4382  16.939  10.834   8.872  0.0277 -0.0804  0.1555
  274loPI   C3B 4383  16.789  10.933   8.488 -0.2653  0.0030  0.1542
  274loPI   C4B 4384  16.612  10.903   8.030 -0.0789 -0.0289 -0.0315
  275loPI    C1 4385   2.280   6.434  10.622  0.1596 -0.2413  0.0003
  275loPI    C2 4386   2.359   6.818  10.705  0.0474 -0.1814 -0.1630
  275loPI    C3 4387   2.042   6.638  10.870  0.0328 -0.1697 -0.1784
  275loPI   PO4 4388   2.490   6.435  10.377  0.0333 -0.1140  0.2723
  275loPI   GL1 4389   2.926   6.438  10.127 -0.1976  0.5590 -0.0774
  275loPI   GL2 4390   2.771   6.083  10.156  0.3360 -0.0951 -0.1777
  275loPI   C1A 4391   3.053   6.361   9.707  0.1918  0.0628  0.0289
  275loPI   C2A 4392   3.117   6.457   9.289  0.1510  0.3644 -0.1021
  275loPI   C3A 4393   2.965   6.567   8.804  0.2246 -0.0913 -0.3290
  275loPI   C4A 4394   3.290   6.736   8.512 -0.0326  0.1376 -0.3259
  275loPI   C5A 4395   3.447   6.842   8.186 -0.0570 -0.2627 -0.2016
  275loPI   C6A 4396   3.594   7.179   8.024 -0.1356  0.1081  0.3102
  275loPI   C1B 4397   2.562   6.085   9.768  0.1614  0.0449  0.0854
  275loPI   C2B 4398   2.787   6.078   9.387  0.0915  0.2577  0.3152
  275loPI   C3B 4399   2.770   6.058   8.963  0.1116  0.1484 -0.0909
  275loPI   C4B 4400   2.723   6.210   8.585 -0.2028 -0.0821 -0.1907
  276loPI    C1 4401   3.712  17.242  10.212  0.0667 -0.0344  0.1528
  276loPI    C2 4402   3.475  17.234  10.534 -0.0161  0.2726  0.1029
  276loPI    C3 4403   3.851  17.367  10.566 -0.0070  0.2514  0.0835
  276loPI   PO4 4404   3.607  17.009  10.064 -0.1147 -0.0520 -0.1257
  276loPI   GL1 4405   3.753  17.033   9.643 -0.0468 -0.3601  0.3841
  276loPI   GL2 4406   3.938  17.371   9.675 -0.2516 -0.1909  0.0980
  276loPI   C1A 4407   3.698  17.084   9.214  0.0995  0.0661 -0.0162
  276loPI   C2A 4408   3.696  17.209   8.803  0.3761  0.0631 -0.0474
  276loPI   C3A 4409   3.509  17.143   8.432 -0.2825 -0.2168 -0.2449
  276loPI   C4A 4410   3.464  16.833   8.129 -0.2265  0.1922 -0.3622
  276loPI   C5A 4411   3.402  16.377   7.937 -0.3061  0.0357 -0.1037
  276loPI   C6A 4412   3.056  16.146   7.964 -0.1104 -0.2060  0.1113
  276loPI   C1B 4413   4.173  17.320   9.284  0.1299  0.1040 -0.1298
  276loPI   C2B 4414   4.197  17.355   8.827  0.1423 -0.0721  0.1003
  276loPI   C3B 4415   3.995  17.283   8.455 -0.0131 -0.3043  0.3095
  276loPI   C4B 4416   3.898  17.094   8.087  0.2667  0.0817  0.1911
  277loPI    C1 4417  16.161   0.137  10.185 -0.0462 -0.1667  0.0720
  277loPI    C2 4418  16.240  -0.218  10.020  0.2210 -0.0507 -0.0552
  277loPI    C3 4419  16.340  -0.149  10.401  0.0823 -0.1426 -0.0015
  277loPI   PO4 4420  15.985   0.258  10.143 -0.0196 -0.0434  0.0417
  277loPI   GL1 4421  15.687   0.504   9.811  0.1725 -0.2594  0.2409
  277loPI   GL2 4422  15.377   0.313   9.765 -0.1434 -0.4180 -0.0632
  277loPI   C1A 4423  15.673   0.669   9.405  0.2585 -0.0079  0.1989
  277loPI   C2A 4424  15.525   0.677   9.100  0.2955  0.2600  0.1432
  277loPI   C3A 4425  15.414   0.640   8.741 -0.0002 -0.1322  0.1069
  277loPI   C4A 4426  15.297   0.721   8.354 -0.3444 -0.1177  0.3484
  277loPI   C5A 4427  15.371   0.390   7.991 -0.1493  0.0009 -0.1662
  277loPI   C6A 4428  15.656   0.412   7.702  0.1998  0.1498  0.0900
  277loPI   C1B 4429  15.662   0.119   9.431 -0.2336 -0.0631 -0.0136
  277loPI   C2B 4430  15.857   0.142   8.971  0.0186  0.2382 -0.0781
  277loPI   C3B 4431  16.109  -0.040   8.721  0.0776 -0.0099  0.2740
  277loPI   C4B 4432  16.387  -0.068   8.388  0.0962  0.0865  0.2265
  278loPI    C1 4433   4.901   8.073  10.022 -0.0079 -0.0469 -0.0218
  278loPI    C2 4434   4.806   7.820  10.316  0.0603  0.1859  0.2039
  278loPI    C3 4435   4.519   7.971  10.083  0.0215 -0.1136  0.0522
  278loPI   PO4 4436   5.083   7.927   9.901  0.0070 -0.0356 -0.0113
  278loPI   GL1 4437   5.083   7.693   9.533  0.2457 -0.1211  0.2966
  278loPI   GL2 4438   4.705   7.643   9.597 -0.0217 -0.1957 -0.1309
  278loPI   C1A 4439   5.314   7.805   9.203  0.0117 -0.2925 -0.0820
  278loPI   C2A 4440   5.395   7.916   8.883 -0.1198  0.1121  0.1101
  278loPI   C3A 4441   5.483   7.884   8.486  0.1731 -0.0931  0.0237
  278loPI   C4A 4442   5.359   7.989   8.088  0.2026  0.0556  0.3259
  278loPI   C5A 4443   5.587   8.097   7.774 -0.0757  0.0337 -0.0162
  278loPI   C6A 4444   5.854   7.881   7.578  0.1229 -0.0182 -0.1831
  278loPI   C1B 4445   4.639   8.069   9.459  0.2744 -0.0805 -0.0169
  278loPI   C2B 4446   4.393   8.130   9.092 -0.0997 -0.1491  0.0082
  278loPI   C3B 4447   4.440   7.988   8.582 -0.1171 -0.2554 -0.1157
  278loPI   C4B 4448   4.264   7.696   8.316 -0.0038  0.1289  0.1335
  279loPI    C1 4449   7.857  16.209  10.538 -0.0557  0.2808 -0.2163
  279loPI    C2 4450   7.666  16.472  10.771  0.1874  0.2185  0.0591
  279loPI    C3 4451   7.978  16.267  10.914 -0.0050 -0.2324 -0.1465
  279loPI   PO4 4452   7.712  16.069  10.459  0.1488  0.1049  0.2125
  279loPI   GL1 4453   7.589  16.071  10.071  0.1552  0.1113  0.0688
  279loPI   GL2 4454   7.323  15.876  10.111  0.1271  0.3076  0.0535
  279loPI   C1A 4455   7.582  16.305   9.781  0.1617  0.1065 -0.0777
  279loPI   C2A 4456   7.605  16.557   9.371 -0.4412 -0.0474  0.0798
  279loPI   C3A 4457   7.623  16.740   8.982  0.0580 -0.1866 -0.1917
  279loPI   C4A 4458   7.913  16.893   8.628  0.2989  0.2509 -0.4093
  279loPI   C5A 4459   8.411  16.931   8.487  0.0174  0.1832 -0.1447
  279loPI   C6A 4460   8.840  16.757   8.215  0.4088  0.0447 -0.0067
  279loPI   C1B 4461   7.235  15.770   9.667 -0.0229  0.2428  0.1119
  279loPI   C2B 4462   6.965  15.493   9.321  0.3416 -0.2877  0.0081
  279loPI   C3B 4463   6.816  15.482   8.863 -0.0558 -0.0625 -0.4761
  279loPI   C4B 4464   6.721  15.639   8.539 -0.0679 -0.1493 -0.0166
  280loPI    C1 4465  15.135  14.265  10.304 -0.0838  0.1003  0.1966
  280loPI    C2 4466  15.213  13.900  10.158 -0.3266  0.1408 -0.0415
  280loPI    C3 4467  15.402  14.029  10.486 -0.0049 -0.0749 -0.1374
  280loPI   PO4 4468  15.084  14.377   9.999 -0.0511  0.0627 -0.0599
  280loPI   GL1 4469  15.065  14.359   9.508  0.0935 -0.2088  0.2563
  280loPI   GL2 4470  15.407  14.524   9.544 -0.1382 -0.0477  0.0636
  280loPI   C1A 4471  15.315  14.330   9.061 -0.0778 -0.1891  0.0791
  280loPI   C2A 4472  15.471  14.322   8.593  0.1273 -0.1745  0.0860
  280loPI   C3A 4473  15.588  14.444   8.137 -0.0182  0.3967  0.1880
  280loPI   C4A 4474  15.639  14.632   7.745  0.0091  0.0345  0.0574
  280loPI   C5A 4475  16.016  14.846   7.681 -0.2139  0.0826 -0.0010
  280loPI   C6A 4476  16.423  14.875   7.673 -0.2716 -0.0506  0.0513
  280loPI   C1B 4477  15.707  14.575   9.173 -0.0622 -0.0021 -0.1561
  280loPI   C2B 4478  15.877  14.626   8.906  0.2310 -0.0789  0.0688
  280loPI   C3B 4479  16.332  14.661   8.679  0.0801  0.1069 -0.0125
  280loPI   C4B 4480  16.676  14.786   8.546  0.1121  0.1618  0.1840
  281loPI    C1 4481  12.796   4.723  10.274 -0.0427  0.0152 -0.0136
  281loPI    C2 4482  13.045   4.980  10.453  0.0949 -0.1319  0.0083
  281loPI    C3 4483  13.145   4.594  10.420 -0.1638 -0.2077  0.0834
  281loPI   PO4 4484  12.730   4.875   9.994  0.0452 -0.2253  0.1915
  281loPI   GL1 4485  12.497   5.053   9.618  0.0855 -0.2450  0.1137
  281loPI   GL2 4486  12.588   4.819   9.472 -0.0654 -0.2025 -0.1577
  281loPI   C1A 4487  12.548   5.416   9.370 -0.0780 -0.1170 -0.1788
  281loPI   C2A 4488  12.700   5.408   8.856  0.0276 -0.2236 -0.0833
  281loPI   C3A 4489  12.738   5.592   8.487  0.2143 -0.1956  0.2241
  281loPI   C4A 4490  12.902   5.525   8.037  0.0550  0.1295 -0.0577
  281loPI   C5A 4491  13.278   5.344   7.900 -0.1761 -0.1595  0.2027
  281loPI   C6A 4492  13.737   5.303   8.005 -0.0829 -0.0183  0.0758
  281loPI   C1B 4493  12.473   4.950   9.022  0.2588 -0.1089 -0.0532
  281loPI   C2B 4494  12.313   5.037   8.553 -0.0058  0.1747 -0.1915
  281loPI   C3B 4495  12.476   5.184   8.229  0.0494  0.4662 -0.1977
  281loPI   C4B 4496  12.445   5.419   7.919 -0.1680  0.2248  0.2594
  282loPI    C1 4497  10.645  12.574   9.798  0.1074  0.0968  0.0141
  282loPI    C2 4498  10.387  12.508  10.097  0.0867  0.0362 -0.0172
  282loPI    C3 4499  10.405  12.868   9.923 -0.0609  0.0066 -0.0950
  282loPI   PO4 4500  10.652  12.265   9.676 -0.0094 -0.3484 -0.1788
  282loPI   GL1 4501  11.040  12.071   9.417 -0.1584 -0.0124 -0.0969
  282loPI   GL2 4502  10.963  12.303   9.316 -0.1101  0.3189  0.0791
  282loPI   C1A 4503  11.210  11.932   9.076  0.0842 -0.1144  0.5622
  282loPI   C2A 4504  11.162  11.855   8.748  0.0176 -0.1421  0.1640
  282loPI   C3A 4505  10.963  12.069   8.372  0.3391 -0.0760  0.2257
  282loPI   C4A 4506  11.213  12.352   8.077 -0.0910 -0.0237  0.0132
  282loPI   C5A 4507  11.192  12.721   7.842  0.3041 -0.1232  0.0639
  282loPI   C6A 4508  11.234  13.179   7.800  0.1275  0.3377 -0.0749
  282loPI   C1B 4509  11.034  12.433   8.959 -0.0055  0.2052  0.3693
  282loPI   C2B 4510  11.064  12.551   8.540  0.0313 -0.0172 -0.2657
  282loPI   C3B 4511  11.445  12.725   8.318 -0.4687 -0.0327  0.3006
  282loPI   C4B 4512  11.673  12.729   7.977 -0.0710 -0.3967  0.2542
  283loPI    C1 4513   7.421  17.931  10.601  0.0229  0.2428 -0.0002
  283loPI    C2 4514   7.676  17.851  10.899 -0.0634 -0.0571 -0.0034
  283loPI    C3 4515   7.406  18.143  10.940 -0.1300 -0.1515  0.2475
  283loPI   PO4 4516   7.486  17.981  10.350  0.1609 -0.1956  0.0404
  283loPI   GL1 4517   7.688  17.815  10.059 -0.3040  0.1989  0.3129
  283loPI   GL2 4518   7.417  17.737   9.800  0.3422 -0.1340 -0.0275
  283loPI   C1A 4519   7.884  17.519   9.798  0.1291 -0.0758 -0.0636
  283loPI   C2A 4520   7.902  17.437   9.356  0.1620  0.0142  0.1903
  283loPI   C3A 4521   7.929  17.386   9.026 -0.0207 -0.1877 -0.0145
  283loPI   C4A 4522   8.079  17.392   8.570  0.1189  0.0241 -0.1979
  283loPI   C5A 4523   8.024  17.512   8.121  0.0527 -0.1272 -0.0076
  283loPI   C6A 4524   7.764  17.607   7.805 -0.0156  0.0665  0.0810
  283loPI   C1B 4525   7.572  17.763   9.454 -0.0498  0.2231 -0.1084
  283loPI   C2B 4526   7.587  17.816   9.018 -0.0838  0.0036 -0.2683
  283loPI   C3B 4527   7.588  17.723   8.643  0.2678  0.0633  0.2679
  283loPI   C4B 4528   7.507  17.737   8.230  0.2139 -0.3096  0.1449
  284loPI    C1 4529  11.894  12.341  10.370  0.0133 -0.1006 -0.0491
  284loPI    C2 4530  11.698  12.620  10.579 -0.0360 -0.1927  0.0286
  284loPI    C3 4531  12.052  12.485  10.708 -0.0214 -0.1800  0.0015
  284loPI   PO4 4532  11.725  12.311  10.127 -0.0100  0.4349  0.2333
  284loPI   GL1 4533  11.824  12.078   9.758 -0.2518 -0.0103 -0.2530
  284loPI   GL2 4534  11.843  11.844   9.532  0.1677 -0.2091  0.2897
  284loPI   C1A 4535  12.087  12.198   9.343 -0.2199 -0.2868 -0.2985
  284loPI   C2A 4536  12.259  12.268   8.962  0.1005  0.3592 -0.0611
  284loPI   C3A 4537  12.436  12.216   8.538  0.4746 -0.1124 -0.6260
  284loPI   C4A 4538  12.380  12.404   8.115 -0.1545 -0.0270 -0.2326
  284loPI   C5A 4539  12.638  12.763   7.993  0.2882 -0.1981  0.2970
  284loPI   C6A 4540  13.100  12.883   7.805  0.4044  0.0919 -0.1821
  284loPI   C1B 4541  11.807  11.863   9.059  0.3865  0.0883  0.3602
  284loPI   C2B 4542  11.927  11.903   8.543  0.0212  0.0386  0.1715
  284loPI   C3B 4543  12.087  11.805   8.161 -0.0296  0.1596  0.1218
  284loPI   C4B 4544  12.241  12.043   7.831  0.2598  0.0204  0.0565
  285loPI    C1 4545  16.115   1.259  10.212  0.0711  0.1905  0.0529
  285loPI    C2 4546  16.344   1.438  10.487 -0.0508  0.3060  0.0805
  285loPI    C3 4547  15.948   1.413  10.542 -0.0675  0.2709 -0.0531
  285loPI   PO4 4548  16.438   1.104  10.067  0.0793  0.0169  0.0621
  285loPI   GL1 4549  16.531   0.957   9.697 -0.0039 -0.1074 -0.1456
  285loPI   GL2 4550  16.833   1.123   9.528  0.1430 -0.1471 -0.0636
  285loPI   C1A 4551  16.485   0.995   9.204 -0.1605 -0.0673  0.2412
  285loPI   C2A 4552  16.339   0.871   8.779  0.3664  0.1735 -0.0552
  285loPI   C3A 4553  16.002   0.782   8.460 -0.0129  0.0272 -0.2156
  285loPI   C4A 4554  15.833   0.652   8.065 -0.0330  0.0432 -0.0857
  285loPI   C5A 4555  15.534   0.861   7.939 -0.0270 -0.2914  0.0429
  285loPI   C6A 4556  15.235   1.033   7.620  0.1538  0.0083 -0.2313
  285loPI   C1B 4557  16.952   1.143   9.036 -0.0416 -0.3156 -0.0102
  285loPI   C2B 4558  17.172   1.065   8.664 -0.0073 -0.0547  0.1759
  285loPI   C3B 4559  17.236   0.762   8.353 -0.0168 -0.0123  0.4224
  285loPI   C4B 4560  17.641   0.623   7.970 -0.1388  0.1157  0.0647
  286loPI    C1 4561   4.128   8.487  10.358  0.1119  0.0497 -0.1736
  286loPI    C2 4562   3.816   8.690  10.212  0.1397  0.0958 -0.1689
  286loPI    C3 4563   4.021   8.835  10.524  0.2974  0.1718 -0.3064
  286loPI   PO4 4564   4.183   8.294  10.240  0.0086  0.0353  0.1000
  286loPI   GL1 4565   4.079   8.202   9.842  0.1119 -0.2066  0.1527
  286loPI   GL2 4566   4.134   8.144   9.544 -0.1770  0.0943 -0.2049
  286loPI   C1A 4567   3.659   8.306   9.763  0.0353 -0.0888  0.0682
  286loPI   C2A 4568   3.462   8.408   9.395 -0.1351 -0.0180 -0.0453
  286loPI   C3A 4569   3.496   8.509   8.944 -0.0062  0.1608 -0.0630
  286loPI   C4A 4570   3.780   8.367   8.626 -0.0179 -0.1912 -0.0055
  286loPI   C5A 4571   3.989   8.400   8.208 -0.0254  0.0854  0.1520
  286loPI   C6A 4572   4.414   8.208   8.155  0.0593 -0.1951  0.3744
  286loPI   C1B 4573   3.931   8.103   9.255  0.0994  0.0856  0.2994
  286loPI   C2B 4574   3.892   7.820   8.893 -0.0031  0.0652 -0.1032
  286loPI   C3B 4575   3.803   7.859   8.512 -0.0728 -0.0391 -0.0460
  286loPI   C4B 4576   3.585   8.088   8.228 -0.0281  0.1053  0.1029
  287loPI    C1 4577   3.788   0.300  10.158 -0.0178  0.1298  0.1080
  287loPI    C2 4578   3.665   0.644  10.322 -0.0850  0.0386  0.2516
  287loPI    C3 4579   3.953   0.430  10.499  0.4002  0.3258 -0.1602
  287loPI   PO4 4580   3.579   0.157  10.103 -0.0060 -0.4299 -0.2449
  287loPI   GL1 4581   3.414   0.498   9.792 -0.4088 -0.0644  0.0219
  287loPI   GL2 4582   3.126   0.284   9.770 -0.0641 -0.2751 -0.0826
  287loPI   C1A 4583   3.439   0.490   9.324 -0.0829  0.2236 -0.1384
  287loPI   C2A 4584   3.274   0.511   8.967 -0.1504 -0.0702 -0.3043
  287loPI   C3A 4585   3.191   0.359   8.592 -0.1907  0.1464  0.1584
  287loPI   C4A 4586   2.867   0.180   8.435  0.0335 -0.0121  0.1804
  287loPI   C5A 4587   2.771  -0.134   8.178  0.3120 -0.1332 -0.1955
  287loPI   C6A 4588   2.889  -0.300   7.835 -0.1446 -0.0131 -0.4453
  287loPI   C1B 4589   2.911   0.355   9.431  0.1265  0.0947 -0.4048
  287loPI   C2B 4590   2.742   0.430   9.070  0.0418 -0.0042 -0.0514
  287loPI   C3B 4591   2.737   0.682   8.673  0.0401 -0.1423 -0.0101
  287loPI   C4B 4592   2.400   0.842   8.394  0.0755  0.3098 -0.4164
  288loPI    C1 4593   0.033   1.574  10.419 -0.0953 -0.0470  0.0987
  288loPI    C2 4594  -0.353   1.629  10.330 -0.0300 -0.0107 -0.1720
  288loPI    C3 4595  -0.129   1.939  10.444 -0.0300  0.0066 -0.2187
  288loPI   PO4 4596   0.159   1.464  10.254  0.0409 -0.0784  0.2359
  288loPI   GL1 4597   0.296   1.291   9.831 -0.1952 -0.1157 -0.0684
  288loPI   GL2 4598   0.433   1.599   9.836 -0.0874 -0.1765  0.0713
  288loPI   C1A 4599   0.346   1.182   9.439  0.0193 -0.0133  0.1418
  288loPI   C2A 4600   0.342   1.188   9.021 -0.1042 -0.1966 -0.2207
  288loPI   C3A 4601   0.155   1.104   8.618 -0.2873 -0.1347  0.2550
  288loPI   C4A 4602   0.059   1.098   8.150  0.3942  0.0008 -0.4099
  288loPI   C5A 4603   0.029   0.819   7.888  0.1248  0.0448  0.0093
  288loPI   C6A 4604   0.099   0.383   7.917  0.2067 -0.0002 -0.0300
  288loPI   C1B 4605   0.218   1.791   9.459 -0.0268 -0.0284  0.0159
  288loPI   C2B 4606   0.188   1.775   9.071  0.0903  0.0630  0.1067
  288loPI   C3B 4607   0.322   1.755   8.677  0.1573 -0.1688 -0.0526
  288loPI   C4B 4608   0.460   1.991   8.347 -0.3680  0.0460  0.0468
  289loPI    C1 4609  10.761   6.273  10.493  0.1332 -0.0083  0.2090
  289loPI    C2 4610  10.937   6.062  10.783 -0.0294 -0.2392  0.1428
  289loPI    C3 4611  10.762   6.411  10.868  0.3421 -0.0696  0.2324
  289loPI   PO4 4612  10.742   6.005  10.228 -0.2445  0.0864  0.0775
  289loPI   GL1 4613  10.909   5.977   9.861  0.1432 -0.2607  0.1048
  289loPI   GL2 4614  11.174   6.008   9.674  0.0788 -0.0789  0.1689
  289loPI   C1A 4615  10.764   5.731   9.424 -0.3118  0.0815  0.1236
  289loPI   C2A 4616  10.688   5.749   8.983 -0.3144 -0.0287  0.0881
  289loPI   C3A 4617  10.739   5.528   8.703 -0.1093  0.2507  0.1236
  289loPI   C4A 4618  10.570   5.503   8.314  0.3936 -0.0259  0.1194
  289loPI   C5A 4619  10.533   5.375   7.886  0.1637 -0.0860  0.0088
  289loPI   C6A 4620  10.543   5.441   7.428  0.0429  0.0349  0.1923
  289loPI   C1B 4621  11.165   5.915   9.167 -0.1755 -0.1464 -0.1993
  289loPI   C2B 4622  11.144   5.864   8.739 -0.0486 -0.1441 -0.0261
  289loPI   C3B 4623  11.139   5.659   8.352 -0.1344  0.0050  0.0289
  289loPI   C4B 4624  10.965   5.303   8.102 -0.1226 -0.2467 -0.2126
  290loPI    C1 4625   9.907   8.639  10.442  0.0343  0.0187 -0.1176
  290loPI    C2 4626   9.623   8.866  10.610  0.0799  0.0319 -0.0583
  290loPI    C3 4627   9.894   8.680  10.840 -0.0210 -0.1686 -0.0990
  290loPI   PO4 4628  10.064   8.847  10.238  0.0161 -0.3756 -0.0353
  290loPI   GL1 4629  10.126   8.779   9.735 -0.0276 -0.0078  0.3029
  290loPI   GL2 4630   9.740   8.895   9.727  0.0578  0.1192  0.2578
  290loPI   C1A 4631  10.372   8.959   9.454  0.3059 -0.0156  0.0930
  290loPI   C2A 4632  10.335   9.106   9.047  0.1886  0.1690 -0.1590
  290loPI   C3A 4633  10.570   9.282   8.699  0.2331 -0.1763 -0.1319
  290loPI   C4A 4634  10.580   9.267   8.292 -0.2462 -0.1585  0.2821
  290loPI   C5A 4635  10.665   9.171   7.864  0.0128 -0.3579 -0.3263
  290loPI   C6A 4636  10.720   9.100   7.512 -0.2081  0.1027 -0.0984
  290loPI   C1B 4637   9.901   8.686   9.287 -0.2937 -0.1793 -0.3287
  290loPI   C2B 4638  10.060   8.769   8.834  0.1876  0.0377  0.0157
  290loPI   C3B 4639  10.063   9.040   8.451 -0.1307 -0.0069 -0.0291
  290loPI   C4B 4640  10.158   9.174   8.018  0.1272 -0.0151 -0.1589
  291loPI    C1 4641   4.713   1.067  10.423 -0.1625  0.2142 -0.1482
  291loPI    C2 4642   4.374   0.859  10.467  0.0492 -0.1062  0.0120
  291loPI    C3 4643   4.600   0.942  10.786  0.0234  0.2824 -0.0656
  291loPI   PO4 4644   4.867   0.993  10.236  0.0677  0.2711  0.1766
  291loPI   GL1 4645   4.840   1.183   9.879 -0.0979 -0.0837 -0.3583
  291loPI   GL2 4646   4.694   1.467   9.982 -0.1492 -0.1651  0.0994
  291loPI   C1A 4647   5.138   1.348   9.554  0.0442 -0.0195 -0.2080
  291loPI   C2A 4648   5.175   1.428   8.981 -0.1257  0.0757 -0.2938
  291loPI   C3A 4649   4.890   1.523   8.674 -0.0649 -0.1376 -0.2018
  291loPI   C4A 4650   4.627   1.603   8.383  0.2061  0.0314 -0.3926
  291loPI   C5A 4651   4.388   1.613   8.096  0.0226  0.0840  0.0078
  291loPI   C6A 4652   4.277   1.888   7.824  0.1151 -0.0201 -0.4137
  291loPI   C1B 4653   4.650   1.524   9.583  0.0203  0.1807  0.1398
  291loPI   C2B 4654   4.669   1.633   9.110  0.2598 -0.0484 -0.2482
  291loPI   C3B 4655   4.534   1.881   8.849 -0.1089 -0.0253 -0.0512
  291loPI   C4B 4656   4.287   1.980   8.488 -0.2180  0.0004 -0.1749
  292loPI    C1 4657   3.247   7.944  10.583  0.1717 -0.1731 -0.3447
  292loPI    C2 4658   3.533   7.833  10.839  0.0521  0.0357 -0.1165
  292loPI    C3 4659   3.237   7.580  10.747 -0.0051  0.0231  0.0961
  292loPI   PO4 4660   3.203   8.130  10.501 -0.0934 -0.1689 -0.0707
  292loPI   GL1 4661   2.968   8.152  10.161 -0.0381 -0.0994 -0.1261
  292loPI   GL2 4662   2.703   8.275   9.969  0.0784 -0.0702  0.0883
  292loPI   C1A 4663   3.123   7.976   9.832  0.0392  0.4598 -0.1178
  292loPI   C2A 4664   3.062   7.851   9.391 -0.2308  0.0873 -0.2578
  292loPI   C3A 4665   2.969   7.738   9.009  0.3819  0.2462  0.4590
  292loPI   C4A 4666   2.911   7.589   8.641  0.2022 -0.1084  0.0156
  292loPI   C5A 4667   2.860   7.598   8.286 -0.2986 -0.0449  0.5334
  292loPI   C6A 4668   2.399   7.560   8.136  0.0286 -0.0164  0.0628
  292loPI   C1B 4669   2.419   8.478   9.580  0.1374 -0.0336 -0.1970
  292loPI   C2B 4670   2.449   8.436   9.123  0.0919 -0.1225 -0.0695
  292loPI   C3B 4671   2.315   8.308   8.676 -0.1790 -0.0353  0.1298
  292loPI   C4B 4672   2.063   7.992   8.423 -0.1283  0.0719 -0.1079
  293loPI    C1 4673  12.168  10.595  10.337  0.1194  0.2569  0.0562
  293loPI    C2 4674  11.896  10.659  10.623 -0.1906  0.1675 -0.2119
  293loPI    C3 4675  12.286  10.656  10.714 -0.2932 -0.1072  0.2527
  293loPI   PO4 4676  12.147  10.715  10.186 -0.0672  0.0385 -0.0983
  293loPI   GL1 4677  12.143  10.926   9.786 -0.0838  0.1600 -0.0792
  293loPI   GL2 4678  12.238  11.193   9.599  0.0831  0.2323  0.3271
  293loPI   C1A 4679  12.026  10.746   9.405 -0.2228  0.1515 -0.1198
  293loPI   C2A 4680  12.071  10.834   8.992  0.0302  0.0943  0.2890
  293loPI   C3A 4681  11.955  10.874   8.678  0.1236 -0.0884 -0.3479
  293loPI   C4A 4682  11.890  10.957   8.354  0.2327 -0.1368 -0.2280
  293loPI   C5A 4683  11.706  10.773   8.050  0.1100 -0.0795  0.0529
  293loPI   C6A 4684  11.261  10.639   7.931  0.0492 -0.3475  0.0916
  293loPI   C1B 4685  11.918  11.241   9.329  0.0670  0.1497 -0.1896
  293loPI   C2B 4686  11.988  11.426   8.964 -0.2090  0.1157 -0.0177
  293loPI   C3B 4687  12.034  11.394   8.608 -0.3353  0.0060  0.1730
  293loPI   C4B 4688  12.234  11.288   8.202  0.0188 -0.1071  0.1684
  294loPI    C1 4689  10.808  14.287  10.208  0.1015  0.0231 -0.0232
  294loPI    C2 4690  10.674  14.290  10.584 -0.0461 -0.2705 -0.0706
  294loPI    C3 4691  10.939  14.014  10.468  0.0413 -0.1465 -0.1687
  294loPI   PO4 4692  10.616  14.376  10.091  0.2168 -0.0932  0.3269
  294loPI   GL1 4693  10.446  14.378   9.690 -0.0324  0.0708  0.1931
  294loPI   GL2 4694  10.200  14.170   9.817 -0.0398  0.1713 -0.1621
  294loPI   C1A 4695  10.306  14.455   9.225 -0.1165  0.0760 -0.0771
  294loPI   C2A 4696  10.272  14.621   8.858  0.2580  0.0208 -0.1875
  294loPI   C3A 4697  10.395  14.656   8.356 -0.2596  0.0027 -0.1678
  294loPI   C4A 4698  10.282  14.804   7.939  0.3234  0.0796 -0.0895
  294loPI   C5A 4699  10.596  15.031   7.560  0.0634 -0.0565 -0.1118
  294loPI   C6A 4700  10.913  15.337   7.223  0.0636 -0.3129  0.1083
  294loPI   C1B 4701   9.834  14.215   9.580 -0.0394 -0.2213  0.1304
  294loPI   C2B 4702   9.753  14.306   9.158  0.2122 -0.2173  0.2468
  294loPI   C3B 4703   9.617  14.394   8.678  0.3072  0.1524  0.0666
  294loPI   C4B 4704   9.551  14.409   8.215  0.0161 -0.0810 -0.1490
  295loPI    C1 4705  15.300  10.092  10.049 -0.1493  0.1605  0.2080
  295loPI    C2 4706  15.627  10.182  10.262  0.1007 -0.3023  0.0349
  295loPI    C3 4707  15.367   9.912  10.400 -0.2453  0.1009  0.1960
  295loPI   PO4 4708  15.278  10.409   9.960  0.0604 -0.0259 -0.1006
  295loPI   GL1 4709  15.449  10.761   9.771 -0.2841 -0.3482 -0.1916
  295loPI   GL2 4710  15.278  10.845   9.574 -0.1077  0.0410 -0.1392
  295loPI   C1A 4711  15.734  10.632   9.392 -0.0569 -0.0754 -0.0492
  295loPI   C2A 4712  15.966  10.674   8.984 -0.1340 -0.1185  0.1069
  295loPI   C3A 4713  15.767  10.705   8.583 -0.2516 -0.1162 -0.1571
  295loPI   C4A 4714  15.689  10.313   8.324  0.1391  0.1275  0.0518
  295loPI   C5A 4715  15.417   9.987   8.337 -0.0587  0.3225  0.1589
  295loPI   C6A 4716  15.278   9.546   8.521  0.3004 -0.0248 -0.2580
  295loPI   C1B 4717  15.278  10.670   9.160  0.5301  0.2026  0.0806
  295loPI   C2B 4718  15.506  10.346   8.965 -0.0104  0.1529 -0.0616
  295loPI   C3B 4719  15.607   9.922   8.894  0.0049 -0.2801  0.0965
  295loPI   C4B 4720  15.895   9.800   8.484  0.0073 -0.1203 -0.1637
  296loPI    C1 4721   7.519   1.514  10.304  0.0416  0.1331 -0.0684
  296loPI    C2 4722   7.746   1.616  10.617  0.1109  0.0966 -0.1067
  296loPI    C3 4723   7.535   1.276  10.625 -0.0819  0.2174  0.0010
  296loPI   PO4 4724   7.319   1.679  10.168 -0.0742 -0.1859  0.2683
  296loPI   GL1 4725   7.112   1.926   9.842  0.1702  0.2605 -0.0145
  296loPI   GL2 4726   7.261   2.112   9.903  0.0185  0.4378 -0.0311
  296loPI   C1A 4727   6.982   2.143   9.492 -0.0819 -0.1943 -0.2493
  296loPI   C2A 4728   7.112   2.096   9.071  0.2577  0.0646 -0.1488
  296loPI   C3A 4729   7.043   1.993   8.637 -0.1570  0.0514  0.0335
  296loPI   C4A 4730   7.034   1.698   8.151  0.0741  0.1202  0.2698
  296loPI   C5A 4731   6.902   1.552   7.819 -0.2674  0.2054 -0.2672
  296loPI   C6A 4732   6.834   1.127   7.579 -0.1903  0.1157 -0.2505
  296loPI   C1B 4733   7.326   2.434   9.656 -0.0853 -0.0949 -0.0950
  296loPI   C2B 4734   7.117   2.578   9.208 -0.2730  0.1529  0.3146
  296loPI   C3B 4735   7.117   2.602   8.779 -0.1149  0.2800  0.1229
  296loPI   C4B 4736   7.000   2.865   8.425 -0.2800  0.1973  0.1918
  297loPI    C1 4737   9.483  13.968  10.615  0.2249 -0.0625 -0.0625
  297loPI    C2 4738   9.619  13.592  10.610  0.2241 -0.0690  0.2307
  297loPI    C3 4739   9.874  13.896  10.659  0.2157 -0.0349  0.0694
  297loPI   PO4 4740   9.297  13.954  10.438  0.0812 -0.0276 -0.2162
  297loPI   GL1 4741   9.209  14.086  10.036 -0.1193  0.2687  0.0084
  297loPI   GL2 4742   9.027  13.991   9.852  0.3678  0.1848  0.2228
  297loPI   C1A 4743   9.388  14.265   9.737  0.1165 -0.2462 -0.3208
  297loPI   C2A 4744   9.275  14.183   9.292  0.2604  0.1642  0.1652
  297loPI   C3A 4745   9.175  14.235   8.839  0.0290  0.0318 -0.1690
  297loPI   C4A 4746   9.147  14.091   8.361 -0.3227  0.2071  0.0413
  297loPI   C5A 4747   9.037  14.445   7.992  0.1867  0.1453  0.0012
  297loPI   C6A 4748   9.282  14.744   7.932  0.0063 -0.1319  0.1152
  297loPI   C1B 4749   8.872  14.219   9.536  0.1609 -0.3614 -0.0817
  297loPI   C2B 4750   8.736  14.163   9.147 -0.0944 -0.2374  0.2493
  297loPI   C3B 4751   8.414  14.393   8.854  0.0588  0.2888  0.0557
  297loPI   C4B 4752   8.062  14.623   8.670  0.3086  0.1769  0.2227
  298loPI    C1 4753  15.215  16.784  10.313 -0.1640 -0.1304 -0.0224
  298loPI    C2 4754  15.528  16.842  10.556 -0.1998 -0.1722  0.0340
  298loPI    C3 4755  15.170  16.994  10.651 -0.1736 -0.0345 -0.0826
  298loPI   PO4 4756  15.382  16.755  10.065 -0.1877  0.0713 -0.1667
  298loPI   GL1 4757  15.353  16.700   9.636  0.2558 -0.1459  0.0868
  298loPI   GL2 4758  15.696  16.823   9.639  0.0286 -0.0823  0.3399
  298loPI   C1A 4759  15.229  16.770   9.203  0.1230 -0.0410  0.1462
  298loPI   C2A 4760  15.294  16.686   8.764  0.1224  0.2499 -0.2638
  298loPI   C3A 4761  15.124  16.832   8.381  0.1065  0.1015  0.1375
  298loPI   C4A 4762  14.732  16.969   8.147 -0.3430 -0.0376 -0.0962
  298loPI   C5A 4763  14.502  16.829   7.771  0.2513 -0.0692 -0.0320
  298loPI   C6A 4764  14.251  16.562   7.491 -0.1875 -0.0151  0.2636
  298loPI   C1B 4765  15.770  16.859   9.239  0.0139  0.0462  0.0103
  298loPI   C2B 4766  15.795  16.773   8.874 -0.0604 -0.0066  0.2059
  298loPI   C3B 4767  15.813  16.646   8.474  0.0930  0.0874 -0.5650
  298loPI   C4B 4768  15.518  16.784   8.056 -0.4098 -0.4135  0.0570
  299loPI    C1 4769  11.487   1.202  10.256  0.1274 -0.0869  0.1231
  299loPI    C2 4770  11.808   1.147  10.024 -0.0511 -0.1413 -0.1142
  299loPI    C3 4771  11.752   1.498  10.208  0.0913 -0.0969 -0.1546
  299loPI   PO4 4772  11.553   0.894  10.412  0.0118  0.0820 -0.0866
  299loPI   GL1 4773  11.719   0.619  10.091  0.3211  0.0596  0.1028
  299loPI   GL2 4774  12.016   0.511   9.924 -0.0612  0.0824  0.0257
  299loPI   C1A 4775  11.615   0.668   9.659 -0.1162 -0.0423  0.0384
  299loPI   C2A 4776  11.715   0.920   9.204  0.0269  0.0888 -0.1659
  299loPI   C3A 4777  11.890   0.988   8.957  0.0456  0.0896  0.1805
  299loPI   C4A 4778  11.844   1.313   8.738 -0.2879 -0.1922 -0.2880
  299loPI   C5A 4779  11.872   1.749   8.860  0.0836 -0.0255 -0.1071
  299loPI   C6A 4780  11.817   2.082   9.133 -0.2022  0.2915  0.1285
  299loPI   C1B 4781  12.050   0.900   9.651 -0.1323 -0.0083 -0.1646
  299loPI   C2B 4782  12.233   0.981   9.261 -0.0976  0.0117 -0.0057
  299loPI   C3B 4783  12.207   1.306   9.054 -0.0170 -0.0702  0.0353
  299loPI   C4B 4784  12.290   1.543   8.635  0.1356  0.1979  0.1123
  300loPI    C1 4785   8.634   8.024  10.706 -0.0584 -0.0185 -0.0559
  300loPI    C2 4786   8.372   8.289  10.851 -0.0575 -0.0184 -0.0544
  300loPI    C3 4787   8.759   8.318  10.945 -0.0266  0.0970 -0.2135
  300loPI   PO4 4788   8.591   7.944  10.379 -0.1757 -0.2004 -0.1824
  300loPI   GL1 4789   8.790   8.148  10.057 -0.0914 -0.2086  0.0063
  300loPI   GL2 4790   8.723   8.411   9.819  0.0013  0.1297 -0.0455
  300loPI   C1A 4791   8.581   8.019   9.658 -0.1350  0.1553  0.1727
  300loPI   C2A 4792   8.463   7.967   9.232 -0.2919 -0.2227 -0.1972
  300loPI   C3A 4793   8.509   8.026   8.785 -0.1421 -0.0655 -0.1862
  300loPI   C4A 4794   8.451   7.770   8.493 -0.0125 -0.0987  0.0327
  300loPI   C5A 4795   8.298   7.731   8.098 -0.2586  0.1784  0.0765
  300loPI   C6A 4796   8.318   7.461   7.743  0.0435 -0.1255 -0.2407
  300loPI   C1B 4797   8.707   8.378   9.374  0.5812 -0.2483 -0.2767
  300loPI   C2B 4798   8.922   8.204   8.950  0.0931 -0.0155 -0.0995
  300loPI   C3B 4799   8.937   8.246   8.585  0.3956  0.0078 -0.1915
  300loPI   C4B 4800   9.020   7.998   8.187  0.0411  0.1494 -0.2603
  301loPI    C1 4801   1.730   4.424  10.727  0.1922 -0.1462  0.1469
  301loPI    C2 4802   2.078   4.604  10.811  0.1343  0.1539 -0.2256
  301loPI    C3 4803   1.734   4.769  10.929  0.0960  0.1078 -0.2719
  301loPI   PO4 4804   1.789   4.374  10.423  0.1285 -0.0334  0.3483
  301loPI   GL1 4805   1.842   4.635  10.031  0.0707  0.1212 -0.0911
  301loPI   GL2 4806   1.686   4.995   9.930  0.0873  0.2745 -0.0869
  301loPI   C1A 4807   1.879   4.727   9.599  0.1876 -0.0254 -0.1215
  301loPI   C2A 4808   1.837   4.939   9.227 -0.1044 -0.0775 -0.2339
  301loPI   C3A 4809   1.714   4.894   8.770  0.0418  0.2367  0.0421
  301loPI   C4A 4810   1.418   4.971   8.376  0.3747 -0.3352  0.1006
  301loPI   C5A 4811   1.024   5.027   8.140 -0.0666 -0.2684  0.0291
  301loPI   C6A 4812   0.727   5.370   8.041 -0.2046  0.1445  0.0464
  301loPI   C1B 4813   2.082   5.169   9.740 -0.0332 -0.2764 -0.2592
  301loPI   C2B 4814   2.058   5.399   9.329 -0.4401 -0.2776 -0.0085
  301loPI   C3B 4815   2.070   5.355   8.908  0.1037 -0.2321 -0.1128
  301loPI   C4B 4816   2.171   5.411   8.512  0.2159 -0.0440  0.2576
  302loPI    C1 4817   0.408   3.154  10.470 -0.0060  0.0711  0.1513
  302loPI    C2 4818   0.415   3.448  10.741 -0.1813  0.0045  0.2294
  302loPI    C3 4819   0.269   3.089  10.839 -0.0907 -0.0696  0.0954
  302loPI   PO4 4820   0.618   3.312  10.254 -0.2960 -0.3076 -0.0775
  302loPI   GL1 4821   0.781   3.409   9.861 -0.0608  0.2879  0.0151
  302loPI   GL2 4822   1.063   3.545   9.799 -0.1853  0.0478  0.0840
  302loPI   C1A 4823   0.810   3.255   9.491 -0.1241  0.1835  0.1603
  302loPI   C2A 4824   0.553   3.202   9.136 -0.0730 -0.0914 -0.1498
  302loPI   C3A 4825   0.298   3.238   8.748  0.2052 -0.2190  0.1371
  302loPI   C4A 4826   0.147   3.096   8.362 -0.2085 -0.1409 -0.1927
  302loPI   C5A 4827  -0.109   3.264   8.052  0.1355 -0.3797  0.0395
  302loPI   C6A 4828  -0.178   3.374   7.660  0.0203  0.0143 -0.1573
  302loPI   C1B 4829   1.119   3.637   9.384  0.0797 -0.1776  0.1269
  302loPI   C2B 4830   1.041   3.454   8.925 -0.3263  0.1273  0.0296
  302loPI   C3B 4831   1.239   3.265   8.637 -0.3544 -0.0796 -0.0317
  302loPI   C4B 4832   1.549   3.189   8.436 -0.2304  0.1620  0.0551
  303loPI    C1 4833  13.860   2.781   9.998  0.0920 -0.1828  0.0432
  303loPI    C2 4834  13.880   2.731  10.394 -0.2970 -0.1369  0.0725
  303loPI    C3 4835  14.024   3.065  10.227  0.0004 -0.2202  0.1559
  303loPI   PO4 4836  13.646   2.472   9.997 -0.0374  0.0080  0.1765
  303loPI   GL1 4837  13.777   2.098   9.795 -0.1218 -0.1097 -0.2649
  303loPI   GL2 4838  14.048   2.079   9.609 -0.5068 -0.6345 -0.0618
  303loPI   C1A 4839  13.604   1.702   9.443 -0.0112  0.0344  0.1947
  303loPI   C2A 4840  13.569   1.694   9.066  0.1059 -0.2284  0.1127
  303loPI   C3A 4841  13.658   1.714   8.642  0.2402  0.0587  0.0980
  303loPI   C4A 4842  13.609   1.683   8.286  0.3480 -0.2105  0.4284
  303loPI   C5A 4843  13.329   1.593   8.025  0.3659 -0.0623  0.0014
  303loPI   C6A 4844  12.971   1.487   7.902 -0.2306  0.0137 -0.0076
  303loPI   C1B 4845  13.960   2.015   9.172 -0.0920  0.0305 -0.0278
  303loPI   C2B 4846  14.072   2.058   8.771  0.0650 -0.0621  0.0589
  303loPI   C3B 4847  14.093   1.978   8.410 -0.4468  0.0538  0.1191
  303loPI   C4B 4848  14.037   1.854   8.086  0.0003 -0.0001  0.0186
  304loPI    C1 4849   9.815  11.574  10.350 -0.4069  0.2651 -0.2844
  304loPI    C2 4850   9.845  11.861  10.627 -0.2152  0.0055 -0.0309
  304loPI    C3 4851   9.655  11.519  10.712  0.1810 -0.2345 -0.0835
  304loPI   PO4 4852   9.924  11.762  10.111 -0.2743  0.0880  0.1174
  304loPI   GL1 4853   9.892  11.793   9.773  0.2716  0.1927 -0.1334
  304loPI   GL2 4854  10.047  11.468   9.598 -0.3331  0.3470  0.0598
  304loPI   C1A 4855   9.775  11.844   9.354 -0.1389  0.0197  0.0936
  304loPI   C2A 4856   9.637  11.974   8.939  0.0244 -0.0128  0.2696
  304loPI   C3A 4857   9.665  12.082   8.476  0.0159  0.1901 -0.2707
  304loPI   C4A 4858   9.749  12.212   8.080  0.1966 -0.1041  0.0632
  304loPI   C5A 4859   9.939  12.127   7.789 -0.2383  0.1508  0.1375
  304loPI   C6A 4860   9.961  12.021   7.351 -0.1691  0.2497 -0.1108
  304loPI   C1B 4861  10.174  11.509   9.242  0.1977 -0.0667 -0.2563
  304loPI   C2B 4862  10.194  11.453   8.755  0.0338  0.1258  0.0660
  304loPI   C3B 4863  10.059  11.382   8.354  0.1332  0.0366  0.2977
  304loPI   C4B 4864   9.851  11.379   8.020 -0.2964 -0.0619  0.0758
  305loPI    C1 4865  13.363   6.748   9.925 -0.0394 -0.1760 -0.1301
  305loPI    C2 4866  13.441   7.091  10.115  0.0485 -0.2584 -0.0166
  305loPI    C3 4867  13.253   6.794  10.306 -0.2016 -0.2032 -0.1726
  305loPI   PO4 4868  13.559   6.521   9.816  0.3709  0.0785  0.0529
  305loPI   GL1 4869  13.699   6.454   9.503  0.3683  0.2530  0.1809
  305loPI   GL2 4870  13.516   6.590   9.247 -0.3408 -0.0228 -0.1552
  305loPI   C1A 4871  13.964   6.459   9.100 -0.3470 -0.0744 -0.0922
  305loPI   C2A 4872  13.973   6.527   8.758 -0.0122  0.2947 -0.1410
  305loPI   C3A 4873  14.051   6.705   8.409  0.2260  0.1262  0.0449
  305loPI   C4A 4874  13.837   6.866   8.049  0.0283  0.0658  0.0791
  305loPI   C5A 4875  13.518   6.656   7.669 -0.0135 -0.0985  0.4401
  305loPI   C6A 4876  13.361   6.580   7.250 -0.2189 -0.1503 -0.1273
  305loPI   C1B 4877  13.566   6.814   8.957 -0.1260 -0.1251 -0.0087
  305loPI   C2B 4878  13.563   6.817   8.560 -0.0435  0.0973 -0.1408
  305loPI   C3B 4879  13.676   7.246   8.292 -0.3226  0.1719  0.3460
  305loPI   C4B 4880  13.595   7.254   7.852 -0.3161 -0.0922  0.2305
  306loPI    C1 4881  13.197   0.851  10.303  0.4286 -0.0919  0.1529
  306loPI    C2 4882  13.031   0.556  10.517  0.2028  0.0474  0.1733
  306loPI    C3 4883  13.098   0.912  10.686 -0.2511  0.2530 -0.0625
  306loPI   PO4 4884  13.428   0.597  10.164  0.0630 -0.2345 -0.2424
  306loPI   GL1 4885  13.326   0.492   9.845 -0.0185 -0.1405 -0.0436
  306loPI   GL2 4886  13.080   0.673   9.744 -0.0041 -0.5667  0.1333
  306loPI   C1A 4887  13.385   0.412   9.411  0.3253  0.1035  0.1986
  306loPI   C2A 4888  13.610   0.097   9.093  0.3593 -0.1107  0.2639
  306loPI   C3A 4889  13.603  -0.128   8.679  0.0958  0.0635  0.0288
  306loPI   C4A 4890  13.911  -0.423   8.532 -0.1903  0.1999 -0.1190
  306loPI   C5A 4891  14.360  -0.584   8.259 -0.0538 -0.0340  0.1094
  306loPI   C6A 4892  14.604  -0.872   8.110  0.1737  0.3317 -0.2219
  306loPI   C1B 4893  13.092   0.762   9.266 -0.0210 -0.2017 -0.1346
  306loPI   C2B 4894  12.927   0.782   8.900  0.0483  0.1144 -0.1753
  306loPI   C3B 4895  12.895   0.660   8.445 -0.2456  0.3842  0.2517
  306loPI   C4B 4896  13.003   0.451   8.124  0.2814  0.3890  0.1159
  307loPI    C1 4897  18.396   5.505  10.113  0.2067 -0.1255 -0.2437
  307loPI    C2 4898  18.122   5.280   9.927 -0.1026  0.0884 -0.0551
  307loPI    C3 4899  18.069   5.675   9.959  0.0685  0.0884  0.2685
  307loPI   PO4 4900  18.637   5.401  10.057  0.0071 -0.0225 -0.2098
  307loPI   GL1 4901  18.799   5.261   9.591  0.1470 -0.0914  0.1933
  307loPI   GL2 4902  19.162   5.104   9.477 -0.3014  0.0648 -0.1313
  307loPI   C1A 4903  18.783   5.405   9.193 -0.1170 -0.0255  0.2401
  307loPI   C2A 4904  18.648   5.574   8.811  0.0502 -0.0992  0.3984
  307loPI   C3A 4905  18.470   5.678   8.378 -0.1331 -0.1061 -0.1007
  307loPI   C4A 4906  18.052   5.784   8.098  0.2123 -0.0820  0.0044
  307loPI   C5A 4907  17.981   6.087   7.851  0.1909  0.0139  0.0469
  307loPI   C6A 4908  18.201   6.379   7.628  0.2851 -0.1685 -0.2144
  307loPI   C1B 4909  19.202   5.240   9.004 -0.0967  0.1285 -0.2753
  307loPI   C2B 4910  19.021   5.363   8.529  0.3594 -0.2955  0.3109
  307loPI   C3B 4911  18.689   5.325   8.096 -0.3915  0.1955  0.1553
  307loPI   C4B 4912  18.436   5.614   7.842 -0.3569  0.0660 -0.1319
  308loPI    C1 4913   3.269   7.094  10.696 -0.1127 -0.0998 -0.1036
  308loPI    C2 4914   2.954   6.927  10.877 -0.0487  0.1246  0.2236
  308loPI    C3 4915   3.170   7.204  11.067  0.3035  0.0279 -0.0256
  308loPI   PO4 4916   3.245   7.141  10.367 -0.3226 -0.0354 -0.5020
  308loPI   GL1 4917   3.467   7.210  10.015 -0.0649 -0.1214  0.0672
  308loPI   GL2 4918   3.602   6.947   9.990  0.0149 -0.0701  0.1149
  308loPI   C1A 4919   3.486   7.384   9.577  0.1879  0.2435  0.0537
  308loPI   C2A 4920   3.473   7.524   9.155 -0.0824  0.0512 -0.0139
  308loPI   C3A 4921   3.384   7.460   8.786  0.1955 -0.1788  0.1938
  308loPI   C4A 4922   3.312   7.336   8.414 -0.1271 -0.0036 -0.1232
  308loPI   C5A 4923   3.023   7.126   8.145 -0.1949  0.0637  0.1686
  308loPI   C6A 4924   2.865   7.330   7.717 -0.0915 -0.2958  0.1144
  308loPI   C1B 4925   3.734   6.965   9.623 -0.2554  0.0932 -0.0566
  308loPI   C2B 4926   3.842   7.198   9.240 -0.2146  0.1598 -0.2073
  308loPI   C3B 4927   4.111   7.258   8.884 -0.1120 -0.0173 -0.0916
  308loPI   C4B 4928   4.482   7.180   8.736  0.3904  0.0796  0.4393
  309loPI    C1 4929   9.531   2.029  10.489  0.1444 -0.2404 -0.1008
  309loPI    C2 4930   9.901   1.989  10.637  0.1468 -0.1366 -0.0774
  309loPI    C3 4931   9.619   2.174  10.852  0.0867 -0.1966 -0.1041
  309loPI   PO4 4932   9.563   2.182  10.329 -0.4943 -0.2145  0.0716
  309loPI   GL1 4933   9.705   2.272   9.999 -0.0123 -0.1016 -0.3601
  309loPI   GL2 4934   9.813   2.527   9.798 -0.3679  0.1301  0.0687
  309loPI   C1A 4935   9.858   2.017   9.654 -0.0915 -0.1207 -0.1750
  309loPI   C2A 4936   9.870   1.922   9.241  0.0588  0.2193  0.4110
  309loPI   C3A 4937  10.011   1.961   8.779 -0.3485 -0.0369  0.3803
  309loPI   C4A 4938  10.152   1.777   8.334  0.2988  0.1597 -0.2727
  309loPI   C5A 4939  10.504   1.648   8.183  0.1055 -0.0254 -0.0735
  309loPI   C6A 4940  10.602   1.375   7.856  0.2956 -0.1102 -0.1355
  309loPI   C1B 4941   9.685   2.402   9.334  0.2072 -0.0033  0.1775
  309loPI   C2B 4942   9.792   2.378   8.879 -0.0562  0.2945  0.0047
  309loPI   C3B 4943   9.439   2.334   8.562  0.2045 -0.1134 -0.5728
  309loPI   C4B 4944   9.524   2.220   8.117  0.0733 -0.0300  0.1526
  310loPI    C1 4945   7.229   3.777  10.205  0.0677 -0.0035  0.0322
  310loPI    C2 4946   7.498   3.481  10.227 -0.0115 -0.0758  0.0302
  310loPI    C3 4947   7.516   3.788  10.484 -0.1383 -0.2565  0.2590
  310loPI   PO4 4948   7.240   3.851   9.966 -0.0763  0.0969 -0.3569
  310loPI   GL1 4949   7.439   3.748   9.668  0.0760 -0.0243  0.0903
  310loPI   GL2 4950   7.547   3.566   9.570  0.2306  0.4050 -0.1267
  310loPI   C1A 4951   7.277   3.832   9.232 -0.2415 -0.1436 -0.0679
  310loPI   C2A 4952   7.187   3.792   8.874  0.1208  0.1954 -0.0670
  310loPI   C3A 4953   6.874   3.811   8.601  0.1605  0.2062  0.0070
  310loPI   C4A 4954   6.731   3.757   8.180 -0.2319  0.0233  0.3935
  310loPI   C5A 4955   6.556   3.577   7.929  0.2822 -0.1334  0.1229
  310loPI   C6A 4956   6.257   3.290   7.701  0.1152 -0.0138  0.0244
  310loPI   C1B 4957   7.644   3.555   9.144 -0.2321  0.0820 -0.3151
  310loPI   C2B 4958   7.739   3.681   8.795  0.0662  0.0228 -0.0968
  310loPI   C3B 4959   7.715   3.386   8.374 -0.2177  0.0883 -0.1230
  310loPI   C4B 4960   7.776   3.234   8.023 -0.0078  0.1417  0.1114
  311loPI    C1 4961  17.568   7.092   9.845 -0.1908 -0.2834 -0.0747
  311loPI    C2 4962  17.376   7.022  10.189 -0.2883  0.2619 -0.0084
  311loPI    C3 4963  17.776   7.033  10.182 -0.2779 -0.0102  0.0298
  311loPI   PO4 4964  17.489   6.878   9.723  0.1929  0.0632  0.1250
  311loPI   GL1 4965  17.234   6.968   9.415  0.2191 -0.1016  0.0107
  311loPI   GL2 4966  17.479   7.168   9.252 -0.5019 -0.2905  0.0372
  311loPI   C1A 4967  17.404   6.745   9.094 -0.0351 -0.2134 -0.0120
  311loPI   C2A 4968  17.334   6.409   8.769 -0.0836 -0.3550 -0.0494
  311loPI   C3A 4969  17.619   6.154   8.480  0.1859  0.0028 -0.2543
  311loPI   C4A 4970  18.048   6.242   8.372  0.2219  0.3545 -0.0084
  311loPI   C5A 4971  18.418   6.178   8.170  0.5217  0.0844 -0.1709
  311loPI   C6A 4972  18.629   6.031   7.711 -0.0446 -0.0046  0.1970
  311loPI   C1B 4973  17.690   7.046   8.857 -0.2014 -0.0215  0.3046
  311loPI   C2B 4974  17.797   7.144   8.406 -0.0193  0.1154  0.0939
  311loPI   C3B 4975  18.032   7.462   8.162  0.2021  0.0860  0.0106
  311loPI   C4B 4976  18.207   7.817   7.868  0.0795  0.0535  0.2165
  312loPI    C1 4977   6.897  12.196  10.264 -0.2408  0.0184 -0.0050
  312loPI    C2 4978   7.140  12.421  10.487 -0.0763 -0.0379 -0.1257
  312loPI    C3 4979   6.893  12.160  10.662 -0.0248 -0.0057 -0.0040
  312loPI   PO4 4980   6.739  12.359  10.100  0.1213 -0.2247  0.1764
  312loPI   GL1 4981   6.643  12.685   9.802 -0.1357 -0.1797 -0.0449
  312loPI   GL2 4982   6.824  13.001   9.740  0.0177 -0.3232 -0.0670
  312loPI   C1A 4983   6.980  12.621   9.433 -0.3309  0.0162  0.1522
  312loPI   C2A 4984   6.813  12.630   9.037  0.3318 -0.0800  0.3155
  312loPI   C3A 4985   6.821  12.515   8.571  0.1105  0.2831 -0.1951
  312loPI   C4A 4986   6.751  12.603   8.135 -0.2032 -0.1306  0.0251
  312loPI   C5A 4987   6.461  12.573   7.887  0.2437 -0.1090 -0.1427
  312loPI   C6A 4988   5.938  12.518   7.977 -0.0231  0.1054  0.3637
  312loPI   C1B 4989   6.665  13.048   9.319 -0.1666 -0.0888  0.0917
  312loPI   C2B 4990   6.473  13.117   8.862  0.0479 -0.2462  0.2166
  312loPI   C3B 4991   6.579  13.215   8.559  0.0665  0.0976  0.0549
  312loPI   C4B 4992   6.700  13.095   8.160 -0.0162  0.2651  0.1467
  313loPI    C1 4993   2.248   9.432  10.256  0.0207 -0.0424 -0.1663
  313loPI    C2 4994   1.859   9.341  10.266  0.0170 -0.0354 -0.2422
  313loPI    C3 4995   1.980   9.711  10.359  0.0145 -0.0636 -0.1251
  313loPI   PO4 4996   2.303   9.323  10.032  0.0008  0.0623  0.1259
  313loPI   GL1 4997   2.480   9.173   9.726  0.0066 -0.0992  0.0509
  313loPI   GL2 4998   2.585   8.948   9.676 -0.1786 -0.3448 -0.1042
  313loPI   C1A 4999   2.350   9.460   9.441 -0.3264  0.2622  0.0440
  313loPI   C2A 5000   2.190   9.744   9.153  0.0358 -0.2105 -0.0775
  313loPI   C3A 5001   2.367   9.973   8.855  0.1448 -0.1197 -0.0835
  313loPI   C4A 5002   2.398   9.903   8.429 -0.0013 -0.0509  0.0469
  313loPI   C5A 5003   2.719   9.869   8.065 -0.0247 -0.0086 -0.3283
  313loPI   C6A 5004   2.650   9.758   7.642 -0.0636  0.1697 -0.1241
  313loPI   C1B 5005   2.569   8.887   9.246  0.1774  0.3441 -0.2173
  313loPI   C2B 5006   2.643   8.869   8.839 -0.2938 -0.5208  0.1125
  313loPI   C3B 5007   2.729   8.634   8.376 -0.1615 -0.2008 -0.5662
  313loPI   C4B 5008   2.639   8.894   8.026  0.2882  0.2101  0.1693
  314loPI    C1 5009  17.830  15.964  10.131 -0.1495  0.0634 -0.2404
  314loPI    C2 5010  17.518  16.036   9.890 -0.1140  0.1942 -0.2482
  314loPI    C3 5011  17.540  16.213  10.248 -0.0976  0.1078 -0.2061
  314loPI   PO4 5012  18.029  16.069   9.945  0.0537  0.3312 -0.1236
  314loPI   GL1 5013  18.089  16.334   9.680 -0.0413 -0.0107 -0.1155
  314loPI   GL2 5014  18.462  16.238   9.741  0.1160 -0.0320  0.1042
  314loPI   C1A 5015  17.851  16.230   9.291  0.0323  0.0102 -0.0586
  314loPI   C2A 5016  17.913  16.284   8.794 -0.0101 -0.2627  0.1931
  314loPI   C3A 5017  17.703  16.529   8.409  0.3259  0.2162 -0.2364
  314loPI   C4A 5018  17.551  16.917   8.135  0.2532  0.0017 -0.1604
  314loPI   C5A 5019  17.741  17.274   8.006  0.0272  0.2434 -0.1151
  314loPI   C6A 5020  17.784  17.376   7.590  0.0433 -0.0429  0.2548
  314loPI   C1B 5021  18.426  16.463   9.337  0.1474  0.0773 -0.2491
  314loPI   C2B 5022  18.351  16.462   8.891  0.1300  0.0104  0.0618
  314loPI   C3B 5023  18.292  16.446   8.397  0.1900  0.0704 -0.2448
  314loPI   C4B 5024  18.310  16.381   7.973  0.1336  0.1638  0.1401
  315loPI    C1 5025   6.343   4.072  10.287  0.0143  0.2212  0.2309
  315loPI    C2 5026   6.081   4.231  10.545 -0.0771  0.0155  0.2666
  315loPI    C3 5027   6.358   3.972  10.673 -0.0311  0.0223  0.1822
  315loPI   PO4 5028   6.479   4.244  10.158  0.2880 -0.1734  0.3020
  315loPI   GL1 5029   6.566   4.395   9.767  0.0312 -0.0687  0.3752
  315loPI   GL2 5030   6.608   4.643   9.698  0.2927  0.0761 -0.2104
  315loPI   C1A 5031   6.371   4.310   9.468 -0.0255 -0.3010  0.1865
  315loPI   C2A 5032   6.099   4.337   9.056 -0.3034  0.1686  0.0348
  315loPI   C3A 5033   6.113   4.190   8.602 -0.0310 -0.2355 -0.2408
  315loPI   C4A 5034   6.274   3.969   8.242  0.0195 -0.2019  0.1540
  315loPI   C5A 5035   6.175   3.583   8.224 -0.0250 -0.0941  0.0067
  315loPI   C6A 5036   5.830   3.307   8.183 -0.1284 -0.0622 -0.0677
  315loPI   C1B 5037   6.573   4.668   9.212  0.2188 -0.0327 -0.2961
  315loPI   C2B 5038   6.584   4.721   8.724 -0.0292  0.1702 -0.2038
  315loPI   C3B 5039   6.621   4.817   8.361 -0.0748  0.0500  0.0563
  315loPI   C4B 5040   6.435   4.777   7.983  0.0645  0.3630  0.1347
  316loPI    C1 5041   2.968  12.436   9.918 -0.1034 -0.0534 -0.0600
  316loPI    C2 5042   2.774  12.490  10.263  0.1654 -0.1122  0.1038
  316loPI    C3 5043   3.153  12.611  10.226 -0.0108  0.3448 -0.3336
  316loPI   PO4 5044   2.774  12.522   9.772 -0.0185  0.3138  0.0676
  316loPI   GL1 5045   2.646  12.788   9.466 -0.1058 -0.3360 -0.2591
  316loPI   GL2 5046   2.552  13.047   9.434  0.0979 -0.3871 -0.1756
  316loPI   C1A 5047   2.534  12.530   9.067  0.1979 -0.0414  0.0446
  316loPI   C2A 5048   2.439  12.549   8.641  0.3387  0.0500 -0.1031
  316loPI   C3A 5049   2.152  12.234   8.361 -0.0495 -0.1793 -0.2688
  316loPI   C4A 5050   1.978  11.760   8.398 -0.2180 -0.1989  0.0573
  316loPI   C5A 5051   1.726  11.565   8.096  0.1027  0.0427  0.2055
  316loPI   C6A 5052   1.552  11.272   7.761  0.2394 -0.1131 -0.1813
  316loPI   C1B 5053   2.836  13.063   9.164  0.1766 -0.0511 -0.0309
  316loPI   C2B 5054   2.719  12.937   8.733 -0.2491 -0.0289  0.0124
  316loPI   C3B 5055   2.587  12.873   8.222 -0.1972  0.1682  0.0601
  316loPI   C4B 5056   2.699  12.762   7.785  0.2334  0.0001  0.0541
  317loPI    C1 5057  13.937   5.915  10.256  0.1974  0.1811 -0.3256
  317loPI    C2 5058  13.955   6.219  10.516  0.3041 -0.0821 -0.0186
  317loPI    C3 5059  13.665   5.945  10.548  0.2313 -0.0371 -0.2700
  317loPI   PO4 5060  13.907   6.052   9.979  0.1902 -0.0261  0.1270
  317loPI   GL1 5061  13.912   5.980   9.503  0.2614 -0.1188 -0.2085
  317loPI   GL2 5062  13.704   5.673   9.339 -0.1215  0.0637  0.0181
  317loPI   C1A 5063  14.050   5.966   9.023  0.3869  0.3034 -0.1266
  317loPI   C2A 5064  14.006   6.040   8.622  0.1557  0.1424  0.1096
  317loPI   C3A 5065  13.959   6.127   8.152 -0.0237 -0.1470 -0.2735
  317loPI   C4A 5066  13.954   6.389   7.855  0.1611  0.0379 -0.2435
  317loPI   C5A 5067  14.218   6.253   7.428  0.0676 -0.1112 -0.1949
  317loPI   C6A 5068  14.192   5.872   7.237 -0.0354 -0.0249  0.0992
  317loPI   C1B 5069  13.497   6.029   9.232  0.6804  0.0036 -0.0564
  317loPI   C2B 5070  13.487   6.307   8.823 -0.2686  0.0493 -0.1320
  317loPI   C3B 5071  13.532   6.287   8.405 -0.0181  0.2330 -0.0863
  317loPI   C4B 5072  13.396   6.264   7.963 -0.0967 -0.0552 -0.2082
  318loPI    C1 5073   1.282   2.070  10.521 -0.3403  0.0919 -0.0660
  318loPI    C2 5074   1.202   1.835  10.207 -0.0858  0.0653 -0.1127
  318loPI    C3 5075   1.136   1.702  10.578 -0.2380  0.0383 -0.1487
  318loPI   PO4 5076   1.505   2.248  10.437  0.0322  0.0709  0.0550
  318loPI   GL1 5077   1.637   2.357  10.038 -0.0927  0.0677  0.0446
  318loPI   GL2 5078   1.598   2.003   9.923  0.2606  0.2776 -0.1676
  318loPI   C1A 5079   1.458   2.505   9.789  0.0849  0.0410 -0.1422
  318loPI   C2A 5080   1.478   2.557   9.379  0.1282  0.0587 -0.1334
  318loPI   C3A 5081   1.656   2.464   8.925  0.0777 -0.2422 -0.1056
  318loPI   C4A 5082   1.871   2.530   8.692 -0.0746 -0.1589  0.0206
  318loPI   C5A 5083   2.239   2.376   8.550  0.3175  0.0000  0.3920
  318loPI   C6A 5084   2.440   1.973   8.398  0.0390  0.1737 -0.0402
  318loPI   C1B 5085   1.417   2.073   9.499 -0.0401  0.1007 -0.1532
  318loPI   C2B 5086   1.144   2.249   9.188 -0.1118 -0.0316  0.0734
  318loPI   C3B 5087   1.065   2.430   8.742  0.1459 -0.0538 -0.1541
  318loPI   C4B 5088   0.973   2.412   8.305  0.2043 -0.1337 -0.1052
  319loPI    C1 5089  16.305   9.401  10.131 -0.1605  0.1209 -0.0614
  319loPI    C2 5090  16.214   9.668  10.415  0.0441  0.2205 -0.0871
  319loPI    C3 5091  16.254   9.282  10.509  0.0877  0.2499  0.0156
  319loPI   PO4 5092  16.219   9.516   9.956  0.0996  0.1155  0.2002
  319loPI   GL1 5093  16.087   9.778   9.695 -0.0514 -0.2092 -0.0444
  319loPI   GL2 5094  15.927   9.449   9.612 -0.0763  0.0158 -0.0035
  319loPI   C1A 5095  16.347   9.813   9.272 -0.1382 -0.0020 -0.2055
  319loPI   C2A 5096  16.348   9.648   8.776  0.1266  0.2390  0.0762
  319loPI   C3A 5097  16.254   9.507   8.331 -0.1182 -0.3796  0.0194
  319loPI   C4A 5098  16.149   9.612   7.887 -0.1894  0.3320  0.3084
  319loPI   C5A 5099  16.261   9.233   7.628 -0.1413 -0.0824 -0.0999
  319loPI   C6A 5100  16.591   8.920   7.454 -0.1409  0.1555  0.0172
  319loPI   C1B 5101  15.889   9.618   9.190 -0.3223  0.1403  0.0413
  319loPI   C2B 5102  15.861   9.416   8.810  0.2849 -0.0932  0.2440
  319loPI   C3B 5103  15.621   9.096   8.648 -0.1222 -0.1418 -0.2753
  319loPI   C4B 5104  15.452   9.095   8.194 -0.3501 -0.4714  0.0479
  320loPI    C1 5105   5.842   2.547  10.522 -0.2679 -0.2335  0.1405
  320loPI    C2 5106   6.230   2.460  10.567 -0.2032  0.0286  0.1060
  320loPI    C3 5107   5.967   2.357  10.851 -0.1547 -0.4072 -0.0017
  320loPI   PO4 5108   5.853   2.760  10.351  0.2167  0.0199 -0.2708
  320loPI   GL1 5109   5.916   2.818   9.963  0.0454 -0.1595 -0.1586
  320loPI   GL2 5110   5.553   2.933   9.954  0.0074 -0.3622 -0.0457
  320loPI   C1A 5111   5.793   2.769   9.469 -0.1110  0.0334 -0.0783
  320loPI   C2A 5112   5.805   2.550   9.115  0.0109  0.1502  0.1399
  320loPI   C3A 5113   5.714   2.325   8.687  0.0809  0.2128 -0.1209
  320loPI   C4A 5114   5.834   1.959   8.336  0.0919  0.0878 -0.0933
  320loPI   C5A 5115   5.801   1.666   7.940  0.0631 -0.2876 -0.0603
  320loPI   C6A 5116   6.114   1.446   7.928 -0.3132  0.0209  0.0072
  320loPI   C1B 5117   5.437   3.125   9.652  0.1384  0.0300  0.0789
  320loPI   C2B 5118   5.343   3.085   9.330 -0.0303  0.1564  0.1391
  320loPI   C3B 5119   5.247   3.168   8.898  0.2012 -0.0184  0.2749
  320loPI   C4B 5120   5.071   2.994   8.591  0.1544  0.0083  0.0136
  321loPI    C1 5121  14.875   0.659  10.543 -0.0058 -0.1670 -0.0076
  321loPI    C2 5122  14.991   0.574  10.917 -0.0909 -0.1532  0.0220
  321loPI    C3 5123  14.774   0.309  10.709  0.2355 -0.3014 -0.1376
  321loPI   PO4 5124  15.125   0.695  10.419  0.1684  0.2328  0.0650
  321loPI   GL1 5125  15.100   0.755  10.071 -0.2464  0.1386 -0.1191
  321loPI   GL2 5126  15.302   0.769   9.904  0.2058 -0.2942 -0.2290
  321loPI   C1A 5127  14.913   0.940   9.693  0.1829 -0.2963  0.1487
  321loPI   C2A 5128  14.823   1.019   9.278 -0.1189 -0.2543  0.2456
  321loPI   C3A 5129  14.811   0.986   8.835  0.2811 -0.4683 -0.0544
  321loPI   C4A 5130  14.772   0.910   8.463  0.0762 -0.0339  0.0868
  321loPI   C5A 5131  14.943   0.849   8.042 -0.0073  0.2276  0.1285
  321loPI   C6A 5132  15.036   0.604   7.685 -0.1201  0.0383  0.0881
  321loPI   C1B 5133  15.147   0.595   9.454 -0.2508  0.0324  0.1022
  321loPI   C2B 5134  14.985   0.603   9.053 -0.2689  0.1259  0.0109
  321loPI   C3B 5135  15.001   0.389   8.611  0.0653 -0.2953 -0.0338
  321loPI   C4B 5136  14.844   0.416   8.201  0.0502  0.0193  0.0849
  322loPI    C1 5137   3.238  14.748  10.487 -0.1943  0.1833  0.0553
  322loPI    C2 5138   3.089  14.702  10.855  0.0524  0.0567  0.1416
  322loPI    C3 5139   3.242  15.054  10.744 -0.1850  0.1477  0.0979
  322loPI   PO4 5140   3.004  14.636  10.356 -0.1177  0.4591  0.0487
  322loPI   GL1 5141   2.974  14.720   9.941 -0.0893  0.1421  0.1987
  322loPI   GL2 5142   2.721  14.767   9.758  0.0727 -0.1611  0.1088
  322loPI   C1A 5143   3.161  14.776   9.587 -0.2505  0.0091 -0.3155
  322loPI   C2A 5144   3.252  14.733   9.247  0.1416 -0.1605  0.0100
  322loPI   C3A 5145   3.283  14.775   8.745  0.0973 -0.1307 -0.0002
  322loPI   C4A 5146   3.278  14.953   8.272 -0.2936  0.0311 -0.0478
  322loPI   C5A 5147   2.958  15.228   8.056 -0.1218  0.1240  0.0590
  322loPI   C6A 5148   2.913  15.635   7.895 -0.1248 -0.1246  0.0203
  322loPI   C1B 5149   2.423  14.802   9.472 -0.3363 -0.1309  0.0473
  322loPI   C2B 5150   2.521  14.925   9.143 -0.3756 -0.2944  0.1267
  322loPI   C3B 5151   2.804  14.868   8.727 -0.3448  0.0266  0.1102
  322loPI   C4B 5152   2.747  14.714   8.269 -0.1501  0.2197  0.0342
  323loPI    C1 5153  13.947   9.614  10.326  0.0706  0.0001  0.0915
  323loPI    C2 5154  13.858   9.249  10.189  0.0984 -0.0084  0.0963
  323loPI    C3 5155  14.220   9.406  10.121  0.0687  0.0396  0.0487
  323loPI   PO4 5156  13.759   9.737  10.216  0.1888  0.0773  0.3209
  323loPI   GL1 5157  13.660  10.049   9.843  0.0749  0.2153  0.2069
  323loPI   GL2 5158  13.445  10.305   9.780 -0.1337 -0.0779 -0.0895
  323loPI   C1A 5159  13.539   9.857   9.464 -0.0536  0.4742  0.0076
  323loPI   C2A 5160  13.593   9.906   8.955 -0.2112 -0.0093 -0.1854
  323loPI   C3A 5161  13.742   9.897   8.503 -0.1008 -0.3335 -0.0592
  323loPI   C4A 5162  13.618   9.795   8.189  0.0688 -0.0955  0.1479
  323loPI   C5A 5163  13.570  10.014   7.820 -0.0169 -0.0604  0.1432
  323loPI   C6A 5164  13.847  10.048   7.472 -0.1054 -0.0501 -0.1219
  323loPI   C1B 5165  13.363  10.289   9.362 -0.1607  0.0458 -0.2481
  323loPI   C2B 5166  13.315  10.361   8.887  0.1211 -0.3285 -0.1232
  323loPI   C3B 5167  13.443  10.433   8.482 -0.1206  0.4351  0.1543
  323loPI   C4B 5168  13.560  10.358   8.155  0.1173  0.1398  0.2312
  324loPI    C1 5169  15.425  15.376  10.054 -0.0286 -0.1046  0.1178
  324loPI    C2 5170  15.135  15.139  10.193  0.0422 -0.1586  0.1745
  324loPI    C3 5171  15.279  15.434  10.421 -0.0534 -0.0533  0.0999
  324loPI   PO4 5172  15.380  15.463   9.828  0.0917 -0.1534  0.0990
  324loPI   GL1 5173  15.360  15.650   9.357 -0.0782  0.0786 -0.3379
  324loPI   GL2 5174  15.720  15.522   9.473  0.3068 -0.3997  0.0516
  324loPI   C1A 5175  15.493  15.719   8.893 -0.1669  0.3021 -0.1248
  324loPI   C2A 5176  15.561  15.750   8.457  0.1497 -0.0910 -0.0810
  324loPI   C3A 5177  15.491  15.986   8.040 -0.3438  0.1772 -0.1093
  324loPI   C4A 5178  15.260  16.381   7.913  0.1937  0.2082 -0.1354
  324loPI   C5A 5179  15.033  16.800   7.740 -0.0932  0.0802 -0.0601
  324loPI   C6A 5180  15.232  17.205   7.884  0.1490  0.0332  0.1116
  324loPI   C1B 5181  15.965  15.579   8.963 -0.1867  0.0937  0.1929
  324loPI   C2B 5182  16.123  15.637   8.546 -0.1202  0.1822  0.0757
  324loPI   C3B 5183  16.157  15.688   8.159  0.0660  0.3495 -0.2513
  324loPI   C4B 5184  16.416  15.782   7.849 -0.1499 -0.0523  0.1055
  325loPI    C1 5185  13.171   0.039  10.195 -0.0865 -0.0980  0.1224
  325loPI    C2 5186  13.179  -0.118  10.563 -0.1452  0.0750  0.1987
  325loPI    C3 5187  13.451   0.155  10.457  0.0056 -0.1337  0.0402
  325loPI   PO4 5188  12.967  -0.095  10.109  0.0307  0.1865 -0.0609
  325loPI   GL1 5189  12.884  -0.271   9.789 -0.0717 -0.2325  0.0669
  325loPI   GL2 5190  12.589  -0.297   9.693  0.0900  0.2059  0.4615
  325loPI   C1A 5191  12.811  -0.344   9.226 -0.0469 -0.0046 -0.2153
  325loPI   C2A 5192  12.608  -0.416   8.790  0.1763 -0.3290 -0.2090
  325loPI   C3A 5193  12.199  -0.302   8.491  0.1866 -0.0347  0.1683
  325loPI   C4A 5194  12.031   0.104   8.201  0.1813 -0.1230  0.1581
  325loPI   C5A 5195  11.711   0.371   8.169  0.1326  0.0418 -0.1307
  325loPI   C6A 5196  11.410   0.754   8.171  0.0459 -0.2612 -0.2580
  325loPI   C1B 5197  12.509  -0.026   9.346  0.2221 -0.3147 -0.0150
  325loPI   C2B 5198  12.370  -0.029   8.943 -0.1253  0.1200 -0.0759
  325loPI   C3B 5199  12.241   0.295   8.589 -0.2406 -0.1216 -0.2592
  325loPI   C4B 5200  12.348   0.575   8.301  0.3113 -0.2987 -0.0205
  326loPI    C1 5201   5.995  12.361  10.474  0.0165  0.1436  0.1274
  326loPI    C2 5202   6.379  12.463  10.513  0.0189  0.1498  0.0890
  326loPI    C3 5203   6.093  12.709  10.645  0.0296  0.1186  0.1708
  326loPI   PO4 5204   5.901  12.287  10.262 -0.2849 -0.1526 -0.3975
  326loPI   GL1 5205   5.853  12.310   9.891  0.2144 -0.1745 -0.2957
  326loPI   GL2 5206   6.152  12.464   9.798 -0.0704 -0.0507 -0.3552
  326loPI   C1A 5207   5.789  12.627   9.531 -0.0461  0.1979 -0.0558
  326loPI   C2A 5208   5.568  12.844   9.237 -0.0138 -0.2262  0.2857
  326loPI   C3A 5209   5.551  13.137   9.002 -0.2208  0.1126  0.1729
  326loPI   C4A 5210   5.720  13.386   8.726 -0.1547 -0.4038  0.0196
  326loPI   C5A 5211   5.682  13.589   8.352  0.0780 -0.0548 -0.0678
  326loPI   C6A 5212   5.966  13.776   7.974 -0.0474 -0.0495  0.2095
  326loPI   C1B 5213   6.278  12.646   9.407  0.0918 -0.2244 -0.4268
  326loPI   C2B 5214   6.300  12.642   8.891  0.0780 -0.1754 -0.1750
  326loPI   C3B 5215   6.408  12.745   8.450  0.1308 -0.1296 -0.0414
  326loPI   C4B 5216   6.210  13.005   8.148 -0.0238 -0.0173 -0.0090
  327loPI    C1 5217   0.904   5.781  10.536  0.2280  0.0468  0.2187
  327loPI    C2 5218   1.112   5.447  10.610  0.2947  0.0813  0.1875
  327loPI    C3 5219   0.825   5.564  10.863  0.0969 -0.1373  0.0677
  327loPI   PO4 5220   1.063   5.734  10.183 -0.3222  0.1033 -0.0454
  327loPI   GL1 5221   1.079   5.946   9.782  0.1420  0.0075 -0.0795
  327loPI   GL2 5222   1.045   6.263   9.901 -0.1421  0.1604 -0.0384
  327loPI   C1A 5223   1.244   5.876   9.388 -0.0204 -0.4629 -0.1700
  327loPI   C2A 5224   1.381   5.837   8.857 -0.2641 -0.1882  0.0306
  327loPI   C3A 5225   1.328   5.843   8.414 -0.0895  0.0690  0.1412
  327loPI   C4A 5226   1.455   5.965   8.049  0.1349  0.1289 -0.2499
  327loPI   C5A 5227   1.599   6.076   7.659 -0.0007 -0.1328 -0.0896
  327loPI   C6A 5228   1.741   5.782   7.384  0.3349  0.0939  0.0581
  327loPI   C1B 5229   1.072   6.376   9.433  0.0921  0.2727  0.0439
  327loPI   C2B 5230   1.219   6.395   9.012 -0.0510  0.2747  0.3373
  327loPI   C3B 5231   1.058   6.137   8.638  0.5847  0.0229 -0.0413
  327loPI   C4B 5232   1.031   6.218   8.218  0.3028 -0.1348 -0.1912
  328loPI    C1 5233  13.715   3.557  10.275  0.0977 -0.2817  0.0131
  328loPI    C2 5234  13.823   3.381  10.618  0.4718 -0.1152 -0.0143
  328loPI    C3 5235  13.783   3.778  10.601  0.1021 -0.1512 -0.0757
  328loPI   PO4 5236  13.877   3.487  10.086 -0.2257  0.1657  0.0813
  328loPI   GL1 5237  14.007   3.243   9.769  0.0509 -0.1405  0.2471
  328loPI   GL2 5238  13.783   3.068   9.564  0.1292  0.2731 -0.0265
  328loPI   C1A 5239  14.338   3.389   9.399  0.2990 -0.0091 -0.0309
  328loPI   C2A 5240  14.553   3.627   9.046  0.2442 -0.2535 -0.2972
  328loPI   C3A 5241  14.698   3.736   8.667 -0.0350 -0.0526  0.0263
  328loPI   C4A 5242  14.713   3.769   8.175  0.2155 -0.1180  0.0193
  328loPI   C5A 5243  14.965   3.935   7.850  0.1385 -0.0698 -0.2046
  328loPI   C6A 5244  15.193   4.202   7.613 -0.1919  0.0969 -0.1347
  328loPI   C1B 5245  13.904   3.315   9.138  0.0145  0.1680 -0.2743
  328loPI   C2B 5246  13.654   3.564   8.894 -0.0259 -0.4637 -0.1426
  328loPI   C3B 5247  13.599   3.930   8.702  0.0098 -0.0059  0.0335
  328loPI   C4B 5248  13.496   4.102   8.329 -0.0508 -0.3094 -0.3990
  329loPI    C1 5249  15.723   9.695  10.184  0.0348  0.0886 -0.0620
  329loPI    C2 5250  15.811   9.308  10.229 -0.0721  0.0810  0.0890
  329loPI    C3 5251  15.622   9.505  10.522  0.0592  0.2692  0.0484
  329loPI   PO4 5252  15.646   9.727   9.898 -0.2011  0.0280 -0.2931
  329loPI   GL1 5253  15.578   9.858   9.507 -0.0880  0.1667 -0.1747
  329loPI   GL2 5254  15.336  10.068   9.481  0.0457  0.3266 -0.0691
  329loPI   C1A 5255  15.888  10.110   9.284 -0.0169  0.0072 -0.3371
  329loPI   C2A 5256  16.050  10.059   8.911  0.0121 -0.1755  0.0918
  329loPI   C3A 5257  16.154  10.339   8.513 -0.0660 -0.3603  0.0683
  329loPI   C4A 5258  16.168  10.675   8.169  0.3355  0.1433 -0.0481
  329loPI   C5A 5259  15.865  10.877   7.822  0.4096 -0.0710 -0.0483
  329loPI   C6A 5260  15.854  11.164   7.455  0.1997  0.3482  0.0382
  329loPI   C1B 5261  15.066  10.095   9.131  0.1682 -0.0690 -0.0396
  329loPI   C2B 5262  15.142  10.186   8.708 -0.0973 -0.2060  0.1845
  329loPI   C3B 5263  15.082  10.375   8.271  0.3738 -0.0428  0.2886
  329loPI   C4B 5264  15.114  10.047   7.877  0.0493 -0.0356 -0.0472
  330loPI    C1 5265  16.822   2.373   9.907 -0.0828  0.1064  0.0232
  330loPI    C2 5266  16.533   2.645   9.856  0.0034  0.1495 -0.2516
  330loPI    C3 5267  16.833   2.717  10.111 -0.2055  0.1202  0.0077
  330loPI   PO4 5268  16.589   2.132   9.926  0.1043 -0.0698 -0.0204
  330loPI   GL1 5269  16.526   1.849   9.627  0.3111 -0.3032 -0.0938
  330loPI   GL2 5270  16.818   1.826   9.571 -0.1830  0.4260 -0.2673
  330loPI   C1A 5271  16.556   1.534   9.298  0.0741 -0.0032  0.2949
  330loPI   C2A 5272  16.472   1.353   8.861 -0.3140 -0.1872  0.1656
  330loPI   C3A 5273  16.251   1.204   8.388  0.0940 -0.0387  0.2079
  330loPI   C4A 5274  16.410   1.053   7.981  0.1212  0.4115 -0.1047
  330loPI   C5A 5275  16.420   0.858   7.637 -0.2767  0.1062 -0.0429
  330loPI   C6A 5276  16.682   0.550   7.561 -0.2395 -0.2911 -0.1257
  330loPI   C1B 5277  17.042   1.653   9.271 -0.1719 -0.3606 -0.0098
  330loPI   C2B 5278  16.943   1.613   8.839 -0.1866  0.1298 -0.2188
  330loPI   C3B 5279  16.789   1.631   8.436 -0.2996  0.1540  0.0079
  330loPI   C4B 5280  16.572   1.617   8.076  0.3473 -0.0751  0.2810
  331loPI    C1 5281  17.798   9.043   9.744 -0.1609 -0.1333  0.0805
  331loPI    C2 5282  17.782   9.427   9.632 -0.2747 -0.1670 -0.0209
  331loPI    C3 5283  17.833   9.332  10.017 -0.2267 -0.0504  0.0017
  331loPI   PO4 5284  17.599   8.923   9.715 -0.1279 -0.1686  0.0055
  331loPI   GL1 5285  17.412   8.948   9.397  0.1590 -0.0600 -0.1499
  331loPI   GL2 5286  17.334   9.230   9.378 -0.1106 -0.1070 -0.0754
  331loPI   C1A 5287  17.251   8.995   8.943  0.0478  0.0973  0.2407
  331loPI   C2A 5288  17.082   8.971   8.539 -0.0781  0.1695 -0.0697
  331loPI   C3A 5289  16.876   8.796   8.128  0.1369  0.3967 -0.1948
  331loPI   C4A 5290  16.784   9.117   7.819  0.1072  0.0254  0.1224
  331loPI   C5A 5291  16.704   9.443   7.774  0.0581  0.1271 -0.0016
  331loPI   C6A 5292  16.667   9.673   8.059  0.0086  0.5623  0.4625
  331loPI   C1B 5293  17.415   9.468   9.017 -0.1359 -0.0836 -0.2744
  331loPI   C2B 5294  17.177   9.439   8.671 -0.0915 -0.0142 -0.2868
  331loPI   C3B 5295  16.722   9.318   8.503 -0.0468  0.0115 -0.1868
  331loPI   C4B 5296  16.514   9.101   8.245 -0.2751 -0.0047  0.0133
  332loPI    C1 5297  15.500  12.158  10.030  0.2664 -0.0287 -0.1777
  332loPI    C2 5298  15.821  12.254   9.811  0.3547  0.1294  0.0178
  332loPI    C3 5299  15.800  12.366  10.195  0.1778 -0.0992  0.0769
  332loPI   PO4 5300  15.313  12.312   9.910 -0.0704  0.0887 -0.0308
  332loPI   GL1 5301  15.411  12.432   9.592 -0.1325 -0.5910  0.2265
  332loPI   GL2 5302  15.449  12.707   9.454  0.1008 -0.0377 -0.0349
  332loPI   C1A 5303  15.477  12.326   9.074 -0.0905 -0.0611 -0.1900
  332loPI   C2A 5304  15.496  12.258   8.712 -0.0346  0.1853 -0.1679
  332loPI   C3A 5305  15.313  12.085   8.333 -0.0864 -0.3314 -0.1100
  332loPI   C4A 5306  15.187  12.060   7.904 -0.4561 -0.0892 -0.2639
  332loPI   C5A 5307  14.942  12.143   7.556 -0.0335 -0.0393 -0.1627
  332loPI   C6A 5308  14.867  12.499   7.284 -0.1897 -0.0110  0.0315
  332loPI   C1B 5309  15.453  12.789   9.057 -0.1323  0.1316  0.1881
  332loPI   C2B 5310  15.517  12.754   8.685 -0.0319  0.2814 -0.0254
  332loPI   C3B 5311  15.636  12.600   8.324  0.0541 -0.2173 -0.0236
  332loPI   C4B 5312  15.619  12.480   7.859 -0.0771 -0.2090  0.2626
  333loPI    C1 5313   0.385   8.442   9.967 -0.0477  0.0458  0.1775
  333loPI    C2 5314   0.701   8.202   9.916  0.0400  0.2107 -0.0795
  333loPI    C3 5315   0.703   8.477  10.206  0.0636  0.1039  0.0226
  333loPI   PO4 5316   0.311   8.392   9.713 -0.6675  0.2541  0.2310
  333loPI   GL1 5317   0.176   8.459   9.374 -0.2205  0.0779 -0.4127
  333loPI   GL2 5318   0.097   8.892   9.222  0.2658 -0.2005 -0.3972
  333loPI   C1A 5319   0.225   8.366   9.010 -0.4533  0.3448 -0.1210
  333loPI   C2A 5320  -0.034   8.580   8.789  0.0400 -0.2777  0.1838
  333loPI   C3A 5321  -0.027   8.633   8.346 -0.0760  0.2357 -0.2272
  333loPI   C4A 5322  -0.197   8.693   7.961 -0.2695  0.3081 -0.1723
  333loPI   C5A 5323  -0.358   8.367   7.659  0.0054 -0.2491 -0.2095
  333loPI   C6A 5324  -0.167   8.166   7.309  0.0690 -0.0817  0.1171
  333loPI   C1B 5325   0.112   9.107   8.830 -0.0825 -0.0095 -0.2853
  333loPI   C2B 5326  -0.072   9.131   8.398  0.0600 -0.0925  0.1094
  333loPI   C3B 5327  -0.268   9.210   8.017 -0.0774  0.0493  0.1316
  333loPI   C4B 5328  -0.353   9.087   7.531 -0.2359 -0.1717 -0.1576
  334loPI    C1 5329  14.310   7.428  10.123 -0.0574 -0.0626 -0.1210
  334loPI    C2 5330  14.390   7.137  10.386 -0.0851 -0.1437 -0.2022
  334loPI    C3 5331  14.040   7.330  10.402  0.0218  0.0386 -0.0072
  334loPI   PO4 5332  14.388   7.303   9.878  0.1290 -0.1445  0.0179
  334loPI   GL1 5333  14.495   7.242   9.429 -0.1907  0.1143 -0.0663
  334loPI   GL2 5334  14.483   7.564   9.423 -0.2559  0.0166 -0.1450
  334loPI   C1A 5335  14.790   7.131   9.115  0.1892 -0.2666 -0.0180
  334loPI   C2A 5336  14.613   7.356   8.741  0.1694 -0.0579 -0.1284
  334loPI   C3A 5337  14.399   7.615   8.511  0.1455 -0.0726  0.0326
  334loPI   C4A 5338  14.175   8.026   8.293 -0.1571  0.1866 -0.3686
  334loPI   C5A 5339  14.149   8.454   8.386  0.0691 -0.0711 -0.1291
  334loPI   C6A 5340  14.088   8.751   8.751 -0.2238  0.0913 -0.1279
  334loPI   C1B 5341  14.322   7.707   8.951  0.2457 -0.1985  0.2709
  334loPI   C2B 5342  14.027   8.021   8.802 -0.1575 -0.1936 -0.0787
  334loPI   C3B 5343  13.768   8.387   8.693  0.2603  0.0065  0.0067
  334loPI   C4B 5344  13.605   8.659   8.405  0.1145  0.1206 -0.0559
  335loPI    C1 5345   9.446  14.445  10.538 -0.0971 -0.1110  0.2205
  335loPI    C2 5346   9.232  14.604  10.239  0.1298 -0.2586 -0.0242
  335loPI    C3 5347   9.146  14.699  10.618 -0.0878  0.0196 -0.1394
  335loPI   PO4 5348   9.733  14.435  10.495 -0.0467 -0.0420  0.1611
  335loPI   GL1 5349   9.880  14.569  10.091  0.0279  0.0195  0.0808
  335loPI   GL2 5350   9.678  14.734  10.112 -0.2943  0.1023 -0.1011
  335loPI   C1A 5351  10.059  14.668   9.697  0.0462  0.2507  0.1200
  335loPI   C2A 5352   9.909  14.820   9.235 -0.1183  0.2239  0.1228
  335loPI   C3A 5353   9.740  15.007   8.758  0.1242 -0.1518 -0.1278
  335loPI   C4A 5354   9.507  14.977   8.402 -0.2992 -0.1248 -0.0802
  335loPI   C5A 5355   9.176  15.177   8.264 -0.1249 -0.0391 -0.1141
  335loPI   C6A 5356   8.885  15.503   8.216  0.0237 -0.0657  0.1380
  335loPI   C1B 5357   9.493  14.834   9.707  0.0221 -0.2671  0.1510
  335loPI   C2B 5358   9.425  14.681   9.341  0.1426 -0.0891  0.0770
  335loPI   C3B 5359   9.314  14.678   8.873 -0.3218  0.2478 -0.0754
  335loPI   C4B 5360   9.098  14.619   8.424 -0.2530 -0.2594 -0.3232
  336loPI    C1 5361  11.904   3.191  10.527 -0.1600 -0.0929 -0.0001
  336loPI    C2 5362  11.834   3.504  10.766 -0.2735 -0.2096  0.1207
  336loPI    C3 5363  12.105   3.229  10.871 -0.0416 -0.0583 -0.0722
  336loPI   PO4 5364  11.883   3.301  10.230 -0.2161  0.3254 -0.1224
  336loPI   GL1 5365  12.006   3.141   9.715  0.3525 -0.0295  0.1874
  336loPI   GL2 5366  12.136   3.444   9.673  0.1204  0.0534  0.1470
  336loPI   C1A 5367  12.063   3.114   9.168 -0.1641 -0.1569  0.1143
  336loPI   C2A 5368  12.225   3.072   8.667 -0.1984 -0.1148 -0.1210
  336loPI   C3A 5369  12.360   2.912   8.296 -0.0483 -0.0754  0.0478
  336loPI   C4A 5370  12.211   2.549   8.094 -0.4858 -0.0880 -0.4779
  336loPI   C5A 5371  12.451   2.201   7.991 -0.0531 -0.0792 -0.0383
  336loPI   C6A 5372  12.790   1.955   7.843 -0.3193  0.0971  0.0714
  336loPI   C1B 5373  11.755   3.535   9.307  0.2788  0.0271 -0.3799
  336loPI   C2B 5374  11.570   3.546   8.895 -0.0398  0.0918  0.1528
  336loPI   C3B 5375  11.747   3.330   8.592  0.1435 -0.0669 -0.4817
  336loPI   C4B 5376  12.010   3.279   8.205  0.1435 -0.4186 -0.2259
  337loPI    C1 5377   2.599  11.720  10.425 -0.1411 -0.2674 -0.0169
  337loPI    C2 5378   2.558  11.436  10.705 -0.1526 -0.0337  0.2224
  337loPI    C3 5379   2.905  11.632  10.668 -0.1289 -0.1098  0.0255
  337loPI   PO4 5380   2.563  11.586  10.174 -0.0942  0.1379 -0.4031
  337loPI   GL1 5381   2.546  11.670   9.737  0.0736 -0.2950  0.0194
  337loPI   GL2 5382   2.372  11.365   9.655  0.0944  0.1639 -0.2965
  337loPI   C1A 5383   3.046  11.664   9.465 -0.0751 -0.1291  0.2958
  337loPI   C2A 5384   3.081  11.605   9.078 -0.0625  0.1877 -0.1170
  337loPI   C3A 5385   2.825  11.689   8.743 -0.1089 -0.0747 -0.0105
  337loPI   C4A 5386   2.748  11.834   8.319  0.0449 -0.2092  0.0092
  337loPI   C5A 5387   2.637  12.094   7.991  0.1806  0.1856  0.1581
  337loPI   C6A 5388   2.806  12.121   7.558 -0.3846 -0.0475  0.1129
  337loPI   C1B 5389   2.726  11.330   9.331 -0.1424  0.2509 -0.1680
  337loPI   C2B 5390   2.793  11.174   8.867 -0.2026 -0.0299 -0.2333
  337loPI   C3B 5391   2.866  11.237   8.475 -0.0097  0.0286 -0.3200
  337loPI   C4B 5392   2.698  11.333   8.109  0.2652 -0.0833 -0.1302
  338loPI    C1 5393  16.717   7.293   9.815 -0.2835  0.2132  0.0149
  338loPI    C2 5394  17.115   7.285   9.772 -0.2976 -0.1152 -0.0793
  338loPI    C3 5395  16.925   7.635   9.811 -0.0135  0.0508 -0.1551
  338loPI   PO4 5396  16.644   7.177   9.566  0.1637  0.0887  0.0896
  338loPI   GL1 5397  16.841   7.278   9.248 -0.0915 -0.0087  0.2441
  338loPI   GL2 5398  17.135   7.483   9.318  0.0110 -0.2606  0.0602
  338loPI   C1A 5399  17.081   7.068   8.926  0.1050  0.1122 -0.0202
  338loPI   C2A 5400  17.245   6.970   8.540 -0.2044  0.0111  0.1884
  338loPI   C3A 5401  17.430   6.990   8.069 -0.0180  0.0464 -0.1799
  338loPI   C4A 5402  17.724   7.135   7.893  0.0668  0.2086  0.1786
  338loPI   C5A 5403  18.119   7.044   7.775 -0.2688 -0.1130  0.3166
  338loPI   C6A 5404  18.314   6.931   7.460  0.2535  0.1484 -0.0359
  338loPI   C1B 5405  17.140   7.611   8.873 -0.0893 -0.1703  0.1998
  338loPI   C2B 5406  17.152   7.482   8.608  0.1266 -0.0556 -0.0415
  338loPI   C3B 5407  17.048   7.384   8.181  0.3021  0.0734  0.0006
  338loPI   C4B 5408  17.067   7.503   7.701  0.0138  0.1401  0.0046
  339loPI    C1 5409   8.636  16.071  10.817  0.0463 -0.0005 -0.2336
  339loPI    C2 5410   8.511  16.289  10.506  0.1998  0.2373 -0.1314
  339loPI    C3 5411   8.699  16.466  10.812  0.2472 -0.0270 -0.0049
  339loPI   PO4 5412   8.644  15.845  10.621  0.3032  0.1591  0.1276
  339loPI   GL1 5413   8.739  15.849  10.168  0.2202 -0.1053  0.2861
  339loPI   GL2 5414   8.670  16.192  10.086  0.1104 -0.2720  0.0358
  339loPI   C1A 5415   8.521  15.529   9.955 -0.0251 -0.2027  0.0334
  339loPI   C2A 5416   8.585  15.314   9.651 -0.1753 -0.0258 -0.1138
  339loPI   C3A 5417   8.456  15.302   9.205 -0.1904  0.0419  0.1583
  339loPI   C4A 5418   8.282  15.595   8.917 -0.3299  0.1885 -0.1919
  339loPI   C5A 5419   8.310  15.941   8.649  0.1770 -0.1496 -0.0793
  339loPI   C6A 5420   8.243  16.454   8.449  0.0675 -0.1325  0.2986
  339loPI   C1B 5421   8.709  16.189   9.789  0.0258 -0.2612  0.1206
  339loPI   C2B 5422   8.814  16.295   9.385  0.0206  0.3027 -0.0825
  339loPI   C3B 5423   9.001  16.177   9.010  0.2019 -0.0149 -0.2407
  339loPI   C4B 5424   9.193  16.220   8.647 -0.3974  0.1155  0.0899
  340loPI    C1 5425   9.677   0.908  10.539 -0.2410 -0.0816 -0.1375
  340loPI    C2 5426   9.314   0.875  10.705 -0.0695  0.0068  0.2676
  340loPI    C3 5427   9.505   1.227  10.708  0.0942 -0.0805  0.2164
  340loPI   PO4 5428   9.674   0.811  10.310 -0.0403  0.0698 -0.1312
  340loPI   GL1 5429   9.972   0.507  10.087 -0.2544  0.1852 -0.2278
  340loPI   GL2 5430  10.079   0.188   9.866 -0.0034 -0.0185  0.0296
  340loPI   C1A 5431   9.802   0.614   9.669 -0.0835  0.1426 -0.0841
  340loPI   C2A 5432   9.646   0.459   9.301 -0.0791 -0.0448  0.0230
  340loPI   C3A 5433   9.929   0.363   8.942  0.3062  0.1054 -0.0658
  340loPI   C4A 5434  10.211   0.325   8.600 -0.2516 -0.2301  0.1715
  340loPI   C5A 5435  10.410   0.350   8.415 -0.2042 -0.1471 -0.0314
  340loPI   C6A 5436  10.821   0.193   8.252  0.0555  0.0597 -0.2123
  340loPI   C1B 5437   9.964   0.119   9.417  0.1293  0.1151  0.1599
  340loPI   C2B 5438  10.154  -0.030   9.069  0.0497 -0.0095  0.1868
  340loPI   C3B 5439  10.402  -0.299   8.758  0.2535  0.0783  0.3832
  340loPI   C4B 5440  10.526  -0.188   8.321 -0.1726  0.0461 -0.1520
  341loPI    C1 5441   6.135  10.110  10.391  0.2963  0.0191 -0.0429
  341loPI    C2 5442   5.759  10.211  10.482  0.2343 -0.2214 -0.0231
  341loPI    C3 5443   6.052  10.482  10.511  0.0335  0.0228 -0.2273
  341loPI   PO4 5444   6.237   9.974  10.208  0.1903 -0.1035  0.1896
  341loPI   GL1 5445   6.587  10.087   9.949 -0.2962  0.1755  0.1090
  341loPI   GL2 5446   6.823   9.789   9.812 -0.1374 -0.2352 -0.0546
  341loPI   C1A 5447   6.292  10.316   9.599 -0.0412 -0.0806  0.1159
  341loPI   C2A 5448   6.210  10.432   9.191 -0.1569  0.0787  0.1098
  341loPI   C3A 5449   5.909  10.338   8.850 -0.1289  0.1064 -0.3392
  341loPI   C4A 5450   5.720  10.549   8.574  0.0717 -0.1986  0.2326
  341loPI   C5A 5451   5.670  10.584   8.186 -0.2012 -0.2471 -0.0772
  341loPI   C6A 5452   5.259  10.637   8.013  0.0804  0.0376 -0.0608
  341loPI   C1B 5453   6.798   9.558   9.471  0.2958  0.1099  0.0465
  341loPI   C2B 5454   6.801   9.489   9.048  0.1233 -0.2928 -0.1452
  341loPI   C3B 5455   6.689   9.714   8.631  0.1617  0.3761  0.0591
  341loPI   C4B 5456   6.214   9.639   8.298 -0.1139 -0.0625  0.0155
  342loPI    C1 5457   7.075   3.325  10.437 -0.0145 -0.1122 -0.1001
  342loPI    C2 5458   7.041   3.131  10.785 -0.1559 -0.1421 -0.1299
  342loPI    C3 5459   7.284   3.447  10.755 -0.2535 -0.0502  0.0354
  342loPI   PO4 5460   6.808   3.192  10.293  0.2550  0.0151 -0.3585
  342loPI   GL1 5461   6.413   3.243  10.048  0.0672  0.3012 -0.0162
  342loPI   GL2 5462   6.577   3.329   9.785 -0.2791 -0.1055  0.0072
  342loPI   C1A 5463   6.330   2.874   9.709  0.0242  0.2093  0.2657
  342loPI   C2A 5464   6.217   2.863   9.268 -0.2782 -0.2520 -0.1149
  342loPI   C3A 5465   6.172   2.716   8.838 -0.2258 -0.0300  0.0309
  342loPI   C4A 5466   5.938   2.735   8.458 -0.4409 -0.1578 -0.1830
  342loPI   C5A 5467   5.701   2.481   8.195  0.0997 -0.0173 -0.0778
  342loPI   C6A 5468   5.381   2.210   8.375  0.0628 -0.3151  0.0041
  342loPI   C1B 5469   6.435   3.297   9.304 -0.1402 -0.0900  0.1099
  342loPI   C2B 5470   6.343   3.284   8.941 -0.1399 -0.1531 -0.3318
  342loPI   C3B 5471   6.231   3.218   8.559 -0.2158  0.1299  0.0211
  342loPI   C4B 5472   6.491   3.147   8.203  0.5009 -0.1915  0.0481
  343loPI    C1 5473  11.508   5.978  10.238 -0.0066  0.0555  0.0298
  343loPI    C2 5474  11.434   5.686   9.975 -0.0456 -0.0027  0.1048
  343loPI    C3 5475  11.183   5.749  10.280 -0.0505  0.1257  0.0749
  343loPI   PO4 5476  11.590   6.176  10.023  0.0721  0.2127  0.1925
  343loPI   GL1 5477  11.608   6.151   9.518 -0.1809  0.1945 -0.1886
  343loPI   GL2 5478  11.641   6.022   9.354 -0.0368  0.0267  0.1414
  343loPI   C1A 5479  11.387   6.404   9.285 -0.1759  0.1648  0.1028
  343loPI   C2A 5480  11.384   6.525   8.934  0.1454 -0.2710  0.0207
  343loPI   C3A 5481  11.512   6.562   8.627 -0.0821 -0.0799 -0.0335
  343loPI   C4A 5482  11.359   6.627   8.149 -0.0798  0.4450 -0.1311
  343loPI   C5A 5483  11.132   6.645   7.788 -0.0131 -0.0636  0.1521
  343loPI   C6A 5484  11.094   6.713   7.377 -0.1553  0.3373 -0.0833
  343loPI   C1B 5485  11.595   6.134   8.921 -0.0773  0.0634 -0.5109
  343loPI   C2B 5486  11.464   6.128   8.484 -0.0813  0.0278  0.1022
  343loPI   C3B 5487  11.301   6.088   8.095 -0.1958 -0.0710 -0.4377
  343loPI   C4B 5488  11.403   5.957   7.694  0.2348 -0.1776  0.0316
  344loPI    C1 5489  18.230   9.008  10.103  0.2334  0.0152 -0.0905
  344loPI    C2 5490  18.535   8.751  10.078  0.2899  0.0759 -0.0288
  344loPI    C3 5491  18.385   8.850  10.436  0.2332  0.0873 -0.0558
  344loPI   PO4 5492  18.289   9.126   9.831  0.1985  0.1834 -0.0876
  344loPI   GL1 5493  18.175   9.159   9.424  0.3354  0.1543 -0.0186
  344loPI   GL2 5494  18.278   9.302   9.144  0.0615  0.0103  0.0943
  344loPI   C1A 5495  17.749   9.179   9.128  0.1528  0.0202 -0.4373
  344loPI   C2A 5496  17.607   9.015   8.657 -0.0149  0.0723 -0.2468
  344loPI   C3A 5497  17.449   8.913   8.235  0.0652  0.0210 -0.0962
  344loPI   C4A 5498  17.256   9.042   7.936 -0.2864  0.1231 -0.0103
  344loPI   C5A 5499  17.333   9.357   7.643  0.0792 -0.1222  0.0118
  344loPI   C6A 5500  17.003   9.559   7.349  0.1441  0.5471  0.2405
  344loPI   C1B 5501  18.415   9.616   8.797 -0.1901  0.0109  0.1198
  344loPI   C2B 5502  18.334   9.625   8.367 -0.0879 -0.1616 -0.0565
  344loPI   C3B 5503  18.109   9.663   7.914 -0.0936 -0.0047 -0.1129
  344loPI   C4B 5504  17.657   9.707   7.797  0.1296 -0.0777  0.1362
  345loPI    C1 5505   4.163   7.249  10.458  0.1015 -0.0801  0.1488
  345loPI    C2 5506   4.348   7.603  10.447  0.0855 -0.0765 -0.0407
  345loPI    C3 5507   4.052   7.541  10.708  0.0360  0.0762 -0.0597
  345loPI   PO4 5508   4.073   7.215  10.140 -0.0468 -0.3511  0.1109
  345loPI   GL1 5509   4.021   7.345   9.776 -0.0623 -0.0689 -0.3130
  345loPI   GL2 5510   4.240   7.629   9.839  0.0016  0.0223  0.1478
  345loPI   C1A 5511   3.833   7.779   9.716 -0.1153 -0.2117 -0.1363
  345loPI   C2A 5512   3.536   7.855   9.524 -0.2878 -0.0464  0.2377
  345loPI   C3A 5513   3.406   8.011   9.078 -0.0748  0.2254 -0.2440
  345loPI   C4A 5514   3.418   8.048   8.750  0.0955  0.1328  0.0351
  345loPI   C5A 5515   3.303   7.833   8.513 -0.2238 -0.3152 -0.0145
  345loPI   C6A 5516   3.279   7.763   8.024 -0.0113  0.2983  0.1503
  345loPI   C1B 5517   4.190   7.672   9.389 -0.2773 -0.1851 -0.2157
  345loPI   C2B 5518   4.421   7.642   8.965  0.1770  0.0103 -0.0096
  345loPI   C3B 5519   4.724   7.590   8.630  0.1704  0.2140 -0.0605
  345loPI   C4B 5520   4.759   7.702   8.171  0.1947  0.0588  0.0025
  346loPI    C1 5521   8.210   0.715  10.536 -0.0602 -0.1375  0.0961
  346loPI    C2 5522   7.980   0.682  10.862  0.0666 -0.1078  0.1893
  346loPI    C3 5523   8.372   0.603  10.885  0.0854 -0.0560  0.0556
  346loPI   PO4 5524   8.181   0.888  10.403 -0.2494 -0.0204 -0.1161
  346loPI   GL1 5525   8.169   1.034   9.980 -0.0779 -0.0347  0.0351
  346loPI   GL2 5526   8.186   0.655   9.749  0.0010  0.0763  0.3101
  346loPI   C1A 5527   8.090   1.116   9.579 -0.2466  0.0983  0.2506
  346loPI   C2A 5528   8.025   0.857   9.232 -0.1606 -0.0686  0.3302
  346loPI   C3A 5529   8.084   0.660   8.860  0.2221 -0.2978 -0.2360
  346loPI   C4A 5530   8.201   0.691   8.537 -0.1082 -0.2170 -0.0090
  346loPI   C5A 5531   8.019   0.748   8.085 -0.2707  0.1683  0.1181
  346loPI   C6A 5532   7.823   0.677   7.735  0.1791  0.1858  0.0485
  346loPI   C1B 5533   8.483   0.572   9.510  0.0858 -0.1871  0.0703
  346loPI   C2B 5534   8.508   0.522   9.091  0.2514  0.1008  0.1876
  346loPI   C3B 5535   8.356   0.260   8.715 -0.2854  0.1495 -0.0551
  346loPI   C4B 5536   8.236   0.057   8.375 -0.1037 -0.1183  0.1911
  347loPI    C1 5537   6.685  11.703  10.446  0.1153 -0.1777 -0.4287
  347loPI    C2 5538   6.704  11.372  10.670 -0.2347  0.1219  0.0617
  347loPI    C3 5539   6.882  11.708  10.794 -0.1260  0.1989 -0.2918
  347loPI   PO4 5540   6.833  11.640  10.116  0.0288  0.0303 -0.0879
  347loPI   GL1 5541   6.940  11.408   9.785  0.2082 -0.0732 -0.0608
  347loPI   GL2 5542   7.019  11.149   9.707 -0.0167 -0.1992 -0.1852
  347loPI   C1A 5543   6.608  11.291   9.452  0.1836 -0.1656  0.1015
  347loPI   C2A 5544   6.250  11.380   9.280 -0.2265  0.3766 -0.4386
  347loPI   C3A 5545   6.145  11.422   8.775  0.0709  0.2287 -0.0320
  347loPI   C4A 5546   6.137  11.414   8.319 -0.5701  0.1122  0.0663
  347loPI   C5A 5547   5.841  11.330   7.891 -0.0527  0.4328 -0.3236
  347loPI   C6A 5548   5.601  11.502   7.561  0.1734 -0.0342  0.2874
  347loPI   C1B 5549   7.034  11.040   9.263  0.1501 -0.0687 -0.1456
  347loPI   C2B 5550   7.067  11.034   8.801  0.0607 -0.1658  0.1006
  347loPI   C3B 5551   7.108  11.043   8.399  0.1561  0.1040 -0.1185
  347loPI   C4B 5552   6.995  10.855   7.946  0.0215  0.2898 -0.1136
  348loPI    C1 5553  16.887   5.257  10.237  0.2447  0.2183 -0.0505
  348loPI    C2 5554  17.131   5.134  10.529  0.1175  0.1735  0.0375
  348loPI    C3 5555  16.815   5.362  10.616 -0.1983 -0.2380  0.0019
  348loPI   PO4 5556  17.042   5.414  10.109  0.1462 -0.0633 -0.1364
  348loPI   GL1 5557  17.067   5.519   9.706  0.2849  0.0403  0.4001
  348loPI   GL2 5558  16.967   5.815   9.465 -0.3285 -0.1395 -0.1113
  348loPI   C1A 5559  16.914   5.214   9.409  0.2705  0.0654 -0.0663
  348loPI   C2A 5560  16.572   5.456   9.288  0.0830  0.1309  0.0727
  348loPI   C3A 5561  16.531   5.358   8.871 -0.0267  0.0678 -0.1809
  348loPI   C4A 5562  16.327   5.253   8.458 -0.0591 -0.4208 -0.2363
  348loPI   C5A 5563  16.240   5.070   8.121  0.0500 -0.3707 -0.2146
  348loPI   C6A 5564  15.987   4.980   7.772 -0.0837 -0.2112 -0.1534
  348loPI   C1B 5565  16.974   5.676   8.996  0.2408  0.0937 -0.2800
  348loPI   C2B 5566  16.827   5.611   8.535 -0.0467  0.1577 -0.3233
  348loPI   C3B 5567  16.650   5.707   8.141 -0.1238  0.1709 -0.2360
  348loPI   C4B 5568  16.569   5.995   7.836 -0.3368 -0.0696 -0.1985
  349loPI    C1 5569  13.262  15.696  10.230 -0.2021  0.2521 -0.1863
  349loPI    C2 5570  12.987  15.804  10.500 -0.1761 -0.1283 -0.0014
  349loPI    C3 5571  13.368  15.754  10.612 -0.1097 -0.0087 -0.1699
  349loPI   PO4 5572  13.119  15.825   9.991  0.0368 -0.0069 -0.0229
  349loPI   GL1 5573  13.193  16.154   9.803  0.0445  0.1088 -0.4515
  349loPI   GL2 5574  13.389  16.331   9.926 -0.0959  0.0874  0.3925
  349loPI   C1A 5575  12.994  16.027   9.385 -0.0169  0.1984  0.2010
  349loPI   C2A 5576  13.022  15.981   8.925  0.1085 -0.2293  0.0114
  349loPI   C3A 5577  12.950  16.299   8.553 -0.1997  0.1950  0.0328
  349loPI   C4A 5578  12.806  16.338   8.159 -0.1341  0.0359 -0.2615
  349loPI   C5A 5579  12.710  16.460   7.812  0.1033  0.1010  0.1383
  349loPI   C6A 5580  12.423  16.558   7.422 -0.2553  0.0219 -0.0189
  349loPI   C1B 5581  13.526  16.343   9.488  0.1621  0.0481  0.0494
  349loPI   C2B 5582  13.416  16.295   9.111 -0.2186  0.0932  0.0740
  349loPI   C3B 5583  13.467  16.337   8.688  0.0533 -0.2625 -0.0651
  349loPI   C4B 5584  13.398  16.435   8.277 -0.3331 -0.1543  0.1373
  350loPI    C1 5585   7.413   6.788  10.279 -0.0475 -0.0126 -0.1298
  350loPI    C2 5586   7.188   6.662  10.585 -0.3590  0.1569 -0.2842
  350loPI    C3 5587   7.452   6.958  10.639 -0.2164  0.0018 -0.1176
  350loPI   PO4 5588   7.138   6.811  10.016  0.1671 -0.0935 -0.1718
  350loPI   GL1 5589   7.009   7.092   9.667  0.4037  0.2585 -0.0772
  350loPI   GL2 5590   7.018   7.401   9.839  0.0462  0.0215  0.0736
  350loPI   C1A 5591   6.993   7.293   9.293  0.1199  0.3648  0.1781
  350loPI   C2A 5592   6.882   7.245   8.959 -0.2004 -0.3056  0.2027
  350loPI   C3A 5593   7.057   7.046   8.648 -0.3052  0.2396 -0.0883
  350loPI   C4A 5594   6.885   6.925   8.234  0.1871  0.0097 -0.0182
  350loPI   C5A 5595   7.166   6.965   7.841 -0.2653  0.2999 -0.2099
  350loPI   C6A 5596   7.523   7.181   7.639 -0.0627  0.1010  0.0979
  350loPI   C1B 5597   7.372   7.488   9.536  0.1076 -0.1614  0.3826
  350loPI   C2B 5598   7.410   7.621   9.116 -0.0223  0.2337 -0.1299
  350loPI   C3B 5599   7.493   7.584   8.714  0.1159 -0.4015 -0.0756
  350loPI   C4B 5600   7.403   7.279   8.360 -0.0372 -0.1343  0.1228
  351loPI    C1 5601  11.266  12.054  10.443  0.1183  0.1337  0.1025
  351loPI    C2 5602  11.566  11.828  10.579 -0.0310  0.0115  0.2319
  351loPI    C3 5603  11.530  12.206  10.702  0.2235  0.1117  0.0092
  351loPI   PO4 5604  11.283  12.021  10.164  0.2669 -0.1196 -0.1593
  351loPI   GL1 5605  11.255  12.278   9.806  0.0696 -0.1572 -0.0982
  351loPI   GL2 5606  11.085  12.560   9.704  0.0116 -0.1357 -0.0612
  351loPI   C1A 5607  11.517  12.296   9.393  0.0413 -0.1168  0.0431
  351loPI   C2A 5608  11.545  12.283   9.012 -0.4558 -0.1515 -0.0105
  351loPI   C3A 5609  11.431  12.226   8.567  0.0402  0.2233  0.3675
  351loPI   C4A 5610  11.494  11.892   8.279  0.4171  0.0730 -0.2202
  351loPI   C5A 5611  11.716  11.518   8.118  0.0225  0.0207  0.4057
  351loPI   C6A 5612  11.781  11.227   7.890 -0.0407  0.2244 -0.1970
  351loPI   C1B 5613  10.928  12.782   9.303 -0.2057  0.2781  0.3378
  351loPI   C2B 5614  10.747  12.829   8.903  0.0589  0.1750  0.2302
  351loPI   C3B 5615  10.530  12.860   8.427  0.0229 -0.3508  0.2269
  351loPI   C4B 5616  10.335  13.021   8.079 -0.3013  0.1045 -0.0521
  352loPI    C1 5617  17.951   7.982  10.083  0.1521  0.0032 -0.0650
  352loPI    C2 5618  17.879   8.250  10.371 -0.1169 -0.1426  0.0065
  352loPI    C3 5619  17.874   7.859  10.455  0.3197 -0.1730 -0.0872
  352loPI   PO4 5620  17.765   8.091   9.885  0.0860  0.1975  0.1162
  352loPI   GL1 5621  17.918   8.378   9.457  0.1929 -0.0096 -0.1120
  352loPI   GL2 5622  17.889   8.708   9.384 -0.1033 -0.3625  0.0743
  352loPI   C1A 5623  18.153   8.252   9.071  0.0220 -0.2163  0.0450
  352loPI   C2A 5624  18.372   8.056   8.754  0.1237  0.2087 -0.0552
  352loPI   C3A 5625  18.698   8.181   8.544  0.0882  0.1326  0.0296
  352loPI   C4A 5626  18.945   8.208   8.175 -0.0185  0.0110  0.1277
  352loPI   C5A 5627  19.064   7.928   7.893 -0.4210 -0.0774 -0.2284
  352loPI   C6A 5628  19.117   7.457   7.826  0.1565 -0.1942  0.0958
  352loPI   C1B 5629  18.139   8.779   9.099 -0.2508  0.2007 -0.0337
  352loPI   C2B 5630  18.073   8.960   8.746 -0.0235  0.1689 -0.0419
  352loPI   C3B 5631  17.951   8.876   8.287 -0.1343  0.0319  0.3919
  352loPI   C4B 5632  17.768   8.700   7.885  0.0606 -0.0495  0.1275
  353loPI    C1 5633   2.852  10.627  10.661 -0.0926  0.1659 -0.0276
  353loPI    C2 5634   3.039  10.824  10.954 -0.0439  0.0322  0.0320
  353loPI    C3 5635   3.221  10.520  10.770 -0.2203 -0.1314  0.1244
  353loPI   PO4 5636   2.671  10.900  10.511  0.2284  0.1517 -0.1506
  353loPI   GL1 5637   2.803  10.724  10.110  0.1106 -0.1688  0.1439
  353loPI   GL2 5638   2.929  10.529   9.835  0.1008 -0.0859  0.0465
  353loPI   C1A 5639   2.593  10.871   9.691 -0.1194  0.1159 -0.0391
  353loPI   C2A 5640   2.572  10.685   9.236  0.0481 -0.3170  0.1967
  353loPI   C3A 5641   2.699  10.652   8.848 -0.1417 -0.0041 -0.0562
  353loPI   C4A 5642   2.988  10.713   8.465 -0.0966 -0.2110  0.0521
  353loPI   C5A 5643   3.063  10.980   8.020 -0.2422 -0.1588 -0.4711
  353loPI   C6A 5644   3.273  11.143   7.709 -0.1606  0.1951 -0.0810
  353loPI   C1B 5645   2.770  10.336   9.510  0.0040 -0.0472 -0.0789
  353loPI   C2B 5646   2.775  10.225   9.061  0.1576  0.3147  0.0228
  353loPI   C3B 5647   2.807  10.204   8.596 -0.1499 -0.1387 -0.2435
  353loPI   C4B 5648   3.150  10.176   8.261  0.1244 -0.2668 -0.1771
  354loPI    C1 5649  10.075  18.064  11.006 -0.0148  0.1633 -0.0919
  354loPI    C2 5650  10.396  18.302  11.000  0.2325 -0.1626 -0.0655
  354loPI    C3 5651  10.215  18.220  11.347 -0.0040  0.1781 -0.1032
  354loPI   PO4 5652  10.007  18.093  10.640  0.0761 -0.2335  0.1011
  354loPI   GL1 5653  10.164  18.041  10.269  0.1054  0.0418 -0.2765
  354loPI   GL2 5654   9.796  17.984  10.202 -0.0802 -0.0594  0.1509
  354loPI   C1A 5655  10.274  18.094   9.942  0.0558 -0.0003 -0.1295
  354loPI   C2A 5656  10.344  18.291   9.588  0.2341 -0.0694 -0.0506
  354loPI   C3A 5657  10.617  18.159   9.173  0.0422 -0.3019 -0.2047
  354loPI   C4A 5658  10.913  17.999   8.954  0.2778 -0.0326 -0.2155
  354loPI   C5A 5659  10.935  17.677   8.726 -0.0467  0.0585  0.1171
  354loPI   C6A 5660  11.081  17.551   8.324 -0.2394 -0.3357 -0.3176
  354loPI   C1B 5661   9.863  17.947   9.798  0.0258  0.1353  0.0595
  354loPI   C2B 5662   9.919  18.084   9.462 -0.1090  0.0141  0.2092
  354loPI   C3B 5663   9.914  18.022   9.064 -0.0799 -0.0662  0.0170
  354loPI   C4B 5664   9.990  17.951   8.646 -0.0566 -0.1430 -0.2309
  355loPI    C1 5665  16.963  17.299  10.611  0.3264  0.0598 -0.4210
  355loPI    C2 5666  17.234  17.006  10.649  0.0949 -0.1201 -0.1078
  355loPI    C3 5667  16.845  16.927  10.699  0.0560  0.3097  0.3495
  355loPI   PO4 5668  17.009  17.389  10.360  0.0783 -0.0234  0.0605
  355loPI   GL1 5669  16.991  17.513   9.908  0.0486 -0.2685 -0.1198
  355loPI   GL2 5670  17.085  17.212   9.831  0.0414 -0.2157  0.1072
  355loPI   C1A 5671  16.835  17.418   9.441  0.1901 -0.1138  0.0434
  355loPI   C2A 5672  16.679  17.339   9.048  0.2864 -0.0745 -0.1060
  355loPI   C3A 5673  16.689  17.675   8.815 -0.3394  0.1384 -0.0680
  355loPI   C4A 5674  16.441  17.547   8.407 -0.2332  0.0141 -0.1228
  355loPI   C5A 5675  16.303  17.516   7.979  0.1345  0.0050 -0.5185
  355loPI   C6A 5676  16.271  17.451   7.557 -0.0324  0.0125  0.0268
  355loPI   C1B 5677  17.353  17.122   9.397  0.0155 -0.0630 -0.0620
  355loPI   C2B 5678  17.512  16.991   9.089  0.3955 -0.2964  0.1928
  355loPI   C3B 5679  17.538  17.003   8.675 -0.2809  0.1346 -0.1568
  355loPI   C4B 5680  17.441  17.326   8.371  0.0357 -0.0484  0.1276
  356loPI    C1 5681   9.167  16.306  10.624 -0.2663  0.0113  0.0875
  356loPI    C2 5682   9.163  16.003  10.885  0.2330 -0.0255  0.0620
  356loPI    C3 5683   9.122  16.379  11.014  0.1499 -0.0659  0.1542
  356loPI   PO4 5684   9.055  16.234  10.442  0.0371  0.2497 -0.0274
  356loPI   GL1 5685   9.164  16.053   9.934 -0.0954  0.3259 -0.3730
  356loPI   GL2 5686   9.470  15.913  10.052 -0.0669 -0.1107 -0.2326
  356loPI   C1A 5687   9.225  16.067   9.512  0.3179 -0.0282 -0.0430
  356loPI   C2A 5688   9.295  15.767   9.196 -0.1196  0.0807  0.0348
  356loPI   C3A 5689   9.256  15.608   8.795  0.0200  0.0661 -0.5413
  356loPI   C4A 5690   9.310  15.701   8.334 -0.0358  0.3304  0.1832
  356loPI   C5A 5691   9.344  15.554   7.959  0.1402  0.1768  0.0130
  356loPI   C6A 5692   9.293  15.265   7.735 -0.2076 -0.1883  0.1739
  356loPI   C1B 5693   9.687  15.790   9.671  0.0246 -0.1897  0.0063
  356loPI   C2B 5694   9.786  15.711   9.256  0.0755 -0.0782  0.0442
  356loPI   C3B 5695   9.773  15.460   8.983 -0.1700 -0.0811 -0.1102
  356loPI   C4B 5696   9.805  15.477   8.535  0.1471 -0.0491 -0.1622
  357loPI    C1 5697  10.346   7.428  10.151 -0.2095 -0.0647  0.2830
  357loPI    C2 5698  10.499   7.069  10.239  0.1978  0.0355  0.0153
  357loPI    C3 5699  10.514   7.364  10.509  0.1991 -0.0426  0.1013
  357loPI   PO4 5700  10.461   7.467   9.846  0.0029 -0.0423 -0.1899
  357loPI   GL1 5701  10.556   7.248   9.508  0.1065  0.3543  0.0811
  357loPI   GL2 5702  10.205   7.165   9.391 -0.0472  0.0494 -0.2499
  357loPI   C1A 5703  10.767   7.326   9.119  0.1861  0.2607 -0.0459
  357loPI   C2A 5704  10.765   7.428   8.733 -0.1604  0.0413 -0.1914
  357loPI   C3A 5705  10.796   7.379   8.281  0.0798  0.1040  0.5548
  357loPI   C4A 5706  11.261   7.385   8.061  0.1667 -0.0989  0.4765
  357loPI   C5A 5707  11.487   7.025   7.854  0.3323 -0.4361 -0.1647
  357loPI   C6A 5708  11.882   6.921   7.881  0.3994  0.0030  0.3784
  357loPI   C1B 5709  10.243   7.305   9.000  0.0805 -0.2699  0.4657
  357loPI   C2B 5710  10.321   7.430   8.552  0.0275 -0.1480  0.1569
  357loPI   C3B 5711  10.334   7.585   8.106 -0.1753 -0.1970 -0.2393
  357loPI   C4B 5712  10.537   7.370   7.776  0.1252 -0.0107  0.0032
  358loPI    C1 5713  16.883  15.311  10.477 -0.0379 -0.0819  0.0103
  358loPI    C2 5714  16.522  15.359  10.643 -0.1784 -0.0494 -0.2994
  358loPI    C3 5715  16.645  14.994  10.533 -0.0787 -0.0733 -0.1116
  358loPI   PO4 5716  16.875  15.572  10.305  0.0063 -0.0059 -0.0407
  358loPI   GL1 5717  17.042  15.632   9.909 -0.1596 -0.3535 -0.0728
  358loPI   GL2 5718  16.826  15.530   9.668  0.0012 -0.1304 -0.1622
  358loPI   C1A 5719  17.298  15.734   9.587  0.1332 -0.0742 -0.2607
  358loPI   C2A 5720  17.366  15.846   9.217 -0.1450  0.1165  0.2134
  358loPI   C3A 5721  17.367  16.108   8.813 -0.0769  0.2683  0.0420
  358loPI   C4A 5722  17.505  16.047   8.455 -0.1038  0.0345 -0.2214
  358loPI   C5A 5723  17.339  15.895   8.121  0.0841  0.0544  0.2752
  358loPI   C6A 5724  17.320  15.569   7.791  0.1447 -0.1374 -0.0926
  358loPI   C1B 5725  17.048  15.323   9.352 -0.1181  0.1693 -0.0385
  358loPI   C2B 5726  17.065  15.384   9.055  0.0604 -0.0114 -0.0464
  358loPI   C3B 5727  17.293  15.553   8.741  0.0367 -0.0332 -0.2774
  358loPI   C4B 5728  17.291  15.459   8.303  0.0266 -0.1133  0.0887
  359loPI    C1 5729   4.092  15.364  10.810 -0.0756 -0.0744  0.2788
  359loPI    C2 5730   3.754  15.249  10.991 -0.1055 -0.1634  0.1674
  359loPI    C3 5731   4.052  14.988  10.940 -0.0603 -0.1128  0.1722
  359loPI   PO4 5732   3.986  15.502  10.624  0.3086 -0.1087  0.1022
  359loPI   GL1 5733   3.843  15.764  10.181 -0.2288 -0.2227  0.1034
  359loPI   GL2 5734   4.026  15.590   9.890 -0.0362  0.3264 -0.0668
  359loPI   C1A 5735   3.883  16.080   9.936  0.0943  0.3740  0.1158
  359loPI   C2A 5736   3.723  16.213   9.557  0.2739  0.0228 -0.1968
  359loPI   C3A 5737   3.743  16.264   9.102  0.1773  0.3060  0.0848
  359loPI   C4A 5738   3.654  16.287   8.748  0.0340 -0.1311 -0.2340
  359loPI   C5A 5739   3.727  16.276   8.313 -0.0597 -0.1836  0.1851
  359loPI   C6A 5740   3.907  16.181   7.960  0.0176 -0.0004  0.1927
  359loPI   C1B 5741   4.119  15.750   9.586 -0.0929 -0.0233  0.0806
  359loPI   C2B 5742   4.100  15.875   9.153 -0.0822 -0.1498  0.1922
  359loPI   C3B 5743   3.950  15.897   8.758  0.1322  0.0631 -0.0635
  359loPI   C4B 5744   3.950  15.869   8.377  0.1105  0.0969  0.4848
  360loPI    C1 5745   0.679   6.550  10.312 -0.0789  0.1039 -0.0326
  360loPI    C2 5746   0.662   6.926  10.450  0.1482  0.1345 -0.0832
  360loPI    C3 5747   0.523   6.624  10.673  0.0052  0.2431 -0.0238
  360loPI   PO4 5748   0.622   6.479  10.050  0.2391 -0.0029  0.1447
  360loPI   GL1 5749   0.619   6.374   9.617 -0.1296  0.0280  0.0388
  360loPI   GL2 5750   0.555   6.693   9.537  0.1081  0.0122  0.2906
  360loPI   C1A 5751   0.310   6.204   9.434 -0.2010  0.6137  0.3729
  360loPI   C2A 5752   0.162   5.866   9.195  0.3117  0.1481  0.0157
  360loPI   C3A 5753  -0.279   5.678   9.156  0.0546  0.0151 -0.3746
  360loPI   C4A 5754  -0.651   5.567   8.983  0.0259  0.2722  0.0548
  360loPI   C5A 5755  -0.685   5.654   8.534 -0.1439  0.0799 -0.0845
  360loPI   C6A 5756  -0.946   5.729   8.150 -0.1508  0.0550  0.1294
  360loPI   C1B 5757   0.706   6.441   9.116  0.0525  0.0248 -0.0243
  360loPI   C2B 5758   0.537   6.165   8.796  0.0874  0.0236  0.0371
  360loPI   C3B 5759   0.457   5.939   8.509  0.1849 -0.0760 -0.2751
  360loPI   C4B 5760   0.491   5.873   8.027  0.3829 -0.1019 -0.1096
  361loPI    C1 5761  14.587   2.553   9.845 -0.0317  0.0233 -0.0791
  361loPI    C2 5762  14.374   2.863   9.980 -0.0371 -0.1037  0.2116
  361loPI    C3 5763  14.658   2.701  10.210  0.1777 -0.1196 -0.0605
  361loPI   PO4 5764  14.378   2.463   9.700 -0.1458 -0.0252  0.2482
  361loPI   GL1 5765  14.191   2.468   9.376  0.1033 -0.0047 -0.0682
  361loPI   GL2 5766  13.911   2.586   9.510 -0.0896  0.1941  0.3249
  361loPI   C1A 5767  14.202   2.528   8.957  0.1941  0.0329 -0.0241
  361loPI   C2A 5768  13.920   2.476   8.561  0.2789  0.0800  0.1716
  361loPI   C3A 5769  13.887   2.758   8.228 -0.0868  0.1166  0.0467
  361loPI   C4A 5770  13.844   3.104   8.039  0.1561  0.0826 -0.1712
  361loPI   C5A 5771  13.654   3.238   7.721  0.0513 -0.0044 -0.0452
  361loPI   C6A 5772  13.326   3.512   7.567  0.3259  0.0464  0.1520
  361loPI   C1B 5773  13.577   2.279   9.368 -0.2666 -0.0934  0.0832
  361loPI   C2B 5774  13.544   2.289   8.875  0.4150  0.1332  0.2043
  361loPI   C3B 5775  13.489   2.220   8.445  0.0420 -0.2847  0.3809
  361loPI   C4B 5776  13.781   2.265   8.095  0.3221 -0.2189  0.1081
  362loPI    C1 5777   1.976  14.020  10.284  0.1653 -0.0329 -0.0338
  362loPI    C2 5778   1.596  13.894  10.282  0.1573 -0.0161  0.1973
  362loPI    C3 5779   1.821  13.847  10.609  0.2989  0.1407  0.1243
  362loPI   PO4 5780   2.109  14.318  10.222  0.0137  0.1631  0.1070
  362loPI   GL1 5781   2.340  14.398   9.791 -0.0079  0.2516  0.1726
  362loPI   GL2 5782   2.218  14.044   9.778  0.0578 -0.1895 -0.3637
  362loPI   C1A 5783   2.603  14.389   9.284 -0.0662  0.1997  0.0255
  362loPI   C2A 5784   2.728  14.385   8.888 -0.0740 -0.3183  0.0626
  362loPI   C3A 5785   2.899  14.340   8.592  0.3118  0.1345 -0.4949
  362loPI   C4A 5786   2.942  14.208   8.211 -0.0304 -0.2737 -0.1617
  362loPI   C5A 5787   3.285  14.001   7.910  0.0947 -0.4956  0.2499
  362loPI   C6A 5788   3.522  14.235   7.569 -0.1487 -0.3715  0.1139
  362loPI   C1B 5789   2.263  14.034   9.365 -0.2860 -0.1696  0.1884
  362loPI   C2B 5790   2.177  14.113   8.978 -0.2783  0.0814 -0.6638
  362loPI   C3B 5791   2.380  14.195   8.650 -0.0461 -0.2776  0.0914
  362loPI   C4B 5792   2.464  14.264   8.214 -0.0703 -0.1559 -0.0115
  363loPI    C1 5793   0.214   9.861  10.077 -0.0391  0.0295 -0.0278
  363loPI    C2 5794   0.231  10.099  10.398 -0.0679  0.0711 -0.0570
  363loPI    C3 5795   0.339   9.715  10.427 -0.0573  0.0783 -0.0009
  363loPI   PO4 5796   0.144  10.093   9.892 -0.2663  0.0719  0.0420
  363loPI   GL1 5797  -0.041  10.105   9.455 -0.1050 -0.1538  0.0955
  363loPI   GL2 5798  -0.169   9.891   9.216 -0.1831  0.0163 -0.0312
  363loPI   C1A 5799  -0.167  10.488   9.170 -0.1455 -0.1434 -0.1239
  363loPI   C2A 5800  -0.456  10.604   8.884 -0.0837 -0.1061  0.1821
  363loPI   C3A 5801  -0.690  10.520   8.630  0.1298 -0.0555 -0.0210
  363loPI   C4A 5802  -0.772  10.591   8.158  0.2650  0.0441  0.0392
  363loPI   C5A 5803  -0.760  11.010   7.848  0.0611 -0.2731 -0.1429
  363loPI   C6A 5804  -0.746  11.490   7.737 -0.1171  0.1538  0.1239
  363loPI   C1B 5805  -0.164  10.135   8.786  0.2034  0.1755  0.0434
  363loPI   C2B 5806  -0.226  10.229   8.424  0.2013  0.3597 -0.0202
  363loPI   C3B 5807  -0.044  10.005   8.046 -0.0451 -0.0184  0.2943
  363loPI   C4B 5808   0.269   9.822   7.785  0.0251  0.1323 -0.1506
  364loPI    C1 5809   7.602  15.254  10.264  0.2079 -0.1842  0.0618
  364loPI    C2 5810   7.450  15.197  10.630 -0.0828 -0.1183 -0.0461
  364loPI    C3 5811   7.656  15.531  10.548  0.0199 -0.1528  0.0679
  364loPI   PO4 5812   7.395  15.036  10.162 -0.0167 -0.1480 -0.1611
  364loPI   GL1 5813   7.089  14.956   9.854 -0.2793  0.0143 -0.0967
  364loPI   GL2 5814   6.803  14.815  10.005  0.0447  0.1992 -0.2590
  364loPI   C1A 5815   7.042  14.968   9.492  0.3185 -0.0906  0.0692
  364loPI   C2A 5816   7.126  15.046   9.004 -0.0509  0.1268 -0.0026
  364loPI   C3A 5817   7.227  15.243   8.644 -0.1996 -0.1004 -0.0999
  364loPI   C4A 5818   7.023  15.227   8.347  0.1954  0.1073 -0.1422
  364loPI   C5A 5819   7.010  15.586   8.097  0.1178  0.0829 -0.2359
  364loPI   C6A 5820   7.222  15.786   7.870  0.0826  0.0276  0.0208
  364loPI   C1B 5821   6.687  14.631   9.606  0.2342  0.2065 -0.1406
  364loPI   C2B 5822   6.468  14.673   9.327  0.1012  0.0914 -0.0469
  364loPI   C3B 5823   6.321  14.657   8.905 -0.2253 -0.0793  0.1569
  364loPI   C4B 5824   6.173  14.891   8.633  0.0296 -0.5884  0.1326
  365loPI    C1 5825  10.279  14.581  10.466 -0.2368 -0.0570 -0.0265
  365loPI    C2 5826  10.146  14.331  10.750 -0.0548 -0.0384  0.0764
  365loPI    C3 5827  10.184  14.203  10.373  0.1359 -0.1989  0.1480
  365loPI   PO4 5828  10.088  14.855  10.570 -0.1288 -0.2951  0.0548
  365loPI   GL1 5829   9.994  15.193  10.251 -0.1992 -0.2874  0.0733
  365loPI   GL2 5830  10.190  15.495  10.041  0.1541  0.2115 -0.0912
  365loPI   C1A 5831   9.888  15.100   9.909 -0.0632 -0.1631 -0.1790
  365loPI   C2A 5832   9.780  15.233   9.438 -0.0919 -0.1832 -0.1612
  365loPI   C3A 5833   9.463  15.121   9.172  0.1897  0.2075 -0.0332
  365loPI   C4A 5834   9.184  15.145   8.824  0.1844  0.3140  0.1089
  365loPI   C5A 5835   8.829  15.244   8.608  0.1553 -0.1204  0.2256
  365loPI   C6A 5836   8.474  15.490   8.479 -0.0532 -0.1049  0.2448
  365loPI   C1B 5837  10.137  15.545   9.649  0.0876 -0.0471 -0.0227
  365loPI   C2B 5838  10.280  15.690   9.209  0.2371 -0.0218  0.2106
  365loPI   C3B 5839  10.119  15.898   8.774 -0.1258 -0.0225 -0.1377
  365loPI   C4B 5840  10.128  15.863   8.315  0.2819 -0.0340 -0.1614
  366loPI    C1 5841   7.772   2.536  10.284  0.0770 -0.2294  0.0932
  366loPI    C2 5842   7.495   2.523  10.572  0.1832  0.0085  0.2086
  366loPI    C3 5843   7.389   2.466  10.190  0.0029 -0.0648  0.2685
  366loPI   PO4 5844   7.963   2.393  10.289 -0.1182  0.0140  0.3090
  366loPI   GL1 5845   8.054   2.106   9.921  0.2298  0.1103 -0.2462
  366loPI   GL2 5846   7.815   2.224   9.840  0.1243  0.4278  0.1470
  366loPI   C1A 5847   8.178   1.975   9.632  0.2912 -0.2458  0.2451
  366loPI   C2A 5848   8.148   1.919   9.143 -0.0601  0.0405  0.2502
  366loPI   C3A 5849   8.161   1.896   8.771 -0.0792  0.0049 -0.0928
  366loPI   C4A 5850   8.153   2.056   8.345  0.1203 -0.0242  0.2641
  366loPI   C5A 5851   8.312   2.363   8.063  0.1300 -0.0752  0.1503
  366loPI   C6A 5852   8.358   2.748   7.894  0.0581 -0.0529  0.2132
  366loPI   C1B 5853   7.797   2.176   9.354  0.0234 -0.3836  0.1270
  366loPI   C2B 5854   7.758   2.185   8.831 -0.2559  0.2118 -0.2159
  366loPI   C3B 5855   7.523   2.127   8.492 -0.1004 -0.0806 -0.0528
  366loPI   C4B 5856   7.424   2.283   8.078  0.2771 -0.0981 -0.1664
  367loPI    C1 5857   1.368   4.782  10.248 -0.1971  0.0047 -0.1465
  367loPI    C2 5858   1.190   4.609  10.561 -0.1572 -0.0268 -0.1411
  367loPI    C3 5859   1.366   4.966  10.603 -0.0103 -0.1044 -0.0872
  367loPI   PO4 5860   1.344   4.605  10.057  0.2755 -0.3003  0.0155
  367loPI   GL1 5861   1.472   4.284   9.847  0.0805  0.2251 -0.1390
  367loPI   GL2 5862   1.138   4.545   9.650 -0.1193 -0.2189  0.4028
  367loPI   C1A 5863   1.428   3.979   9.544  0.1781  0.1618 -0.0023
  367loPI   C2A 5864   1.435   3.982   9.065 -0.0200  0.0632  0.1533
  367loPI   C3A 5865   1.452   3.750   8.696  0.0722 -0.0309 -0.0166
  367loPI   C4A 5866   1.442   3.734   8.299 -0.4533  0.1086 -0.0155
  367loPI   C5A 5867   1.606   3.463   7.971 -0.1469 -0.1231  0.1974
  367loPI   C6A 5868   1.455   3.095   7.958  0.1162 -0.2887 -0.0381
  367loPI   C1B 5869   1.389   4.500   9.216 -0.2604  0.0822 -0.4843
  367loPI   C2B 5870   1.638   4.362   8.744  0.3263  0.3522  0.2800
  367loPI   C3B 5871   1.833   4.076   8.462 -0.1619  0.0093 -0.0376
  367loPI   C4B 5872   1.957   4.054   8.072 -0.0191  0.0291 -0.0455
  368loPI    C1 5873  18.338   6.105   9.970  0.0002  0.1352 -0.1474
  368loPI    C2 5874  18.386   5.950   9.605  0.1095  0.1977 -0.1603
  368loPI    C3 5875  18.692   5.954   9.862  0.1029  0.3751 -0.1537
  368loPI   PO4 5876  18.166   6.274   9.919 -0.2429 -0.0232 -0.0373
  368loPI   GL1 5877  18.035   6.429   9.604 -0.0130  0.1099 -0.0429
  368loPI   GL2 5878  17.957   6.745   9.624  0.1172  0.2376  0.0080
  368loPI   C1A 5879  18.222   6.180   9.235  0.3285 -0.1954 -0.1306
  368loPI   C2A 5880  18.179   6.408   8.923 -0.0334 -0.2920 -0.3300
  368loPI   C3A 5881  17.845   6.614   8.730  0.3081 -0.0175  0.0326
  368loPI   C4A 5882  17.762   6.653   8.334  0.0762 -0.2399 -0.0980
  368loPI   C5A 5883  18.006   6.667   8.009  0.2556 -0.2342 -0.0284
  368loPI   C6A 5884  17.761   6.705   7.625  0.3268  0.2942 -0.2766
  368loPI   C1B 5885  17.996   6.798   9.209 -0.2686 -0.0358  0.0129
  368loPI   C2B 5886  18.247   6.909   8.857 -0.0524 -0.1611  0.1419
  368loPI   C3B 5887  18.301   7.006   8.444  0.1225  0.0324  0.1405
  368loPI   C4B 5888  18.461   7.232   8.072 -0.1812 -0.0494 -0.2636
  369loPI    C1 5889   6.076   9.597  10.514 -0.0406 -0.2712 -0.1936
  369loPI    C2 5890   6.471   9.658  10.528 -0.0557 -0.1720 -0.1928
  369loPI    C3 5891   6.242   9.754  10.842 -0.0695 -0.3132 -0.1589
  369loPI   PO4 5892   6.043   9.514  10.229  0.1024  0.0057 -0.1898
  369loPI   GL1 5893   6.180   9.691   9.789 -0.0568  0.2078 -0.1550
  369loPI   GL2 5894   5.801   9.558   9.701  0.0074 -0.1312  0.1018
  369loPI   C1A 5895   6.331   9.841   9.419 -0.0598  0.1147 -0.0550
  369loPI   C2A 5896   6.472   9.943   9.022 -0.1106  0.3010  0.0144
  369loPI   C3A 5897   6.389  10.200   8.668 -0.1498 -0.0388 -0.0198
  369loPI   C4A 5898   6.189  10.341   8.324 -0.0352  0.0283  0.0421
  369loPI   C5A 5899   6.063  10.418   7.817  0.1067  0.1732 -0.0706
  369loPI   C6A 5900   6.038  10.032   7.433 -0.0678 -0.1317 -0.0876
  369loPI   C1B 5901   5.775   9.458   9.274 -0.1227 -0.3187 -0.2656
  369loPI   C2B 5902   5.790   9.347   8.854  0.2549 -0.0421  0.1395
  369loPI   C3B 5903   5.741   9.348   8.421  0.0430 -0.1488  0.3596
  369loPI   C4B 5904   5.794   9.146   8.097  0.0094  0.0298  0.0138
  370loPI    C1 5905   0.535  16.670  10.477 -0.2381 -0.0033 -0.1205
  370loPI    C2 5906   0.414  16.318  10.331 -0.0710 -0.1400  0.0652
  370loPI    C3 5907   0.325  16.420  10.707  0.1542 -0.1240  0.1156
  370loPI   PO4 5908   0.692  16.776  10.219 -0.1974  0.1093  0.1940
  370loPI   GL1 5909   0.707  17.155  10.041 -0.0724 -0.1590 -0.0835
  370loPI   GL2 5910   0.489  17.200   9.828 -0.0895  0.1246 -0.1839
  370loPI   C1A 5911   1.032  17.193   9.831  0.2018  0.1999 -0.0356
  370loPI   C2A 5912   1.028  17.161   9.340 -0.1970 -0.0101  0.0274
  370loPI   C3A 5913   1.042  17.176   8.884 -0.3159  0.1458 -0.2294
  370loPI   C4A 5914   1.485  16.987   8.710  0.1783  0.3172  0.0513
  370loPI   C5A 5915   1.704  16.577   8.677  0.2111 -0.1047 -0.1917
  370loPI   C6A 5916   1.863  16.214   8.802 -0.1408  0.1451  0.0059
  370loPI   C1B 5917   0.533  17.062   9.503 -0.2618 -0.0807  0.0726
  370loPI   C2B 5918   0.605  16.932   9.068 -0.1260  0.0908 -0.2009
  370loPI   C3B 5919   0.628  16.747   8.570  0.0930 -0.1667  0.3785
  370loPI   C4B 5920   0.628  16.679   8.127 -0.3719 -0.0359  0.2344
  371loPI    C1 5921   7.619  11.893  10.104 -0.1641 -0.0598  0.0880
  371loPI    C2 5922   7.956  12.085  10.201 -0.1726  0.1173 -0.2187
  371loPI    C3 5923   7.701  11.973  10.487  0.1340 -0.0004  0.0149
  371loPI   PO4 5924   7.381  12.097  10.029 -0.3101 -0.0788 -0.3339
  371loPI   GL1 5925   6.945  12.190   9.735 -0.1456 -0.2913  0.2534
  371loPI   GL2 5926   7.027  11.941   9.735  0.0589  0.2437  0.2529
  371loPI   C1A 5927   6.578  12.261   9.509 -0.3585  0.0767  0.1810
  371loPI   C2A 5928   6.441  12.232   9.100 -0.2993 -0.1800  0.0327
  371loPI   C3A 5929   6.403  12.189   8.665  0.0973  0.0762  0.3880
  371loPI   C4A 5930   6.412  12.270   8.253  0.2404  0.3447  0.0343
  371loPI   C5A 5931   6.228  12.120   8.055 -0.0428  0.1452  0.4138
  371loPI   C6A 5932   5.789  11.824   7.966 -0.0954  0.1602 -0.0540
  371loPI   C1B 5933   6.651  11.750   9.495  0.1113 -0.0368  0.3276
  371loPI   C2B 5934   6.571  11.719   9.064 -0.0393 -0.1376 -0.2647
  371loPI   C3B 5935   6.551  11.687   8.667  0.1630 -0.2497 -0.0059
  371loPI   C4B 5936   6.501  11.775   8.267  0.0280 -0.0732  0.1086
  372loPI    C1 5937  14.459   2.124  10.055  0.1136  0.0671 -0.1017
  372loPI    C2 5938  14.119   1.933  10.147  0.2212  0.0312  0.2369
  372loPI    C3 5939  14.121   2.332  10.109  0.1161  0.0198  0.1052
  372loPI   PO4 5940  14.595   1.904   9.874 -0.1205  0.1820  0.0031
  372loPI   GL1 5941  14.669   2.034   9.384  0.1627  0.1441 -0.4443
  372loPI   GL2 5942  14.660   2.301   9.355  0.0085 -0.1140  0.1480
  372loPI   C1A 5943  14.531   1.787   9.131 -0.1137 -0.2575 -0.0806
  372loPI   C2A 5944  14.425   1.730   8.647 -0.0153 -0.3749 -0.1052
  372loPI   C3A 5945  14.549   1.772   8.212  0.0573  0.0583  0.0507
  372loPI   C4A 5946  14.902   1.722   7.985 -0.1268  0.0650  0.3916
  372loPI   C5A 5947  15.271   1.686   7.895 -0.2533 -0.1430 -0.2939
  372loPI   C6A 5948  15.526   1.373   7.854 -0.0120  0.1094  0.1330
  372loPI   C1B 5949  14.623   2.274   8.935  0.0234 -0.2685  0.0032
  372loPI   C2B 5950  14.505   2.298   8.595 -0.1541  0.0992 -0.0169
  372loPI   C3B 5951  14.343   2.360   8.168 -0.0574 -0.2341 -0.2548
  372loPI   C4B 5952  14.134   2.490   7.794 -0.0067  0.1491  0.0903
  373loPI    C1 5953   5.876   1.216  10.764  0.3225 -0.2474  0.2236
  373loPI    C2 5954   6.129   1.428  10.990  0.1588  0.0779  0.1082
  373loPI    C3 5955   5.735   1.482  11.027  0.1306  0.1795 -0.2939
  373loPI   PO4 5956   5.973   1.284  10.543  0.1526  0.0323 -0.4282
  373loPI   GL1 5957   5.784   1.350  10.144  0.0967 -0.0006  0.0134
  373loPI   GL2 5958   5.656   1.725  10.048  0.0787 -0.1510  0.1350
  373loPI   C1A 5959   5.658   1.132   9.627 -0.0022 -0.2292  0.0103
  373loPI   C2A 5960   5.417   1.046   9.237 -0.2742  0.0361  0.2695
  373loPI   C3A 5961   5.197   0.918   8.911 -0.0735  0.2787 -0.0029
  373loPI   C4A 5962   5.133   0.967   8.496  0.0361  0.2156  0.0619
  373loPI   C5A 5963   5.363   0.622   8.195  0.1487 -0.3972  0.1306
  373loPI   C6A 5964   5.854   0.485   8.234  0.3796  0.0090 -0.0091
  373loPI   C1B 5965   5.579   1.668   9.628  0.0093  0.1156  0.0778
  373loPI   C2B 5966   5.667   1.568   9.257  0.0623  0.0220 -0.1218
  373loPI   C3B 5967   5.678   1.298   8.871 -0.2846  0.0551 -0.3332
  373loPI   C4B 5968   5.603   0.984   8.596  0.0340  0.2959 -0.0195
  374loPI    C1 5969   6.100  10.490  10.030 -0.0611  0.1961  0.0731
  374loPI    C2 5970   6.206  10.777   9.772  0.2291  0.0279  0.0002
  374loPI    C3 5971   6.179  10.859  10.163  0.0836  0.2092 -0.0465
  374loPI   PO4 5972   5.871  10.398  10.021 -0.0842 -0.1369 -0.0271
  374loPI   GL1 5973   5.661  10.224   9.689  0.1765  0.4280  0.0285
  374loPI   GL2 5974   5.633  10.457   9.548  0.2412 -0.0673 -0.1250
  374loPI   C1A 5975   5.887  10.040   9.430 -0.3562 -0.0532  0.2064
  374loPI   C2A 5976   5.915   9.893   9.071 -0.0687 -0.0822 -0.1810
  374loPI   C3A 5977   6.012   9.885   8.648  0.2329 -0.1973  0.0101
  374loPI   C4A 5978   5.849  10.051   8.228 -0.0171  0.0432  0.0423
  374loPI   C5A 5979   5.883   9.785   7.828 -0.1039 -0.0618 -0.0265
  374loPI   C6A 5980   6.254   9.456   7.868 -0.1179  0.0105 -0.1758
  374loPI   C1B 5981   5.582  10.621   9.139  0.3495  0.3475  0.2380
  374loPI   C2B 5982   5.386  10.806   8.821  0.4134 -0.0048 -0.3708
  374loPI   C3B 5983   5.223  10.726   8.499 -0.1311  0.2961 -0.1850
  374loPI   C4B 5984   4.974  10.386   8.550 -0.2215  0.2716  0.2660
  375loPI    C1 5985   3.519   1.923  10.846 -0.0827  0.1071  0.0851
  375loPI    C2 5986   3.835   2.062  11.049  0.0270  0.0798 -0.0650
  375loPI    C3 5987   3.578   1.813  11.226  0.1129  0.0688  0.0451
  375loPI   PO4 5988   3.667   1.885  10.592  0.0533 -0.0622 -0.2686
  375loPI   GL1 5989   3.647   2.137  10.253 -0.0794  0.0103 -0.2316
  375loPI   GL2 5990   3.965   2.034  10.239 -0.0565  0.1718 -0.1598
  375loPI   C1A 5991   3.462   2.053   9.781 -0.0987 -0.0466 -0.3231
  375loPI   C2A 5992   3.351   2.183   9.321 -0.1297 -0.1618  0.1042
  375loPI   C3A 5993   3.552   2.285   8.958  0.0671  0.0875  0.2051
  375loPI   C4A 5994   3.992   2.284   8.860 -0.4002  0.0236  0.2461
  375loPI   C5A 5995   4.367   2.401   8.847 -0.2947  0.0499 -0.1496
  375loPI   C6A 5996   4.730   2.356   8.918  0.1180 -0.0573  0.3057
  375loPI   C1B 5997   4.006   2.272   9.841  0.3088 -0.0729 -0.0980
  375loPI   C2B 5998   4.213   2.511   9.541 -0.1585 -0.1386 -0.1629
  375loPI   C3B 5999   4.437   2.704   9.263  0.0088  0.1366  0.0959
  375loPI   C4B 6000   4.272   3.103   9.157  0.0461  0.0530  0.1720
  376loPI    C1 6001  18.121  12.228  10.109  0.3404  0.3612  0.2260
  376loPI    C2 6002  18.354  11.950  10.276  0.0621  0.0988  0.1874
  376loPI    C3 6003  18.047  12.103  10.481  0.0753  0.2099  0.1252
  376loPI   PO4 6004  18.210  12.271   9.900  0.0123 -0.0315  0.0864
  376loPI   GL1 6005  18.229  12.434   9.582 -0.1530  0.2559  0.4561
  376loPI   GL2 6006  17.877  12.514   9.455 -0.0173 -0.1559 -0.0743
  376loPI   C1A 6007  18.168  12.497   9.095  0.0590 -0.1033 -0.3730
  376loPI   C2A 6008  18.015  12.343   8.713 -0.1268  0.0686 -0.2027
  376loPI   C3A 6009  17.836  12.197   8.367  0.3166 -0.1784 -0.1634
  376loPI   C4A 6010  17.903  12.071   7.899 -0.2659  0.0362 -0.2215
  376loPI   C5A 6011  17.637  12.049   7.557 -0.2006  0.2152 -0.0042
  376loPI   C6A 6012  17.308  11.815   7.341  0.3161  0.1603  0.1347
  376loPI   C1B 6013  17.678  12.612   9.065  0.0554 -0.0640  0.0843
  376loPI   C2B 6014  17.610  12.678   8.581 -0.2256  0.0568 -0.0154
  376loPI   C3B 6015  17.656  12.602   8.133  0.2421 -0.2915 -0.0076
  376loPI   C4B 6016  17.650  12.565   7.674  0.0296 -0.0716  0.4818
  377loPI    C1 6017  17.337   6.238  10.151 -0.0271  0.0299  0.2512
  377loPI    C2 6018  17.173   6.036   9.847 -0.1452  0.1876  0.2083
  377loPI    C3 6019  17.326   5.838  10.160  0.0718  0.0201  0.0004
  377loPI   PO4 6020  17.253   6.493  10.047  0.1103  0.1898 -0.0300
  377loPI   GL1 6021  17.260   6.427   9.634  0.2028  0.0802  0.2728
  377loPI   GL2 6022  17.565   6.441   9.538  0.1338  0.1091  0.0759
  377loPI   C1A 6023  17.247   6.191   9.272  0.1871 -0.1133  0.0797
  377loPI   C2A 6024  17.401   5.862   8.905 -0.1673  0.0408 -0.0025
  377loPI   C3A 6025  17.357   5.580   8.600 -0.2144 -0.1412 -0.0033
  377loPI   C4A 6026  17.136   5.282   8.474 -0.1633 -0.2159  0.1223
  377loPI   C5A 6027  16.780   5.163   8.039  0.1901 -0.1792 -0.1275
  377loPI   C6A 6028  16.542   4.970   7.746 -0.1394 -0.1227 -0.1958
  377loPI   C1B 6029  17.736   6.343   9.156 -0.1141  0.1970 -0.1542
  377loPI   C2B 6030  17.879   6.037   8.916 -0.0073  0.2103 -0.2075
  377loPI   C3B 6031  18.222   5.923   8.741  0.3689 -0.1100 -0.3862
  377loPI   C4B 6032  18.529   6.060   8.717 -0.0304  0.1515 -0.0226
  378loPI    C1 6033  16.086   7.660   9.852 -0.1733 -0.0514  0.0965
  378loPI    C2 6034  15.764   7.437   9.933 -0.1773 -0.1025 -0.0563
  378loPI    C3 6035  15.955   7.629  10.229 -0.2469 -0.2085  0.0583
  378loPI   PO4 6036  16.214   7.407   9.681 -0.1919 -0.0432 -0.1014
  378loPI   GL1 6037  16.394   7.442   9.252  0.2655  0.0309 -0.0209
  378loPI   GL2 6038  16.589   7.662   9.444  0.3312  0.0336 -0.1118
  378loPI   C1A 6039  16.551   7.455   8.891  0.1146 -0.2378  0.1094
  378loPI   C2A 6040  16.752   7.164   8.540  0.1490 -0.1666 -0.1357
  378loPI   C3A 6041  16.770   7.004   8.130 -0.3191 -0.2898  0.1734
  378loPI   C4A 6042  16.666   6.833   7.709  0.0584 -0.2276 -0.1708
  378loPI   C5A 6043  16.813   6.602   7.406 -0.2843 -0.1015  0.1265
  378loPI   C6A 6044  16.930   6.133   7.532 -0.3276  0.0705 -0.0076
  378loPI   C1B 6045  16.732   7.908   8.997  0.0996  0.1921 -0.0970
  378loPI   C2B 6046  16.773   8.214   8.672  0.0446  0.0083  0.0430
  378loPI   C3B 6047  16.742   8.253   8.298  0.0572  0.2458 -0.1234
  378loPI   C4B 6048  16.526   7.993   8.002  0.2534 -0.0248 -0.1695
  379loPI    C1 6049   0.976   0.283  10.806  0.1646 -0.2237  0.0021
  379loPI    C2 6050   0.649   0.093  10.935 -0.0224  0.0677 -0.0358
  379loPI    C3 6051   0.980   0.097  11.160 -0.2402  0.2922  0.2913
  379loPI   PO4 6052   0.959   0.272  10.568 -0.1566 -0.1465  0.0038
  379loPI   GL1 6053   0.884   0.163  10.162  0.0694  0.1926 -0.1589
  379loPI   GL2 6054   1.151   0.299  10.148  0.0115  0.1114 -0.1745
  379loPI   C1A 6055   0.703   0.346   9.836 -0.2246  0.0417  0.2884
  379loPI   C2A 6056   0.793   0.437   9.479 -0.1305  0.0544 -0.1292
  379loPI   C3A 6057   0.936   0.461   9.049  0.2391 -0.0762  0.0751
  379loPI   C4A 6058   1.047   0.315   8.598  0.6028  0.0833 -0.1923
  379loPI   C5A 6059   1.007   0.114   8.250  0.1752  0.0410 -0.0430
  379loPI   C6A 6060   1.293  -0.219   8.167 -0.3133  0.2095  0.0644
  379loPI   C1B 6061   1.391   0.320   9.818  0.3926  0.0008  0.1520
  379loPI   C2B 6062   1.304   0.279   9.376  0.0625  0.3212 -0.1694
  379loPI   C3B 6063   1.268   0.022   8.990  0.1493  0.0831 -0.1085
  379loPI   C4B 6064   1.410   0.019   8.570 -0.0507  0.0301 -0.2429
  380loPI    C1 6065   1.556  14.330  10.672  0.1330 -0.1389  0.0711
  380loPI    C2 6066   1.274  14.047  10.684  0.0800 -0.0891  0.0029
  380loPI    C3 6067   1.574  14.041  10.949  0.0821 -0.2118 -0.0013
  380loPI   PO4 6068   1.600  14.377  10.407 -0.2193  0.0001 -0.1332
  380loPI   GL1 6069   1.657  14.425   9.897 -0.2805 -0.1148 -0.0963
  380loPI   GL2 6070   1.703  14.109   9.876  0.3516 -0.0989  0.1040
  380loPI   C1A 6071   1.666  14.724   9.610  0.1936  0.0729  0.0434
  380loPI   C2A 6072   1.631  14.910   9.179  0.0038  0.1698  0.1496
  380loPI   C3A 6073   1.815  14.903   8.824 -0.0040  0.2217  0.0375
  380loPI   C4A 6074   2.030  15.036   8.352  0.0577 -0.1886 -0.1044
  380loPI   C5A 6075   2.159  15.398   8.241 -0.2129  0.2853  0.2844
  380loPI   C6A 6076   2.220  15.568   7.890 -0.0007  0.0516 -0.1873
  380loPI   C1B 6077   1.811  14.209   9.488 -0.0841 -0.0238  0.1020
  380loPI   C2B 6078   2.008  14.524   9.314 -0.1477 -0.1222  0.1682
  380loPI   C3B 6079   2.196  14.605   8.933 -0.1489  0.1026 -0.4407
  380loPI   C4B 6080   2.339  14.821   8.673  0.1826  0.0783 -0.0657
  381loPI    C1 6081  10.076   5.097  10.110  0.2346  0.0164 -0.1828
  381loPI    C2 6082  10.329   5.266  10.370  0.1342 -0.0220 -0.0586
  381loPI    C3 6083  10.145   4.925  10.465 -0.0734  0.0799 -0.0899
  381loPI   PO4 6084  10.062   5.336   9.951 -0.0833 -0.2430  0.2240
  381loPI   GL1 6085   9.850   5.277   9.469  0.1611 -0.0381  0.2567
  381loPI   GL2 6086   9.834   5.688   9.677 -0.1455  0.4427  0.1458
  381loPI   C1A 6087   9.720   5.140   9.081 -0.1789 -0.1461  0.3001
  381loPI   C2A 6088   9.881   5.003   8.665  0.3789 -0.0888  0.1622
  381loPI   C3A 6089   9.812   4.786   8.262 -0.0943  0.0644  0.0727
  381loPI   C4A 6090   9.420   4.729   8.008  0.0692 -0.2137  0.1982
  381loPI   C5A 6091   9.105   4.482   7.850 -0.0813  0.0920  0.1270
  381loPI   C6A 6092   8.684   4.261   7.714 -0.0155  0.1934  0.1143
  381loPI   C1B 6093   9.798   5.779   9.303 -0.2282  0.2237  0.2051
  381loPI   C2B 6094   9.719   5.665   8.821 -0.0417  0.3953 -0.3406
  381loPI   C3B 6095   9.523   5.679   8.379  0.1717  0.0381 -0.2313
  381loPI   C4B 6096   9.573   5.632   7.907 -0.0695  0.0055  0.1127
  382loPI    C1 6097  15.244   3.767  10.565  0.1465 -0.0540  0.1086
  382loPI    C2 6098  15.351   4.153  10.563 -0.1896  0.0422  0.0095
  382loPI    C3 6099  15.151   4.002  10.875  0.0034 -0.0717  0.0800
  382loPI   PO4 6100  15.159   3.714  10.304 -0.2312  0.2329 -0.0097
  382loPI   GL1 6101  14.926   3.613   9.952 -0.1433  0.0972 -0.1733
  382loPI   GL2 6102  14.856   3.967   9.934  0.3190  0.3076 -0.1461
  382loPI   C1A 6103  14.804   3.694   9.490  0.3760 -0.1535 -0.2284
  382loPI   C2A 6104  14.987   3.706   9.212  0.1207  0.2286  0.1399
  382loPI   C3A 6105  15.121   3.557   8.808  0.1732 -0.1149 -0.4201
  382loPI   C4A 6106  15.177   3.353   8.411 -0.0535  0.1610 -0.0018
  382loPI   C5A 6107  15.324   3.121   8.154  0.3271  0.1620  0.2146
  382loPI   C6A 6108  15.685   2.920   8.004  0.0916  0.0040  0.1352
  382loPI   C1B 6109  15.130   4.095   9.570  0.0801  0.1901  0.0166
  382loPI   C2B 6110  14.973   4.221   9.127  0.0094 -0.2100  0.1742
  382loPI   C3B 6111  14.927   4.164   8.744 -0.0694  0.2194  0.1820
  382loPI   C4B 6112  15.133   3.849   8.438  0.2379  0.0492 -0.1106
  383loPI    C1 6113   6.442  15.087  10.654 -0.0617 -0.0062 -0.2265
  383loPI    C2 6114   6.324  15.454  10.762 -0.2992 -0.1513  0.0211
  383loPI    C3 6115   6.573  15.246  10.996 -0.1428 -0.1391 -0.1324
  383loPI   PO4 6116   6.494  15.069  10.367  0.2760 -0.2210 -0.0399
  383loPI   GL1 6117   6.367  15.010   9.886 -0.2843  0.1642  0.0566
  383loPI   GL2 6118   6.255  14.724  10.005  0.1100  0.0380 -0.0651
  383loPI   C1A 6119   6.271  15.052   9.565  0.0613  0.0442 -0.1697
  383loPI   C2A 6120   6.166  15.014   9.179 -0.1903 -0.4795  0.0265
  383loPI   C3A 6121   5.926  15.112   8.982  0.4297 -0.3507 -0.0555
  383loPI   C4A 6122   5.636  15.448   8.780  0.0218  0.2558 -0.1179
  383loPI   C5A 6123   5.642  15.763   8.399 -0.2910  0.2512 -0.0944
  383loPI   C6A 6124   5.752  15.860   7.987  0.1491  0.1545 -0.1529
  383loPI   C1B 6125   6.119  14.582   9.675  0.0575 -0.2077 -0.0940
  383loPI   C2B 6126   6.030  14.407   9.305 -0.0757  0.2974  0.1057
  383loPI   C3B 6127   5.969  14.238   8.892  0.3109 -0.0265  0.0634
  383loPI   C4B 6128   6.078  13.939   8.528 -0.2877 -0.1827 -0.3347
  384loPI    C1 6129   7.652  10.737  10.308  0.2056 -0.0213  0.0965
  384loPI    C2 6130   7.794  11.095  10.415  0.0183  0.0616  0.0706
  384loPI    C3 6131   7.478  10.940  10.605  0.2478 -0.2009  0.2457
  384loPI   PO4 6132   7.846  10.688  10.066  0.2147 -0.1708  0.0680
  384loPI   GL1 6133   8.111  10.530   9.839 -0.0730  0.1878  0.0093
  384loPI   GL2 6134   8.323  10.275   9.696  0.0502 -0.2214 -0.2479
  384loPI   C1A 6135   8.007  10.462   9.398  0.4469  0.1752 -0.1490
  384loPI   C2A 6136   7.714  10.597   9.189  0.2878  0.0232  0.1029
  384loPI   C3A 6137   7.742  10.485   8.807  0.0657 -0.0780  0.0847
  384loPI   C4A 6138   7.724  10.406   8.358 -0.0405 -0.2205 -0.1188
  384loPI   C5A 6139   7.483  10.453   8.008  0.1004  0.2022 -0.0112
  384loPI   C6A 6140   7.175  10.424   7.703 -0.2509 -0.0400  0.0083
  384loPI   C1B 6141   8.398  10.264   9.244 -0.2256  0.0947  0.0589
  384loPI   C2B 6142   8.214  10.507   8.934 -0.1051  0.1416 -0.1336
  384loPI   C3B 6143   8.200  10.593   8.489 -0.1737  0.0416  0.2640
  384loPI   C4B 6144   8.006  10.735   8.098  0.2213  0.1671 -0.0514
  385loPI    C1 6145  12.909  13.065  10.386  0.2345  0.0469  0.0288
  385loPI    C2 6146  12.731  12.707  10.367  0.0403  0.1374  0.1061
  385loPI    C3 6147  13.022  12.772  10.634 -0.0734  0.1019  0.2400
  385loPI   PO4 6148  13.015  13.097  10.095 -0.0609 -0.0583 -0.1747
  385loPI   GL1 6149  13.128  13.210   9.633  0.1075 -0.0440 -0.0559
  385loPI   GL2 6150  12.961  13.442   9.728  0.1592  0.1873  0.1229
  385loPI   C1A 6151  13.136  13.319   9.221 -0.1792 -0.0313 -0.1490
  385loPI   C2A 6152  13.092  13.745   9.000  0.2220  0.2882  0.0763
  385loPI   C3A 6153  13.127  13.967   8.656 -0.0807  0.0294 -0.2638
  385loPI   C4A 6154  13.196  14.068   8.196 -0.0755  0.0911 -0.0474
  385loPI   C5A 6155  12.969  14.447   8.015 -0.0901 -0.1558  0.2389
  385loPI   C6A 6156  12.855  14.859   8.051  0.1868  0.2492 -0.0517
  385loPI   C1B 6157  13.001  13.767   9.503  0.1262 -0.1941  0.2056
  385loPI   C2B 6158  13.017  14.144   9.263 -0.2333 -0.0043  0.1748
  385loPI   C3B 6159  13.054  14.433   8.981 -0.1734 -0.0032  0.0300
  385loPI   C4B 6160  13.074  14.519   8.543  0.3587  0.1759  0.3622
  386loPI    C1 6161  16.907   1.086  10.125  0.0613 -0.1887  0.1254
  386loPI    C2 6162  16.727   0.773  10.297 -0.2288 -0.0326  0.1118
  386loPI    C3 6163  16.771   1.115  10.500  0.0311 -0.0600  0.1050
  386loPI   PO4 6164  17.219   0.994  10.068 -0.0553 -0.2140  0.2137
  386loPI   GL1 6165  17.332   0.901   9.712  0.4308 -0.3794  0.1509
  386loPI   GL2 6166  17.596   0.699   9.940 -0.2360  0.3012 -0.0273
  386loPI   C1A 6167  17.356   0.717   9.301  0.2516 -0.3326  0.0149
  386loPI   C2A 6168  17.383   0.630   8.900  0.3218  0.0485 -0.2054
  386loPI   C3A 6169  17.152   0.435   8.639 -0.1082 -0.2675  0.1714
  386loPI   C4A 6170  16.850   0.395   8.362 -0.1895  0.0569  0.0866
  386loPI   C5A 6171  16.658   0.230   7.977 -0.1884 -0.1300  0.0074
  386loPI   C6A 6172  16.488  -0.051   7.670 -0.2429  0.1118  0.1540
  386loPI   C1B 6173  17.741   0.956   9.535 -0.0845 -0.0218  0.2737
  386loPI   C2B 6174  17.772   0.999   9.125  0.0103 -0.2031  0.3235
  386loPI   C3B 6175  17.688   1.162   8.655 -0.0372  0.0302  0.0166
  386loPI   C4B 6176  17.533   1.288   8.295  0.1925  0.1185 -0.1827
  387loPI    C1 6177  13.465  12.264  10.289 -0.2586  0.1243  0.1753
  387loPI    C2 6178  13.720  12.541  10.152  0.1335 -0.2647  0.0957
  387loPI    C3 6179  13.470  12.630  10.451  0.0403  0.2608 -0.1272
  387loPI   PO4 6180  13.366  12.204   9.979  0.1500 -0.3980 -0.1011
  387loPI   GL1 6181  13.382  12.238   9.478  0.3583  0.0178  0.5226
  387loPI   GL2 6182  13.103  12.370   9.569 -0.2371  0.1656  0.0618
  387loPI   C1A 6183  13.226  12.394   9.095 -0.1336 -0.3178  0.0151
  387loPI   C2A 6184  13.387  12.394   8.703  0.0696 -0.1034  0.3564
  387loPI   C3A 6185  13.296  12.707   8.375  0.0328 -0.1375 -0.1059
  387loPI   C4A 6186  13.566  12.879   8.127 -0.0855  0.1387  0.0889
  387loPI   C5A 6187  13.585  13.190   7.804 -0.1082 -0.0584 -0.0031
  387loPI   C6A 6188  13.804  13.497   7.635  0.2308 -0.0974 -0.1503
  387loPI   C1B 6189  13.277  12.805   9.375 -0.4645 -0.1084  0.1302
  387loPI   C2B 6190  13.348  12.863   8.962 -0.3650  0.0316  0.0198
  387loPI   C3B 6191  13.714  12.824   8.643 -0.1535  0.1615  0.4232
  387loPI   C4B 6192  13.882  12.510   8.224 -0.0441  0.0339  0.1549
  388loPI    C1 6193  14.805  13.503   9.987  0.0577 -0.2490  0.0974
  388loPI    C2 6194  14.890  13.561  10.373  0.1785  0.0907  0.0236
  388loPI    C3 6195  14.801  13.195  10.241  0.3993 -0.0759  0.3222
  388loPI   PO4 6196  15.016  13.567   9.839 -0.0031 -0.0929  0.0148
  388loPI   GL1 6197  15.055  13.536   9.491  0.2144 -0.1753  0.0156
  388loPI   GL2 6198  15.075  13.885   9.388  0.2564 -0.0329  0.2389
  388loPI   C1A 6199  14.838  13.367   9.122  0.1659 -0.0211 -0.0058
  388loPI   C2A 6200  14.774  13.273   8.733  0.1664  0.3228 -0.2089
  388loPI   C3A 6201  14.499  13.265   8.427  0.3478 -0.3856  0.0587
  388loPI   C4A 6202  14.547  13.135   8.011 -0.5682  0.0727  0.1033
  388loPI   C5A 6203  14.685  12.706   7.884  0.0561  0.2626 -0.0615
  388loPI   C6A 6204  14.627  12.360   7.842  0.4751  0.0805 -0.2752
  388loPI   C1B 6205  15.064  13.828   8.984 -0.0541  0.0655  0.0663
  388loPI   C2B 6206  15.128  13.636   8.615  0.2016  0.0644 -0.1288
  388loPI   C3B 6207  14.943  13.357   8.265 -0.0226  0.1159 -0.1260
  388loPI   C4B 6208  14.797  12.909   8.349 -0.1627 -0.1142 -0.0465
  389loPI    C1 6209   1.850  18.474  10.473 -0.4550 -0.0619  0.2183
  389loPI    C2 6210   1.664  18.716  10.214 -0.1119  0.0628  0.0827
  389loPI    C3 6211   1.824  18.867  10.548 -0.0438 -0.0043  0.0805
  389loPI   PO4 6212   2.061  18.395  10.280 -0.0444 -0.1415 -0.2304
  389loPI   GL1 6213   2.248  18.546   9.922  0.3665 -0.0572  0.1225
  389loPI   GL2 6214   2.599  18.703   9.785 -0.3462 -0.2327 -0.3499
  389loPI   C1A 6215   1.846  18.617   9.688  0.4458  0.1700 -0.1945
  389loPI   C2A 6216   1.788  18.662   9.193 -0.3510 -0.0683  0.1362
  389loPI   C3A 6217   1.911  18.737   8.779  0.1011  0.1025 -0.2447
  389loPI   C4A 6218   1.813  18.638   8.330 -0.1447  0.0744  0.0236
  389loPI   C5A 6219   1.971  18.841   8.048 -0.3101  0.0170 -0.1218
  389loPI   C6A 6220   2.184  19.231   7.929 -0.1276  0.1035  0.1011
  389loPI   C1B 6221   2.298  18.685   9.420 -0.2539 -0.0725 -0.1225
  389loPI   C2B 6222   2.239  18.924   9.124  0.0144 -0.1736  0.4763
  389loPI   C3B 6223   2.111  19.251   8.912 -0.1116 -0.2240  0.1308
  389loPI   C4B 6224   1.985  19.452   8.642  0.0966  0.2141  0.2333
  390loPI    C1 6225   2.180  16.852  10.501  0.0624  0.0005  0.0267
  390loPI    C2 6226   2.352  16.628  10.218 -0.2155 -0.0231 -0.1267
  390loPI    C3 6227   2.482  16.608  10.595  0.0985 -0.0583 -0.2338
  390loPI   PO4 6228   2.048  17.043  10.369 -0.4704  0.3397  0.0370
  390loPI   GL1 6229   2.248  17.268   9.991 -0.1515 -0.1316  0.0232
  390loPI   GL2 6230   1.949  17.176   9.878  0.0318  0.2617  0.1734
  390loPI   C1A 6231   2.254  17.596   9.701  0.1237 -0.0896  0.2468
  390loPI   C2A 6232   2.413  17.798   9.390  0.2198 -0.2038  0.0259
  390loPI   C3A 6233   2.545  17.968   9.031 -0.0391  0.2078 -0.0249
  390loPI   C4A 6234   2.428  18.075   8.553 -0.0315 -0.1529  0.1669
  390loPI   C5A 6235   2.239  18.350   8.289 -0.0628 -0.0837 -0.1594
  390loPI   C6A 6236   1.865  18.336   7.909  0.0753 -0.0200 -0.1288
  390loPI   C1B 6237   1.958  17.270   9.497 -0.0874 -0.0011 -0.2199
  390loPI   C2B 6238   2.162  17.053   9.190 -0.0703  0.3510  0.0213
  390loPI   C3B 6239   1.996  17.041   8.838 -0.0330 -0.1989 -0.0067
  390loPI   C4B 6240   1.880  17.005   8.401  0.1988  0.1827  0.0577
  391loPI    C1 6241  10.823   9.213  10.532  0.1667 -0.1751  0.1490
  391loPI    C2 6242  10.822   9.613  10.522  0.1468 -0.1726  0.2441
  391loPI    C3 6243  10.476   9.412  10.530  0.1508 -0.2016 -0.1440
  391loPI   PO4 6244  11.060   9.184  10.317 -0.1016 -0.0119 -0.0336
  391loPI   GL1 6245  11.280   8.958   9.972 -0.1396 -0.0273  0.0426
  391loPI   GL2 6246  10.977   9.001   9.887 -0.0710 -0.2491  0.0548
  391loPI   C1A 6247  11.432   8.888   9.627 -0.1654 -0.2240  0.3864
  391loPI   C2A 6248  11.232   8.852   9.263 -0.1234  0.0958 -0.1648
  391loPI   C3A 6249  11.120   8.797   8.844  0.1214 -0.0190  0.2373
  391loPI   C4A 6250  10.982   8.898   8.419 -0.2312 -0.0724 -0.0159
  391loPI   C5A 6251  10.849   8.666   8.029  0.0216  0.0237  0.0658
  391loPI   C6A 6252  10.577   8.441   7.840  0.2970 -0.0121  0.0616
  391loPI   C1B 6253  10.904   9.171   9.501 -0.0660 -0.1303  0.4168
  391loPI   C2B 6254  10.809   9.219   9.169  0.0121 -0.2939 -0.0349
  391loPI   C3B 6255  10.827   9.627   9.058 -0.0628  0.1287  0.3487
  391loPI   C4B 6256  10.594   9.780   8.674  0.0012  0.0541  0.0560
  392loPI    C1 6257   4.181   1.300  10.229  0.0831 -0.0499 -0.0727
  392loPI    C2 6258   4.369   1.653  10.251 -0.0984  0.0494 -0.1020
  392loPI    C3 6259   4.350   1.416  10.573 -0.0794  0.1200 -0.0485
  392loPI   PO4 6260   3.841   1.363   9.988 -0.1061  0.0809 -0.0795
  392loPI   GL1 6261   3.734   1.337   9.579  0.2336  0.2081  0.1643
  392loPI   GL2 6262   3.505   1.602   9.625  0.1362 -0.0218  0.2678
  392loPI   C1A 6263   3.845   1.356   9.204  0.1693  0.1024  0.1752
  392loPI   C2A 6264   3.636   1.404   8.824 -0.0024  0.5109 -0.1429
  392loPI   C3A 6265   3.348   1.466   8.586 -0.2415 -0.0089  0.4440
  392loPI   C4A 6266   3.389   1.227   8.180  0.0638  0.3095  0.2752
  392loPI   C5A 6267   3.552   1.209   7.798  0.4001 -0.0860 -0.0802
  392loPI   C6A 6268   3.528   1.448   7.481 -0.2048 -0.1649  0.0857
  392loPI   C1B 6269   3.273   1.455   9.279  0.0293 -0.2915  0.1373
  392loPI   C2B 6270   3.068   1.405   8.996  0.0088 -0.1346 -0.0233
  392loPI   C3B 6271   2.929   1.236   8.684 -0.0438 -0.2045  0.0881
  392loPI   C4B 6272   2.658   1.325   8.309  0.2107  0.1021  0.0305
  393loPI    C1 6273   6.625   0.258  10.473  0.0300 -0.0873 -0.0483
  393loPI    C2 6274   6.643   0.565  10.729  0.1578 -0.0951 -0.0474
  393loPI    C3 6275   6.675   0.190  10.863 -0.2792 -0.1248 -0.0129
  393loPI   PO4 6276   6.458   0.394  10.287 -0.0039  0.1028 -0.2191
  393loPI   GL1 6277   6.159   0.608   9.991  0.0413  0.1615 -0.2708
  393loPI   GL2 6278   6.070   0.888   9.760  0.2042 -0.2207 -0.1644
  393loPI   C1A 6279   6.103   0.319   9.565  0.0075 -0.1266 -0.4088
  393loPI   C2A 6280   6.400   0.081   9.301  0.0284  0.1564  0.1129
  393loPI   C3A 6281   6.393  -0.063   8.925  0.1261  0.1615 -0.0151
  393loPI   C4A 6282   6.293  -0.330   8.653  0.2369  0.5608  0.0720
  393loPI   C5A 6283   6.268  -0.310   8.232  0.1000 -0.2028 -0.0020
  393loPI   C6A 6284   6.374  -0.074   7.808 -0.3403  0.0366  0.2581
  393loPI   C1B 6285   5.783   0.712   9.434  0.0813  0.2579  0.0671
  393loPI   C2B 6286   5.434   0.545   9.206 -0.1457 -0.0834  0.1043
  393loPI   C3B 6287   4.927   0.506   9.107 -0.0636  0.2211  0.0323
  393loPI   C4B 6288   4.611   0.268   9.249  0.1432 -0.1300 -0.2630
  394loPI    C1 6289   4.674  12.907  10.343  0.1401 -0.2083  0.1140
  394loPI    C2 6290   4.555  12.600  10.116 -0.1392 -0.0575  0.0517
  394loPI    C3 6291   4.472  12.602  10.507  0.0848 -0.1783  0.1019
  394loPI   PO4 6292   4.549  13.119  10.161 -0.0796 -0.0540 -0.0831
  394loPI   GL1 6293   4.722  13.205   9.798  0.1805 -0.0261  0.0655
  394loPI   GL2 6294   4.983  12.969   9.882  0.0198  0.3080 -0.1954
  394loPI   C1A 6295   4.647  13.316   9.385  0.1988  0.0363  0.3300
  394loPI   C2A 6296   4.704  13.530   8.987 -0.0036  0.0429 -0.1074
  394loPI   C3A 6297   4.828  13.494   8.492  0.0997  0.0582  0.0449
  394loPI   C4A 6298   4.995  13.469   8.092  0.1869  0.2431 -0.0770
  394loPI   C5A 6299   4.909  13.659   7.715 -0.2017 -0.1278 -0.0859
  394loPI   C6A 6300   4.637  13.818   7.414  0.0342 -0.0757  0.2349
  394loPI   C1B 6301   5.172  13.002   9.507 -0.0735 -0.1551  0.1449
  394loPI   C2B 6302   5.031  13.056   9.177  0.3108 -0.0066  0.3584
  394loPI   C3B 6303   4.937  13.004   8.772  0.0606 -0.1388  0.1767
  394loPI   C4B 6304   5.293  13.156   8.579  0.1432 -0.1737  0.1714
  395loPI    C1 6305  10.372   4.640  10.150  0.0528 -0.2266 -0.2195
  395loPI    C2 6306  10.382   4.297  10.355  0.0001 -0.1932 -0.1607
  395loPI    C3 6307  10.557   4.624  10.504 -0.3544 -0.0748  0.0071
  395loPI   PO4 6308  10.477   4.600   9.951  0.1911  0.3618 -0.3837
  395loPI   GL1 6309  10.753   4.660   9.685 -0.0146 -0.0698  0.2524
  395loPI   GL2 6310  10.979   4.879   9.701  0.0756  0.0693 -0.1241
  395loPI   C1A 6311  10.730   4.592   9.217  0.1020 -0.1141 -0.2244
  395loPI   C2A 6312  10.563   4.357   8.851  0.2403 -0.4579  0.0838
  395loPI   C3A 6313  10.618   4.507   8.402  0.1400  0.3203 -0.1317
  395loPI   C4A 6314  10.238   4.475   8.195 -0.0844  0.0506 -0.0589
  395loPI   C5A 6315   9.925   4.548   7.840 -0.1304  0.1922  0.0029
  395loPI   C6A 6316   9.733   4.876   7.602  0.0278 -0.1760  0.0600
  395loPI   C1B 6317  11.074   5.173   9.400 -0.0650 -0.0094  0.1071
  395loPI   C2B 6318  11.071   5.423   9.045 -0.0808  0.0844 -0.0993
  395loPI   C3B 6319  11.183   5.257   8.660  0.0863  0.0595  0.1476
  395loPI   C4B 6320  11.389   5.205   8.288  0.4828 -0.0234  0.1111
  396loPI    C1 6321  18.408   7.523  10.313 -0.2043 -0.1282  0.0136
  396loPI    C2 6322  18.283   7.588  10.687 -0.3658 -0.0041 -0.0614
  396loPI    C3 6323  18.673   7.548  10.612 -0.3234  0.0886  0.1033
  396loPI   PO4 6324  18.238   7.293  10.183  0.1697  0.1204 -0.0462
  396loPI   GL1 6325  18.100   7.181   9.737 -0.2875  0.0407  0.1033
  396loPI   GL2 6326  17.859   7.279   9.527  0.1574 -0.1478  0.0768
  396loPI   C1A 6327  18.338   7.436   9.433  0.0676 -0.1901  0.2442
  396loPI   C2A 6328  18.524   7.333   8.998 -0.1231  0.4465 -0.0721
  396loPI   C3A 6329  18.649   7.418   8.558  0.0273 -0.1343 -0.2189
  396loPI   C4A 6330  18.810   7.548   8.195 -0.1578 -0.3451  0.2904
  396loPI   C5A 6331  18.668   7.628   7.815 -0.2183 -0.0449 -0.0141
  396loPI   C6A 6332  18.419   7.630   7.471  0.0306  0.0637 -0.2946
  396loPI   C1B 6333  18.027   7.262   9.114 -0.2604  0.3380 -0.1591
  396loPI   C2B 6334  18.151   7.434   8.675  0.3672  0.1921 -0.1624
  396loPI   C3B 6335  18.377   7.736   8.344 -0.3188  0.0772  0.3027
  396loPI   C4B 6336  18.396   8.147   8.185  0.1610 -0.1014 -0.1754
  397loPI    C1 6337  15.876  11.877  10.385  0.1392  0.0310  0.0168
  397loPI    C2 6338  15.548  11.678  10.500  0.2750 -0.1589  0.0792
  397loPI    C3 6339  15.558  12.077  10.521  0.0315 -0.1494  0.0337
  397loPI   PO4 6340  15.890  11.862  10.126 -0.1518  0.2927  0.0421
  397loPI   GL1 6341  15.840  11.675   9.750  0.0638 -0.1535  0.1050
  397loPI   GL2 6342  16.058  11.559   9.511 -0.3817  0.0146  0.0537
  397loPI   C1A 6343  15.972  12.048   9.401  0.3203 -0.0754 -0.0139
  397loPI   C2A 6344  15.936  12.122   9.031 -0.0973 -0.1967 -0.2129
  397loPI   C3A 6345  15.920  12.114   8.588  0.2593 -0.2385 -0.0316
  397loPI   C4A 6346  16.074  12.263   8.232 -0.1289 -0.0572 -0.1649
  397loPI   C5A 6347  16.105  12.339   7.746  0.3522 -0.1270 -0.2816
  397loPI   C6A 6348  15.897  12.583   7.510 -0.1379 -0.0534  0.1299
  397loPI   C1B 6349  16.055  11.593   9.057  0.1258  0.0166 -0.0231
  397loPI   C2B 6350  16.083  11.538   8.718  0.1933 -0.1039  0.3143
  397loPI   C3B 6351  16.034  11.599   8.255  0.0514  0.1401 -0.1032
  397loPI   C4B 6352  15.803  11.492   7.827 -0.4198  0.1991  0.3536
  398loPI    C1 6353   0.714   7.438   9.874 -0.0624 -0.1514 -0.1216
  398loPI    C2 6354   0.431   7.588  10.115 -0.1087 -0.2488 -0.1147
  398loPI    C3 6355   0.734   7.378  10.269  0.0959  0.0524 -0.0969
  398loPI   PO4 6356   0.800   7.620   9.767  0.1909 -0.2561 -0.0760
  398loPI   GL1 6357   1.073   7.846   9.503  0.0628  0.2744  0.1408
  398loPI   GL2 6358   1.304   7.698   9.578  0.3908  0.0503 -0.1184
  398loPI   C1A 6359   1.053   7.913   9.029 -0.0547 -0.2009  0.2229
  398loPI   C2A 6360   1.207   8.278   8.769  0.3329  0.2000 -0.1538
  398loPI   C3A 6361   1.337   8.481   8.411 -0.3971 -0.0167  0.1833
  398loPI   C4A 6362   1.460   8.773   8.052  0.2285  0.1672  0.1946
  398loPI   C5A 6363   1.199   8.884   7.789  0.3151  0.3741  0.1284
  398loPI   C6A 6364   0.842   9.017   7.865 -0.0417  0.0518 -0.0178
  398loPI   C1B 6365   1.533   7.802   9.257  0.2267 -0.2389  0.0205
  398loPI   C2B 6366   1.683   7.792   8.842  0.1026  0.1673 -0.3058
  398loPI   C3B 6367   1.754   7.581   8.466  0.1026  0.2346 -0.0536
  398loPI   C4B 6368   1.894   7.647   8.045  0.0198  0.1931  0.0852
  399loPI    C1 6369   9.930   7.701  10.294  0.2136  0.1119 -0.1108
  399loPI    C2 6370   9.935   7.315  10.398 -0.0297  0.0739 -0.2325
  399loPI    C3 6371   9.969   7.598  10.678  0.1248 -0.0345 -0.1401
  399loPI   PO4 6372   9.888   7.684  10.113 -0.1545 -0.0868  0.2550
  399loPI   GL1 6373   9.875   7.822   9.740  0.1548  0.1511  0.0395
  399loPI   GL2 6374  10.116   7.709   9.620  0.1322 -0.0846 -0.2223
  399loPI   C1A 6375   9.579   7.865   9.394  0.0909 -0.1848 -0.2825
  399loPI   C2A 6376   9.425   7.709   9.017  0.2001 -0.0671  0.1850
  399loPI   C3A 6377   9.389   7.876   8.598 -0.0695  0.1468 -0.1264
  399loPI   C4A 6378   9.498   8.004   8.164 -0.1535 -0.0922 -0.1891
  399loPI   C5A 6379   9.631   7.934   7.613  0.1666  0.1145  0.0066
  399loPI   C6A 6380   9.825   7.985   7.271  0.1622  0.0835 -0.0781
  399loPI   C1B 6381   9.967   7.707   9.143 -0.0583 -0.0389  0.0697
  399loPI   C2B 6382   9.867   7.772   8.761  0.1220  0.2352 -0.0518
  399loPI   C3B 6383   9.905   7.751   8.355 -0.2132  0.0501  0.1087
  399loPI   C4B 6384  10.014   7.943   7.936 -0.3511 -0.0374  0.0250
  400loPI    C1 6385  15.857   8.083  10.015  0.0040 -0.0662 -0.0375
  400loPI    C2 6386  15.978   8.402  10.222 -0.0260 -0.0637 -0.0236
  400loPI    C3 6387  15.613   8.251  10.283  0.0780 -0.2507  0.1485
  400loPI   PO4 6388  16.061   8.144   9.782  0.0317 -0.1024 -0.1123
  400loPI   GL1 6389  16.322   8.095   9.417  0.3236  0.3035 -0.1510
  400loPI   GL2 6390  16.078   7.850   9.368  0.0172 -0.0708  0.3309
  400loPI   C1A 6391  16.690   8.379   9.294  0.1295  0.1524 -0.1005
  400loPI   C2A 6392  17.069   8.505   8.990  0.2039 -0.1002  0.2864
  400loPI   C3A 6393  17.173   8.497   8.576  0.1662  0.0434  0.2430
  400loPI   C4A 6394  17.567   8.361   8.322 -0.3977  0.2058  0.1554
  400loPI   C5A 6395  17.271   8.485   7.973  0.2357  0.2343 -0.1315
  400loPI   C6A 6396  16.960   8.502   7.681  0.0816  0.0636  0.1056
  400loPI   C1B 6397  16.100   7.759   8.916  0.3162 -0.1789 -0.0674
  400loPI   C2B 6398  16.058   7.768   8.505  0.0456 -0.1317 -0.1383
  400loPI   C3B 6399  16.527   7.647   8.380  0.0015 -0.2541  0.3202
  400loPI   C4B 6400  16.770   7.776   8.400 -0.1084 -0.0317  0.0291
  401loPI    C1 6401   8.073   9.157  10.230 -0.0479  0.0376 -0.2398
  401loPI    C2 6402   7.993   9.530  10.348  0.0009 -0.0031 -0.0754
  401loPI    C3 6403   8.009   9.235  10.617  0.0894 -0.1019 -0.1878
  401loPI   PO4 6404   7.971   9.081  10.060  0.3937  0.0984 -0.3159
  401loPI   GL1 6405   7.859   8.865   9.776  0.2421  0.1785  0.0004
  401loPI   GL2 6406   7.469   8.963   9.868  0.0655 -0.2722  0.3355
  401loPI   C1A 6407   8.002   8.877   9.396 -0.2893  0.0167 -0.2216
  401loPI   C2A 6408   8.232   8.861   8.925 -0.0367  0.0629  0.2676
  401loPI   C3A 6409   8.399   8.994   8.559  0.2098 -0.0186 -0.0422
  401loPI   C4A 6410   8.478   9.195   8.188 -0.0261  0.0913 -0.1296
  401loPI   C5A 6411   8.246   9.388   7.992 -0.0317  0.1568  0.1754
  401loPI   C6A 6412   7.969   9.573   7.943  0.1475 -0.2575 -0.3656
  401loPI   C1B 6413   7.514   9.038   9.418  0.1430  0.0211  0.0773
  401loPI   C2B 6414   7.567   8.985   8.996  0.1403 -0.4435 -0.0894
  401loPI   C3B 6415   7.764   8.957   8.573 -0.2617 -0.2411  0.2255
  401loPI   C4B 6416   7.945   9.038   8.096  0.0007  0.3740 -0.0365
  402loPI    C1 6417   1.759  12.754  10.362  0.3238  0.0954  0.3846
  402loPI    C2 6418   1.577  12.403  10.304  0.1447  0.2125  0.2252
  402loPI    C3 6419   1.963  12.413  10.407  0.2676 -0.0234 -0.1885
  402loPI   PO4 6420   1.600  12.927  10.155 -0.0837  0.0281  0.3164
  402loPI   GL1 6421   1.475  13.115   9.805  0.2011  0.0263 -0.1600
  402loPI   GL2 6422   1.708  13.174   9.668 -0.1594  0.2334 -0.0962
  402loPI   C1A 6423   1.557  12.714   9.497 -0.1093  0.1673  0.1683
  402loPI   C2A 6424   1.534  12.488   9.200 -0.1464  0.1545  0.1687
  402loPI   C3A 6425   1.340  12.431   8.799  0.2242  0.0545  0.1840
  402loPI   C4A 6426   1.407  12.312   8.290 -0.2030 -0.2803  0.0094
  402loPI   C5A 6427   1.731  12.139   8.125 -0.2220 -0.0273 -0.0240
  402loPI   C6A 6428   2.016  12.024   7.915  0.4367 -0.0006 -0.0584
  402loPI   C1B 6429   1.551  13.365   9.347  0.0247  0.0150  0.0998
  402loPI   C2B 6430   1.349  13.423   8.859  0.3012  0.0314  0.1903
  402loPI   C3B 6431   1.320  13.327   8.411  0.0005  0.4088 -0.0528
  402loPI   C4B 6432   1.171  13.436   8.097  0.0384  0.1047  0.1081
  403loPI    C1 6433   5.343   3.609  10.495  0.2027  0.0472 -0.0741
  403loPI    C2 6434   5.609   3.477  10.764  0.2700  0.0905 -0.1190
  403loPI    C3 6435   5.256   3.622  10.885  0.2015 -0.1146 -0.0681
  403loPI   PO4 6436   5.476   3.724  10.223  0.0955 -0.3083 -0.2390
  403loPI   GL1 6437   5.117   3.928  10.016 -0.3226 -0.0561 -0.1703
  403loPI   GL2 6438   4.875   3.910  10.184  0.1132  0.0321  0.2038
  403loPI   C1A 6439   5.125   4.030   9.570  0.0660  0.1355  0.2102
  403loPI   C2A 6440   5.071   4.374   9.186  0.1575  0.1431  0.0954
  403loPI   C3A 6441   4.662   4.529   8.973  0.1920 -0.1294  0.0143
  403loPI   C4A 6442   4.587   4.752   8.589  0.0763  0.0196 -0.1739
  403loPI   C5A 6443   4.440   4.747   8.127 -0.0624 -0.1506  0.0582
  403loPI   C6A 6444   4.018   4.760   7.903 -0.1438 -0.0668  0.0217
  403loPI   C1B 6445   4.694   3.978   9.769  0.3822  0.0983  0.0049
  403loPI   C2B 6446   4.658   3.832   9.347  0.0094  0.3245 -0.2930
  403loPI   C3B 6447   4.679   4.020   8.926  0.1251 -0.0382  0.0039
  403loPI   C4B 6448   4.890   4.288   8.587 -0.2994 -0.2612  0.0096
  404loPI    C1 6449   8.506   2.254  10.130  0.4259 -0.2532  0.0228
  404loPI    C2 6450   8.790   2.330  10.401  0.2390 -0.1027  0.1802
  404loPI    C3 6451   8.453   2.545  10.399  0.0462 -0.3985  0.1131
  404loPI   PO4 6452   8.543   1.884  10.116  0.0477  0.0002 -0.2947
  404loPI   GL1 6453   8.493   1.578   9.857  0.1746 -0.0708 -0.0380
  404loPI   GL2 6454   8.668   1.263  10.000 -0.1034  0.1523 -0.0768
  404loPI   C1A 6455   8.469   1.581   9.371 -0.1769  0.1646 -0.1223
  404loPI   C2A 6456   8.532   1.538   8.925  0.1306 -0.0842 -0.3140
  404loPI   C3A 6457   8.497   1.635   8.401 -0.1444  0.2202  0.1836
  404loPI   C4A 6458   8.583   1.888   8.006 -0.1582 -0.2190  0.2564
  404loPI   C5A 6459   8.349   1.943   7.568 -0.0405  0.2603  0.0562
  404loPI   C6A 6460   8.097   1.949   7.252 -0.1770 -0.0429 -0.0874
  404loPI   C1B 6461   8.630   1.051   9.652 -0.0993  0.0459  0.1748
  404loPI   C2B 6462   8.462   1.037   9.212 -0.0416  0.0004 -0.2459
  404loPI   C3B 6463   8.618   0.953   8.898 -0.0967  0.0248  0.1650
  404loPI   C4B 6464   8.707   0.762   8.597  0.2592  0.2036 -0.0687
  405loPI    C1 6465  10.658   3.799  10.316 -0.0249 -0.2107  0.1135
  405loPI    C2 6466  10.757   3.412  10.337 -0.0710 -0.2207  0.1477
  405loPI    C3 6467  10.888   3.668  10.616  0.0970 -0.1809  0.0334
  405loPI   PO4 6468  10.386   3.817  10.153 -0.0208  0.1974  0.0775
  405loPI   GL1 6469  10.406   3.633   9.779 -0.1494 -0.1926 -0.1537
  405loPI   GL2 6470  10.146   3.791   9.745  0.2247 -0.2974  0.3184
  405loPI   C1A 6471  10.560   3.406   9.420  0.2289 -0.1732  0.1899
  405loPI   C2A 6472  10.626   3.272   8.972 -0.0125 -0.0620 -0.2120
  405loPI   C3A 6473  10.325   3.290   8.650  0.1301  0.0803 -0.0888
  405loPI   C4A 6474  10.290   3.537   8.342 -0.1112 -0.0959  0.1478
  405loPI   C5A 6475  10.087   3.604   7.984  0.3808 -0.2055  0.0808
  405loPI   C6A 6476  10.021   4.057   8.005  0.1751 -0.4352  0.1212
  405loPI   C1B 6477  10.173   3.660   9.270 -0.1222 -0.1265  0.0089
  405loPI   C2B 6478  10.446   3.823   8.916 -0.3378  0.1544  0.0559
  405loPI   C3B 6479  10.696   3.656   8.668  0.2227  0.0758  0.2870
  405loPI   C4B 6480  10.911   3.517   8.282  0.0814 -0.3196  0.2264
  406POPI    C1 6481  12.671   0.970  10.440 -0.3387 -0.2074 -0.1747
  406POPI    C2 6482  12.388   0.823  10.682 -0.3375  0.0446 -0.0168
  406POPI    C3 6483  12.558   1.176  10.764 -0.3702  0.1575 -0.4121
  406POPI   PO4 6484  12.680   0.855  10.219  0.0992 -0.0858 -0.2394
  406POPI   GL1 6485  12.521   1.039   9.837 -0.1893 -0.2723  0.0687
  406POPI   GL2 6486  12.690   0.983   9.569 -0.0237 -0.1807  0.2068
  406POPI   C1A 6487  12.365   1.360   9.616 -0.3959 -0.0007  0.2543
  406POPI   D2A 6488  11.850   1.370   9.358  0.1938 -0.2334  0.0546
  406POPI   C3A 6489  11.511   1.133   9.596 -0.1903 -0.1055 -0.1146
  406POPI   C4A 6490  11.221   1.011   9.801  0.0159  0.3248 -0.1317
  406POPI   C1B 6491  12.712   1.181   9.207 -0.2077  0.0517 -0.0881
  406POPI   C2B 6492  12.663   1.198   8.808 -0.2238 -0.0587  0.1835
  406POPI   C3B 6493  12.602   1.125   8.378 -0.3410 -0.1959 -0.2922
  406POPI   C4B 6494  12.688   0.804   8.027  0.1292  0.2887  0.0483
  407POPI    C1 6495   7.669   6.108  10.231  0.0026  0.1542  0.0895
  407POPI    C2 6496   7.683   6.374  10.530  0.0013  0.0119  0.2175
  407POPI    C3 6497   7.996   6.135  10.461  0.1479  0.2945 -0.1295
  407POPI   PO4 6498   7.460   6.280   9.997  0.2403  0.0567  0.2003
  407POPI   GL1 6499   7.505   6.135   9.562  0.1705  0.0279 -0.3951
  407POPI   GL2 6500   7.672   6.000   9.549  0.1817 -0.1557 -0.3603
  407POPI   C1A 6501   7.501   6.384   9.251 -0.0484 -0.0156 -0.1343
  407POPI   D2A 6502   7.302   6.670   8.865  0.0024  0.0712  0.0689
  407POPI   C3A 6503   7.331   6.741   8.344 -0.4153  0.4197 -0.0595
  407POPI   C4A 6504   7.618   6.913   8.051  0.1772  0.1956  0.0969
  407POPI   C1B 6505   7.791   6.061   9.024 -0.0808  0.0794  0.0951
  407POPI   C2B 6506   7.707   6.014   8.704 -0.0232 -0.0509 -0.0117
  407POPI   C3B 6507   7.430   6.293   8.515  0.0306 -0.2248 -0.3734
  407POPI   C4B 6508   7.473   6.219   8.072 -0.0597  0.0887 -0.0517
  408POPI    C1 6509  10.893  17.477  10.877 -0.1031 -0.0017  0.1717
  408POPI    C2 6510  11.071  17.169  11.060 -0.1155  0.0413  0.2562
  408POPI    C3 6511  10.768  17.360  11.238 -0.0719  0.1375  0.2283
  408POPI   PO4 6512  10.784  17.389  10.665 -0.4469 -0.0910  0.0220
  408POPI   GL1 6513  10.778  17.434  10.310  0.0065  0.0975 -0.1480
  408POPI   GL2 6514  11.151  17.537  10.297  0.0584 -0.0102  0.1498
  408POPI   C1A 6515  11.033  17.138  10.043  0.1843  0.1090 -0.0354
  408POPI   D2A 6516  10.936  16.775   9.714 -0.1373 -0.4224 -0.3260
  408POPI   C3A 6517  11.021  16.806   9.275 -0.0913 -0.0325 -0.1284
  408POPI   C4A 6518  11.141  16.690   8.902 -0.3287  0.1401 -0.1817
  408POPI   C1B 6519  11.159  17.686   9.893 -0.0412 -0.1285 -0.2349
  408POPI   C2B 6520  11.302  17.715   9.522 -0.0653 -0.0112 -0.1275
  408POPI   C3B 6521  11.270  17.546   9.078  0.0390  0.1621 -0.2429
  408POPI   C4B 6522  11.447  17.567   8.634 -0.1906 -0.2407  0.1152
  409POPI    C1 6523   5.471  17.576  10.533  0.1273 -0.0338 -0.1097
  409POPI    C2 6524   5.474  17.976  10.549  0.2056 -0.0354 -0.0811
  409POPI    C3 6525   5.402  17.763  10.880 -0.0955 -0.0420 -0.1478
  409POPI   PO4 6526   5.735  17.502  10.492  0.0694 -0.1789  0.1868
  409POPI   GL1 6527   5.964  17.381  10.243 -0.1498  0.0314  0.1334
  409POPI   GL2 6528   6.195  17.117  10.156 -0.0513 -0.0528 -0.1396
  409POPI   C1A 6529   5.877  17.342   9.785 -0.0321 -0.0214  0.1807
  409POPI   D2A 6530   5.623  17.190   9.471 -0.1394 -0.0537 -0.0331
  409POPI   C3A 6531   5.606  17.257   9.044  0.2473 -0.0421  0.0334
  409POPI   C4A 6532   5.488  17.573   8.785 -0.0228  0.0907 -0.1413
  409POPI   C1B 6533   6.081  16.915   9.738  0.0934  0.1189 -0.0608
  409POPI   C2B 6534   6.107  16.998   9.350 -0.1913  0.2951  0.0990
  409POPI   C3B 6535   6.109  16.996   8.915 -0.1101  0.0636 -0.2224
  409POPI   C4B 6536   6.314  17.055   8.461 -0.2273 -0.3072  0.1675
  410POPI    C1 6537   5.597  11.744  10.001  0.1255  0.1360 -0.1592
  410POPI    C2 6538   5.979  11.856   9.971  0.0934  0.2781 -0.0503
  410POPI    C3 6539   5.824  11.769  10.329  0.0751  0.0335 -0.1159
  410POPI   PO4 6540   5.484  11.944   9.918  0.2930  0.0875  0.0919
  410POPI   GL1 6541   5.448  11.897   9.519  0.2023 -0.1526  0.0786
  410POPI   GL2 6542   5.365  11.758   9.224 -0.0829 -0.1753  0.2102
  410POPI   C1A 6543   4.975  11.996   9.264  0.2422 -0.1581  0.0016
  410POPI   D2A 6544   4.943  11.707   8.860  0.1052 -0.0004 -0.2464
  410POPI   C3A 6545   4.995  11.768   8.337  0.0814 -0.2961 -0.1502
  410POPI   C4A 6546   5.219  11.697   7.912  0.0850  0.1091 -0.0223
  410POPI   C1B 6547   5.517  11.705   8.772  0.1734 -0.0683 -0.1447
  410POPI   C2B 6548   5.575  11.527   8.344 -0.0186 -0.2490 -0.1155
  410POPI   C3B 6549   5.276  11.235   8.042  0.1698  0.1018  0.0696
  410POPI   C4B 6550   5.388  11.002   7.663 -0.0415  0.3220  0.1448
  411POPI    C1 6551  18.395   8.281  10.114  0.2538  0.1478  0.1664
  411POPI    C2 6552  18.666   8.000  10.205 -0.0213 -0.1592  0.0592
  411POPI    C3 6553  18.346   8.052  10.439 -0.0458 -0.0330 -0.0012
  411POPI   PO4 6554  18.359   8.249   9.859 -0.0638  0.3679 -0.3506
  411POPI   GL1 6555  18.369   8.048   9.508  0.1716 -0.1395  0.2175
  411POPI   GL2 6556  18.042   7.891   9.564 -0.1284 -0.3307  0.1146
  411POPI   C1A 6557  18.695   7.835   9.188  0.1649 -0.2488 -0.0052
  411POPI   D2A 6558  19.000   7.970   8.963 -0.3428  0.0897 -0.2210
  411POPI   C3A 6559  19.054   7.851   8.533  0.3840  0.3374 -0.1310
  411POPI   C4A 6560  19.359   7.659   8.267  0.3421  0.0962 -0.0163
  411POPI   C1B 6561  18.185   7.730   9.138  0.0957  0.1650  0.0299
  411POPI   C2B 6562  17.920   7.928   8.730  0.0413 -0.1894  0.2960
  411POPI   C3B 6563  17.871   7.954   8.250  0.0329 -0.0377  0.0459
  411POPI   C4B 6564  17.760   8.195   7.902  0.2217 -0.0488  0.0979
  412POPI    C1 6565   1.874   1.468  10.790 -0.0939  0.1913  0.0081
  412POPI    C2 6566   1.727   1.143  10.970  0.1213  0.1147  0.0481
  412POPI    C3 6567   1.839   1.458  11.189  0.0614  0.1544  0.0215
  412POPI   PO4 6568   1.900   1.324  10.470  0.0313  0.0590 -0.0469
  412POPI   GL1 6569   2.029   0.993  10.137 -0.1020 -0.3088 -0.1080
  412POPI   GL2 6570   1.785   1.117  10.012  0.1063 -0.0478  0.2356
  412POPI   C1A 6571   2.250   1.124   9.909  0.0703 -0.2879 -0.0226
  412POPI   D2A 6572   2.238   1.452   9.640  0.1651 -0.0172  0.1443
  412POPI   C3A 6573   1.888   1.637   9.498 -0.1428  0.2871  0.0836
  412POPI   C4A 6574   1.644   1.759   9.147  0.5345 -0.0348  0.0659
  412POPI   C1B 6575   1.658   1.111   9.579  0.2217  0.2424 -0.3041
  412POPI   C2B 6576   1.438   1.310   9.230 -0.1257  0.1433  0.2007
  412POPI   C3B 6577   1.332   1.420   8.800  0.1516  0.2062 -0.2494
  412POPI   C4B 6578   1.125   1.427   8.489  0.0665 -0.1756  0.1776
  413POPI    C1 6579   1.664   6.851  10.415 -0.2165  0.0078  0.2011
  413POPI    C2 6580   1.776   7.136  10.671  0.1611 -0.0721  0.1305
  413POPI    C3 6581   1.532   6.843  10.792 -0.1625  0.2297  0.2258
  413POPI   PO4 6582   1.563   7.069  10.187  0.0285 -0.0066 -0.2435
  413POPI   GL1 6583   1.475   6.990   9.831  0.0849 -0.1425 -0.1024
  413POPI   GL2 6584   1.467   7.221   9.590 -0.4208 -0.1857  0.0026
  413POPI   C1A 6585   1.599   6.563   9.532 -0.1428  0.0297 -0.0482
  413POPI   D2A 6586   1.748   6.442   9.208  0.2937 -0.0941  0.0125
  413POPI   C3A 6587   1.648   6.299   8.793  0.1251 -0.1203  0.1375
  413POPI   C4A 6588   1.654   6.298   8.374  0.0216  0.4693 -0.2800
  413POPI   C1B 6589   1.413   6.982   9.204 -0.0099  0.1907 -0.0530
  413POPI   C2B 6590   1.260   6.925   8.791  0.2648  0.0319  0.0259
  413POPI   C3B 6591   1.177   6.678   8.414  0.3474  0.1516 -0.0108
  413POPI   C4B 6592   0.957   6.747   8.064 -0.3061  0.0952  0.1939
  414POPI    C1 6593   1.319  16.335  10.379 -0.0266 -0.0562  0.0861
  414POPI    C2 6594   0.942  16.403  10.494 -0.0357 -0.2200  0.1567
  414POPI    C3 6595   1.240  16.433  10.759  0.0340  0.1722  0.0411
  414POPI   PO4 6596   1.304  16.135  10.250 -0.0844 -0.0248  0.0315
  414POPI   GL1 6597   0.828  16.080  10.097 -0.1459  0.2869  0.3589
  414POPI   GL2 6598   0.945  16.422  10.021 -0.0580 -0.1276 -0.1149
  414POPI   C1A 6599   0.761  16.120   9.678 -0.1476 -0.0671 -0.0750
  414POPI   D2A 6600   0.948  15.974   9.264  0.1654 -0.1883  0.2553
  414POPI   C3A 6601   0.771  15.647   8.866 -0.3944 -0.0752  0.2418
  414POPI   C4A 6602   0.810  15.411   8.441  0.0038  0.0137 -0.1461
  414POPI   C1B 6603   0.961  16.579   9.550  0.3054  0.0049 -0.0455
  414POPI   C2B 6604   0.850  16.475   9.166  0.1441  0.1561  0.0306
  414POPI   C3B 6605   0.890  16.233   8.830 -0.0808 -0.1803  0.4586
  414POPI   C4B 6606   0.772  16.254   8.402  0.1728 -0.0076  0.1448
  415POPI    C1 6607  11.225   1.815  10.651  0.1128  0.0758  0.0093
  415POPI    C2 6608  10.841   1.705  10.628  0.0079  0.4714 -0.2438
  415POPI    C3 6609  10.965   1.935  10.931  0.0832  0.2121 -0.0749
  415POPI   PO4 6610  11.309   1.649  10.395 -0.0730 -0.0485 -0.4368
  415POPI   GL1 6611  11.089   1.593  10.086  0.0038  0.2895 -0.0868
  415POPI   GL2 6612  11.125   1.845   9.876  0.0315  0.1047  0.0155
  415POPI   C1A 6613  11.015   1.393   9.620  0.0251  0.2445 -0.2526
  415POPI   D2A 6614  11.067   1.085   9.347 -0.2419  0.0767 -0.0920
  415POPI   C3A 6615  11.336   1.209   9.104  0.0515 -0.2221 -0.2105
  415POPI   C4A 6616  11.415   1.571   8.784  0.1835 -0.2672 -0.0547
  415POPI   C1B 6617  10.970   2.199   9.685 -0.1690 -0.1946 -0.0641
  415POPI   C2B 6618  10.895   2.337   9.267  0.2128  0.2557  0.1402
  415POPI   C3B 6619  10.812   2.298   8.786 -0.1266  0.1651  0.0747
  415POPI   C4B 6620  10.582   2.224   8.243  0.2175  0.0514 -0.3543
  416POPI    C1 6621  11.534   8.501  10.374  0.0496 -0.0448  0.1354
  416POPI    C2 6622  11.529   8.831  10.599 -0.1128 -0.0619  0.1582
  416POPI    C3 6623  11.684   8.493  10.744 -0.0798 -0.0337  0.1888
  416POPI   PO4 6624  11.615   8.624  10.139 -0.3127  0.2019 -0.3654
  416POPI   GL1 6625  11.950   8.675   9.869  0.3402 -0.2773 -0.2001
  416POPI   GL2 6626  11.797   8.535   9.695  0.0963 -0.2840  0.2652
  416POPI   C1A 6627  12.056   8.855   9.400  0.1861 -0.1358 -0.1301
  416POPI   D2A 6628  11.738   9.068   9.233 -0.3116  0.0145 -0.1305
  416POPI   C3A 6629  11.749   9.163   8.861 -0.0421  0.0787 -0.1638
  416POPI   C4A 6630  11.702   9.505   8.623 -0.2809 -0.2273  0.1081
  416POPI   C1B 6631  11.667   8.519   9.260 -0.3543 -0.2651 -0.0105
  416POPI   C2B 6632  11.612   8.689   8.802  0.1120  0.3788 -0.3264
  416POPI   C3B 6633  11.493   8.958   8.481 -0.0273 -0.1505  0.1683
  416POPI   C4B 6634  11.517   9.135   8.114 -0.1086  0.4344 -0.0532
  417POPI    C1 6635  11.087   1.254  10.670 -0.0259  0.1430  0.1080
  417POPI    C2 6636  11.199   0.878  10.749 -0.4843 -0.0093  0.0623
  417POPI    C3 6637  11.026   1.100  11.034 -0.0324  0.2429  0.1496
  417POPI   PO4 6638  10.961   1.203  10.397  0.1207 -0.3029 -0.0252
  417POPI   GL1 6639  10.671   1.345  10.118  0.1743  0.1878 -0.0387
  417POPI   GL2 6640  10.555   1.034  10.122  0.0592  0.1915 -0.2679
  417POPI   C1A 6641  10.609   1.665   9.813 -0.1612 -0.0447  0.0118
  417POPI   D2A 6642  10.837   1.815   9.416  0.1767 -0.2067 -0.2168
  417POPI   C3A 6643  10.931   1.555   9.004  0.3819  0.2971  0.0320
  417POPI   C4A 6644  11.010   1.385   8.625 -0.2412  0.0495 -0.0639
  417POPI   C1B 6645  10.747   0.923   9.772 -0.3630 -0.0437 -0.3732
  417POPI   C2B 6646  10.705   0.761   9.361  0.0326 -0.0866 -0.0239
  417POPI   C3B 6647  10.913   0.837   8.939  0.1955  0.0132 -0.0210
  417POPI   C4B 6648  10.979   0.638   8.489  0.2778  0.0633 -0.1227
  418POPI    C1 6649   1.174  10.632   9.823  0.0270 -0.2214  0.1021
  418POPI    C2 6650   1.153  10.925  10.095 -0.0892  0.0416 -0.1848
  418POPI    C3 6651   1.035  10.554  10.190 -0.0694  0.1160  0.1400
  418POPI   PO4 6652   1.139  10.769   9.582  0.0042 -0.1395  0.1445
  418POPI   GL1 6653   1.060  10.716   9.209  0.1405 -0.0236 -0.1702
  418POPI   GL2 6654   0.893  10.504   9.305  0.2554  0.0627  0.2120
  418POPI   C1A 6655   1.159  11.006   8.829 -0.3010 -0.4419  0.0183
  418POPI   D2A 6656   1.192  11.169   8.443 -0.0795 -0.2582  0.2557
  418POPI   C3A 6657   1.239  11.457   8.089 -0.3669  0.0285 -0.1738
  418POPI   C4A 6658   1.285  11.943   8.011  0.0720 -0.0964 -0.0597
  418POPI   C1B 6659   0.972  10.478   8.769 -0.0271  0.1480 -0.1838
  418POPI   C2B 6660   0.905  10.403   8.378  0.0866  0.0155 -0.1028
  418POPI   C3B 6661   0.795  10.624   8.035  0.0264 -0.3439  0.2006
  418POPI   C4B 6662   0.764  10.607   7.668 -0.1887  0.0326  0.1061
  419POPI    C1 6663  14.110   0.421  10.157 -0.2592 -0.0168 -0.0154
  419POPI    C2 6664  13.879   0.709  10.312  0.0200  0.1218  0.1505
  419POPI    C3 6665  13.886   0.346  10.481 -0.4457 -0.0345 -0.1470
  419POPI   PO4 6666  14.150   0.342   9.980 -0.1235 -0.1009  0.2684
  419POPI   GL1 6667  14.021   0.128   9.664  0.0794 -0.1482 -0.2740
  419POPI   GL2 6668  13.795   0.203   9.557 -0.0523 -0.0853  0.2035
  419POPI   C1A 6669  14.177   0.090   9.203 -0.2300 -0.2671  0.0592
  419POPI   D2A 6670  14.015   0.102   8.768 -0.5614  0.1806  0.1228
  419POPI   C3A 6671  13.817   0.516   8.649 -0.3657 -0.2006  0.2484
  419POPI   C4A 6672  13.764   0.596   8.249 -0.1405  0.0352  0.1300
  419POPI   C1B 6673  13.917   0.519   9.198  0.1584 -0.0121  0.0938
  419POPI   C2B 6674  13.937   0.911   9.047 -0.1876  0.2151 -0.1825
  419POPI   C3B 6675  13.752   1.068   8.834 -0.0588 -0.1748  0.3230
  419POPI   C4B 6676  13.678   1.179   8.393  0.0758 -0.1222  0.1560
  420POPI    C1 6677   6.405  11.307  10.208  0.2498  0.2304  0.0445
  420POPI    C2 6678   6.557  11.127   9.886 -0.0308  0.0607  0.0032
  420POPI    C3 6679   6.757  11.119  10.232  0.0637 -0.1405 -0.0542
  420POPI   PO4 6680   6.307  11.504  10.158  0.1121  0.1265  0.1428
  420POPI   GL1 6681   6.290  11.555   9.742  0.0503 -0.1123  0.1769
  420POPI   GL2 6682   6.128  11.281   9.746  0.1258  0.0794 -0.4567
  420POPI   C1A 6683   6.118  11.975   9.509  0.0834 -0.1341 -0.2582
  420POPI   D2A 6684   5.916  12.321   9.197 -0.0060  0.0680 -0.0293
  420POPI   C3A 6685   5.593  12.157   8.842  0.4511 -0.0411 -0.1036
  420POPI   C4A 6686   5.109  12.161   8.725  0.2383  0.0635  0.0336
  420POPI   C1B 6687   5.949  11.009   9.391 -0.3450  0.0196  0.2754
  420POPI   C2B 6688   6.114  10.875   8.896 -0.1580  0.0476  0.0153
  420POPI   C3B 6689   6.177  10.786   8.516 -0.1806 -0.2970  0.1708
  420POPI   C4B 6690   6.108  10.929   8.116 -0.0393 -0.0952  0.0034
  421POPI    C1 6691   9.248   3.696  10.065 -0.4280 -0.2335  0.3140
  421POPI    C2 6692   9.409   3.562  10.406  0.0466 -0.1502  0.1300
  421POPI    C3 6693   9.407   3.954  10.326 -0.1444 -0.1615  0.0759
  421POPI   PO4 6694   9.385   3.508   9.899 -0.3807  0.1426  0.0679
  421POPI   GL1 6695   9.300   3.237   9.556  0.2059  0.0058 -0.2129
  421POPI   GL2 6696   8.928   3.129   9.702  0.1632  0.0836 -0.0011
  421POPI   C1A 6697   9.239   3.079   9.166  0.3741 -0.3471 -0.0463
  421POPI   D2A 6698   9.038   3.032   8.722  0.4049  0.0012  0.0553
  421POPI   C3A 6699   8.868   2.622   8.660  0.1447  0.0469 -0.0185
  421POPI   C4A 6700   8.808   2.204   8.349  0.1579  0.1390 -0.2408
  421POPI   C1B 6701   8.744   3.159   9.378  0.0834 -0.3827  0.0736
  421POPI   C2B 6702   8.764   3.288   9.017  0.0144 -0.1461 -0.0019
  421POPI   C3B 6703   8.889   3.609   8.751  0.0586 -0.1049 -0.3861
  421POPI   C4B 6704   8.805   3.561   8.322 -0.1487 -0.0480 -0.0909
  422POPI    C1 6705   8.631   5.437  10.282  0.1518 -0.0253  0.3001
  422POPI    C2 6706   8.286   5.375  10.475  0.0241  0.1573  0.1348
  422POPI    C3 6707   8.382   5.743  10.350  0.2301  0.0886  0.0865
  422POPI   PO4 6708   8.648   5.319  10.055  0.0950  0.0912  0.1031
  422POPI   GL1 6709   8.626   5.252   9.616  0.1060 -0.3668  0.2932
  422POPI   GL2 6710   8.887   5.484   9.566 -0.2406  0.2456  0.3576
  422POPI   C1A 6711   8.468   5.485   9.178 -0.0604 -0.2730 -0.1096
  422POPI   D2A 6712   8.388   5.341   8.838  0.0824  0.0610 -0.0446
  422POPI   C3A 6713   8.521   5.408   8.467  0.0053 -0.0362 -0.0240
  422POPI   C4A 6714   8.561   5.718   8.112 -0.0188  0.3181  0.0554
  422POPI   C1B 6715   8.953   5.173   9.152  0.0664 -0.0358 -0.1262
  422POPI   C2B 6716   8.919   4.988   8.719 -0.0305  0.1926 -0.1756
  422POPI   C3B 6717   9.006   5.001   8.303  0.2482 -0.1334 -0.1368
  422POPI   C4B 6718   8.920   5.005   7.859 -0.2773 -0.0359 -0.0950
  423POPI    C1 6719   5.933  14.186  10.683 -0.1442 -0.1944 -0.0041
  423POPI    C2 6720   5.711  14.079  10.998 -0.0780 -0.2571  0.0216
  423POPI    C3 6721   5.960  14.390  11.025  0.0357 -0.3522  0.0776
  423POPI   PO4 6722   6.060  13.996  10.598  0.3084 -0.0692  0.1330
  423POPI   GL1 6723   6.117  13.780  10.240 -0.0182 -0.0337  0.0021
  423POPI   GL2 6724   5.774  13.795  10.115  0.2286  0.2517  0.0734
  423POPI   C1A 6725   6.064  14.053   9.808  0.1525 -0.0811  0.3599
  423POPI   D2A 6726   5.862  13.949   9.325 -0.0191 -0.1945 -0.0575
  423POPI   C3A 6727   5.563  14.280   9.171  0.1324 -0.0489 -0.1134
  423POPI   C4A 6728   5.298  14.472   8.883 -0.0452  0.3824 -0.1721
  423POPI   C1B 6729   5.622  13.673   9.737 -0.0271 -0.2983 -0.0247
  423POPI   C2B 6730   5.312  13.936   9.439 -0.1909 -0.1606 -0.1209
  423POPI   C3B 6731   5.142  14.297   9.426 -0.2959  0.2118 -0.1586
  423POPI   C4B 6732   5.127  14.689   9.359 -0.0516  0.0976 -0.1634
  424POPI    C1 6733   3.178   3.431  10.580 -0.0361  0.0597  0.0095
  424POPI    C2 6734   3.231   3.755  10.808  0.1184  0.2308 -0.2631
  424POPI    C3 6735   2.861   3.635  10.714  0.0548  0.1936  0.0228
  424POPI   PO4 6736   3.371   3.472  10.385 -0.2763  0.0562 -0.0914
  424POPI   GL1 6737   3.322   3.570   9.910  0.2942 -0.0740  0.0174
  424POPI   GL2 6738   3.169   3.727   9.941 -0.2133 -0.1836  0.0243
  424POPI   C1A 6739   3.116   3.329   9.651 -0.3787 -0.1175  0.1875
  424POPI   D2A 6740   3.167   3.176   9.251 -0.1072  0.3050 -0.2120
  424POPI   C3A 6741   3.543   3.090   9.051  0.1232  0.0132 -0.1477
  424POPI   C4A 6742   3.917   3.431   9.002 -0.0347  0.3751  0.0995
  424POPI   C1B 6743   3.000   3.886   9.560  0.3540  0.0579 -0.2831
  424POPI   C2B 6744   2.903   4.139   9.292  0.0503 -0.2690  0.1988
  424POPI   C3B 6745   2.865   4.280   8.850 -0.1752 -0.1783  0.1365
  424POPI   C4B 6746   2.881   4.176   8.441 -0.1632  0.0449  0.1954
  425POPI    C1 6747  17.887   4.106  10.247 -0.1792 -0.0718 -0.0691
  425POPI    C2 6748  17.512   4.043  10.370 -0.1240  0.1106  0.2025
  425POPI    C3 6749  17.815   4.000  10.626  0.0487 -0.1017 -0.0329
  425POPI   PO4 6750  17.909   4.003  10.056 -0.3836  0.0490  0.2520
  425POPI   GL1 6751  17.997   3.620   9.911  0.1286 -0.0581  0.0983
  425POPI   GL2 6752  18.303   3.619   9.935 -0.3164  0.0082  0.3164
  425POPI   C1A 6753  17.937   3.668   9.478  0.0474  0.2549 -0.0886
  425POPI   D2A 6754  17.985   3.665   8.975 -0.0968  0.0322 -0.3890
  425POPI   C3A 6755  17.821   3.638   8.584  0.0001 -0.0556 -0.0698
  425POPI   C4A 6756  17.921   3.925   8.250 -0.0242 -0.0581 -0.1162
  425POPI   C1B 6757  18.494   3.505   9.493 -0.0528  0.0571 -0.2803
  425POPI   C2B 6758  18.628   3.602   9.129  0.0180 -0.0292 -0.2653
  425POPI   C3B 6759  18.464   3.686   8.709  0.1721  0.0956 -0.4706
  425POPI   C4B 6760  18.469   3.769   8.329 -0.0562 -0.1888  0.0786
  426POPI    C1 6761  17.618   3.570  10.269  0.1161  0.4194  0.0480
  426POPI    C2 6762  17.445   3.601  10.628 -0.1024 -0.1656  0.0050
  426POPI    C3 6763  17.822   3.470  10.599  0.0813  0.3329  0.0437
  426POPI   PO4 6764  17.418   3.443  10.162  0.1631  0.2944 -0.2473
  426POPI   GL1 6765  17.541   3.435   9.778 -0.0465 -0.3880  0.0664
  426POPI   GL2 6766  17.486   3.803   9.806 -0.0736  0.1472 -0.1662
  426POPI   C1A 6767  17.357   3.304   9.401 -0.1911 -0.0107  0.1960
  426POPI   D2A 6768  17.332   3.469   9.027 -0.1694  0.1136 -0.4488
  426POPI   C3A 6769  17.180   3.413   8.648 -0.2116 -0.0608  0.0573
  426POPI   C4A 6770  16.956   3.262   8.262 -0.1325 -0.0827  0.3389
  426POPI   C1B 6771  17.468   3.798   9.377  0.0252  0.0300  0.1192
  426POPI   C2B 6772  17.520   3.894   8.933 -0.2060 -0.3735  0.0703
  426POPI   C3B 6773  17.427   3.837   8.493 -0.2704  0.3247 -0.2538
  426POPI   C4B 6774  17.234   4.178   8.182  0.1088 -0.0034 -0.0305
  427POPI    C1 6775  12.914   7.077  10.085  0.0624 -0.0332  0.1373
  427POPI    C2 6776  13.108   7.226   9.768  0.1711 -0.0387  0.2008
  427POPI    C3 6777  13.037   7.458  10.086 -0.0366 -0.0011  0.1280
  427POPI   PO4 6778  12.889   6.833   9.941 -0.2423  0.0139 -0.0118
  427POPI   GL1 6779  13.078   6.732   9.537 -0.2090  0.0781  0.1077
  427POPI   GL2 6780  13.174   6.428   9.530 -0.0822  0.0051  0.1810
  427POPI   C1A 6781  13.213   7.062   9.334 -0.0508 -0.0722 -0.0243
  427POPI   D2A 6782  13.497   7.306   9.056  0.2440 -0.2213 -0.1722
  427POPI   C3A 6783  13.351   7.471   8.720 -0.1948 -0.5218 -0.0184
  427POPI   C4A 6784  13.354   7.629   8.307  0.3024 -0.1791 -0.1225
  427POPI   C1B 6785  13.086   6.621   9.062  0.0637 -0.1818  0.2889
  427POPI   C2B 6786  13.110   6.601   8.709  0.0167 -0.3918 -0.0254
  427POPI   C3B 6787  13.249   6.654   8.238  0.1574  0.0297  0.0998
  427POPI   C4B 6788  13.045   6.764   7.761  0.3076 -0.1589 -0.0931
  428POPI    C1 6789  11.558   7.980  10.445 -0.1087  0.2171  0.0823
  428POPI    C2 6790  11.841   7.722  10.328 -0.3452 -0.0241  0.0319
  428POPI    C3 6791  11.925   8.000  10.603 -0.0506 -0.0696 -0.0090
  428POPI   PO4 6792  11.459   8.023  10.178 -0.0481  0.2299  0.0831
  428POPI   GL1 6793  11.432   8.255   9.929 -0.4006  0.1412  0.0590
  428POPI   GL2 6794  11.210   8.491   9.862 -0.4940  0.2185 -0.3579
  428POPI   C1A 6795  11.538   8.108   9.517  0.2490 -0.1200 -0.2299
  428POPI   D2A 6796  11.462   7.941   9.098  0.0160  0.0253  0.3428
  428POPI   C3A 6797  11.577   8.097   8.655 -0.1345  0.4015 -0.0320
  428POPI   C4A 6798  11.627   8.174   8.208  0.2618  0.0618  0.0033
  428POPI   C1B 6799  10.877   8.670   9.516 -0.3023 -0.0903 -0.0339
  428POPI   C2B 6800  10.835   8.656   9.206 -0.0140 -0.0835  0.1102
  428POPI   C3B 6801  10.619   8.747   8.792  0.0572 -0.0399  0.0187
  428POPI   C4B 6802  10.488   8.804   8.413 -0.1142  0.1355 -0.3496
  429POPI    C1 6803   2.275   3.582  10.597  0.0244  0.0687  0.1194
  429POPI    C2 6804   2.442   3.449  10.936 -0.1486 -0.0443  0.1616
  429POPI    C3 6805   2.411   3.842  10.870 -0.1297 -0.0218  0.2847
  429POPI   PO4 6806   2.365   3.400  10.431 -0.0011 -0.1382  0.1544
  429POPI   GL1 6807   2.307   3.479  10.050 -0.0131  0.0937  0.0342
  429POPI   GL2 6808   1.994   3.573  10.119  0.2793  0.0116 -0.0257
  429POPI   C1A 6809   2.222   3.576   9.624  0.0852 -0.0712 -0.0554
  429POPI   D2A 6810   2.179   3.805   9.172  0.2321 -0.2444 -0.0559
  429POPI   C3A 6811   1.905   4.020   9.020  0.0040  0.0771 -0.1906
  429POPI   C4A 6812   1.809   4.157   9.364 -0.0989 -0.1247 -0.1945
  429POPI   C1B 6813   1.948   3.994   9.875 -0.2240 -0.1087  0.2344
  429POPI   C2B 6814   2.118   4.311   9.708  0.0774 -0.1365 -0.0015
  429POPI   C3B 6815   2.252   4.471   9.369  0.0397 -0.3558  0.0379
  429POPI   C4B 6816   2.022   4.506   8.981 -0.4614  0.0033  0.1202
  430POPI    C1 6817  12.159  16.882  10.678  0.1188 -0.1229 -0.2858
  430POPI    C2 6818  12.329  16.533  10.773  0.1234 -0.0601 -0.0578
  430POPI    C3 6819  12.277  16.813  11.054 -0.0357  0.0571 -0.2024
  430POPI   PO4 6820  12.168  16.920  10.435  0.0166  0.0161 -0.0979
  430POPI   GL1 6821  12.213  16.640  10.117 -0.0818 -0.0409 -0.0077
  430POPI   GL2 6822  12.401  16.357  10.266  0.0106  0.4274 -0.1119
  430POPI   C1A 6823  11.980  16.522   9.897  0.1334  0.0830 -0.0217
  430POPI   D2A 6824  11.781  16.470   9.500  0.2589 -0.3067 -0.1222
  430POPI   C3A 6825  11.887  16.492   8.956 -0.0765 -0.3433  0.0253
  430POPI   C4A 6826  11.947  16.674   8.453 -0.3114 -0.1096 -0.0510
  430POPI   C1B 6827  12.521  16.362   9.832 -0.0740  0.1379 -0.3990
  430POPI   C2B 6828  12.538  16.213   9.365 -0.0373 -0.1600 -0.0368
  430POPI   C3B 6829  12.514  16.228   8.853 -0.0604 -0.4209 -0.0922
  430POPI   C4B 6830  12.347  16.256   8.482 -0.0768  0.0571 -0.1607
  431POPI    C1 6831   2.711  14.156  10.256  0.1153 -0.1351  0.1072
  431POPI    C2 6832   2.615  14.398  10.560  0.1283 -0.1689  0.1383
  431POPI    C3 6833   2.431  14.044  10.520 -0.1308 -0.0116 -0.0976
  431POPI   PO4 6834   2.735  14.277  10.016  0.1540 -0.3725  0.0388
  431POPI   GL1 6835   2.696  14.092   9.608 -0.0218  0.0806 -0.0502
  431POPI   GL2 6836   3.023  14.252   9.587  0.2423  0.0501 -0.0248
  431POPI   C1A 6837   2.759  13.962   9.214 -0.1470 -0.0918 -0.0536
  431POPI   D2A 6838   2.943  13.909   8.858  0.1529 -0.2745 -0.2365
  431POPI   C3A 6839   2.734  13.780   8.492  0.2526  0.0575 -0.1293
  431POPI   C4A 6840   2.652  13.401   8.331  0.1476  0.0416  0.1373
  431POPI   C1B 6841   3.174  14.288   9.142  0.1322  0.1459 -0.2499
  431POPI   C2B 6842   3.487  14.288   8.842 -0.1254 -0.0664  0.0277
  431POPI   C3B 6843   3.521  14.348   8.391  0.0774 -0.2946 -0.0940
  431POPI   C4B 6844   3.306  14.524   8.007  0.3025 -0.0431  0.1465
  432POPI    C1 6845   5.281   0.758  10.377  0.1027 -0.0082 -0.0042
  432POPI    C2 6846   5.453   1.078  10.545 -0.0228 -0.0416  0.1905
  432POPI    C3 6847   5.109   0.935  10.692 -0.1919 -0.0077 -0.1618
  432POPI   PO4 6848   5.397   0.504  10.415  0.0339 -0.3234 -0.1573
  432POPI   GL1 6849   5.629   0.237  10.049  0.1327 -0.1623  0.4398
  432POPI   GL2 6850   5.529   0.590   9.954  0.1116 -0.2343  0.3157
  432POPI   C1A 6851   5.601   0.175   9.579 -0.0350  0.0796 -0.1304
  432POPI   D2A 6852   5.539  -0.074   9.303  0.1174  0.0407  0.3577
  432POPI   C3A 6853   5.469   0.134   8.896 -0.1182  0.1247 -0.1785
  432POPI   C4A 6854   5.427   0.456   8.700 -0.1352  0.0906 -0.0595
  432POPI   C1B 6855   5.295   0.720   9.674  0.1326  0.1501  0.1088
  432POPI   C2B 6856   4.910   0.937   9.399  0.1734  0.0813 -0.1114
  432POPI   C3B 6857   4.776   1.142   9.082 -0.0157  0.2639  0.2976
  432POPI   C4B 6858   4.612   1.146   8.629  0.0033 -0.2094  0.0326
  433POPI    C1 6859  16.684  16.654  10.229  0.1597 -0.0690  0.1897
  433POPI    C2 6860  17.003  16.878  10.141  0.0357 -0.0065 -0.1123
  433POPI    C3 6861  16.660  17.053  10.247  0.0022 -0.0607 -0.1310
  433POPI   PO4 6862  16.652  16.425  10.066  0.1445  0.0220  0.0307
  433POPI   GL1 6863  17.122  16.362   9.815 -0.1528 -0.0109  0.1432
  433POPI   GL2 6864  17.064  16.183   9.630 -0.1739 -0.2071  0.1776
  433POPI   C1A 6865  17.081  16.737   9.580  0.2736  0.3183 -0.1733
  433POPI   D2A 6866  16.936  16.935   9.290  0.1700 -0.2377  0.0448
  433POPI   C3A 6867  17.063  16.882   8.833 -0.2187 -0.1485 -0.1224
  433POPI   C4A 6868  17.109  16.940   8.345  0.0162  0.1112 -0.0188
  433POPI   C1B 6869  16.821  15.967   9.376  0.1909  0.0162  0.0774
  433POPI   C2B 6870  16.856  15.878   8.981  0.0701  0.1185  0.2367
  433POPI   C3B 6871  16.837  15.828   8.584 -0.3928  0.3068  0.0573
  433POPI   C4B 6872  16.583  15.580   8.368  0.3381 -0.1493  0.3778
  434POPI    C1 6873  14.713  16.935  10.525 -0.1571 -0.1468 -0.0083
  434POPI    C2 6874  14.371  17.138  10.565 -0.1655 -0.0999 -0.2928
  434POPI    C3 6875  14.548  16.980  10.886 -0.3144  0.1022 -0.1076
  434POPI   PO4 6876  14.701  16.690  10.334 -0.0501  0.1889 -0.1298
  434POPI   GL1 6877  14.887  16.469   9.946 -0.0871 -0.0693 -0.4487
  434POPI   GL2 6878  14.695  16.642   9.858 -0.0711 -0.2867  0.1030
  434POPI   C1A 6879  14.884  16.495   9.412  0.2607  0.1872 -0.0783
  434POPI   D2A 6880  14.782  16.577   9.033  0.1512 -0.0604 -0.0684
  434POPI   C3A 6881  14.834  16.347   8.649  0.1772  0.1065 -0.0237
  434POPI   C4A 6882  14.834  16.459   8.189  0.2100  0.2036  0.0911
  434POPI   C1B 6883  14.836  17.001   9.557  0.0914  0.3594 -0.1601
  434POPI   C2B 6884  14.974  17.184   9.191  0.2294 -0.1331  0.0882
  434POPI   C3B 6885  15.111  17.193   8.729  0.2399  0.1287 -0.1087
  434POPI   C4B 6886  15.010  17.350   8.265 -0.1361 -0.0830  0.2025
  435POPI    C1 6887   0.413  11.093   9.715 -0.0726 -0.2080 -0.0092
  435POPI    C2 6888   0.387  10.935  10.081  0.1793 -0.0439  0.0820
  435POPI    C3 6889   0.719  10.883   9.864  0.1284  0.0687 -0.0238
  435POPI   PO4 6890   0.136  11.054   9.616 -0.1520  0.2104 -0.3037
  435POPI   GL1 6891  -0.146  11.004   9.278  0.0493 -0.0045  0.0607
  435POPI   GL2 6892  -0.357  11.072   9.127 -0.1074 -0.0683  0.0182
  435POPI   C1A 6893   0.053  10.836   8.950  0.1862 -0.0116 -0.0223
  435POPI   D2A 6894   0.039  10.653   8.616  0.1299  0.1966  0.1933
  435POPI   C3A 6895   0.259  10.497   8.275  0.0721 -0.0007  0.1524
  435POPI   C4A 6896   0.597  10.219   7.930  0.0890 -0.2901 -0.0315
  435POPI   C1B 6897  -0.590  11.053   8.759 -0.1689 -0.0817  0.0260
  435POPI   C2B 6898  -0.294  10.912   8.324 -0.2440  0.0240 -0.0492
  435POPI   C3B 6899  -0.207  10.576   8.026 -0.3685  0.0511 -0.0354
  435POPI   C4B 6900  -0.004  10.318   7.711 -0.1825  0.1955 -0.1358
  436POPI    C1 6901  15.831   5.710   9.965 -0.1742 -0.0943 -0.0454
  436POPI    C2 6902  15.762   6.089   9.854 -0.0198 -0.0202  0.1068
  436POPI    C3 6903  15.760   5.990  10.242  0.0119 -0.1615  0.0715
  436POPI   PO4 6904  16.122   5.662   9.887 -0.2203 -0.3633  0.0174
  436POPI   GL1 6905  16.316   5.855   9.519 -0.0979  0.0791  0.0695
  436POPI   GL2 6906  15.965   5.883   9.431  0.1934 -0.0384 -0.0463
  436POPI   C1A 6907  16.387   5.903   9.105 -0.1988  0.0629  0.2644
  436POPI   D2A 6908  16.414   5.825   8.715 -0.1470 -0.2913 -0.1347
  436POPI   C3A 6909  16.491   6.102   8.328  0.2144  0.0275 -0.1339
  436POPI   C4A 6910  16.757   6.412   8.099 -0.0660 -0.1782 -0.1482
  436POPI   C1B 6911  15.931   5.745   8.960 -0.0560 -0.0913 -0.0694
  436POPI   C2B 6912  15.951   5.651   8.588  0.1092 -0.0475  0.0452
  436POPI   C3B 6913  16.198   5.644   8.149 -0.2273  0.2731 -0.5175
  436POPI   C4B 6914  16.358   5.441   7.785  0.1786  0.1944 -0.2036
  437POPI    C1 6915   3.862   5.792  10.354  0.0008 -0.1725 -0.1094
  437POPI    C2 6916   3.905   5.870   9.964  0.1320 -0.3140 -0.1243
  437POPI    C3 6917   4.176   6.005  10.226 -0.1439  0.0898 -0.0365
  437POPI   PO4 6918   3.799   5.454  10.388 -0.0072  0.2461 -0.0445
  437POPI   GL1 6919   3.747   5.286  10.000  0.4813 -0.0925  0.1380
  437POPI   GL2 6920   3.480   5.241   9.960  0.0683  0.0484 -0.4010
  437POPI   C1A 6921   3.803   5.470   9.631  0.0521  0.2220  0.3682
  437POPI   D2A 6922   3.785   5.817   9.268  0.1266  0.0424 -0.1585
  437POPI   C3A 6923   3.744   5.949   8.813  0.2915 -0.0072 -0.0716
  437POPI   C4A 6924   3.602   5.940   8.390  0.3370  0.2675  0.0333
  437POPI   C1B 6925   3.226   5.118   9.669  0.6163  0.0184 -0.0133
  437POPI   C2B 6926   3.442   5.336   9.321 -0.1742  0.0190 -0.0460
  437POPI   C3B 6927   3.487   5.450   8.842 -0.0870 -0.3515  0.3038
  437POPI   C4B 6928   3.475   5.444   8.428 -0.0390 -0.1633 -0.0074
  438POPI    C1 6929   5.011  15.111  10.620  0.1482 -0.1366  0.1146
  438POPI    C2 6930   5.114  14.755  10.772 -0.2234 -0.2829  0.0335
  438POPI    C3 6931   4.918  15.020  10.998  0.2068 -0.0549  0.1488
  438POPI   PO4 6932   4.946  15.033  10.386  0.2741 -0.1375  0.1854
  438POPI   GL1 6933   4.681  15.116  10.121  0.0701 -0.0252  0.2698
  438POPI   GL2 6934   4.674  14.927   9.818  0.1047  0.1213  0.2973
  438POPI   C1A 6935   4.494  15.463   9.767  0.1354 -0.0805  0.0792
  438POPI   D2A 6936   4.463  15.449   9.318 -0.0405  0.2132 -0.0102
  438POPI   C3A 6937   4.596  15.429   8.863  0.2930 -0.2499  0.0023
  438POPI   C4A 6938   4.683  15.461   8.439 -0.1706  0.1347 -0.1628
  438POPI   C1B 6939   4.754  14.985   9.376  0.2659 -0.2054 -0.1622
  438POPI   C2B 6940   4.846  14.992   8.949  0.0770 -0.0982 -0.1505
  438POPI   C3B 6941   4.869  15.020   8.519  0.2213  0.2759 -0.0410
  438POPI   C4B 6942   5.069  15.091   8.124 -0.2569 -0.0285 -0.1526
  439POPI    C1 6943  11.101  18.401  10.620 -0.0730  0.1905 -0.0981
  439POPI    C2 6944  11.197  18.265  10.984 -0.1741 -0.1134 -0.1826
  439POPI    C3 6945  10.874  18.495  10.936 -0.0076  0.1546 -0.0402
  439POPI   PO4 6946  11.434  18.417  10.514 -0.1343  0.0227 -0.0125
  439POPI   GL1 6947  11.515  18.459  10.067 -0.2909  0.1285 -0.2812
  439POPI   GL2 6948  11.527  18.684   9.875 -0.0743 -0.3386  0.1304
  439POPI   C1A 6949  11.572  18.108   9.845  0.1708  0.0792  0.1430
  439POPI   D2A 6950  11.579  18.160   9.428 -0.0286  0.3467  0.4937
  439POPI   C3A 6951  11.878  18.401   9.132 -0.0800  0.0129 -0.0312
  439POPI   C4A 6952  11.864  18.501   8.691 -0.2151 -0.0698  0.2720
  439POPI   C1B 6953  11.530  18.650   9.329 -0.0555 -0.3440 -0.1758
  439POPI   C2B 6954  11.599  18.904   8.983 -0.2699  0.1717 -0.2568
  439POPI   C3B 6955  11.421  19.276   8.842  0.0322 -0.0119  0.2250
  439POPI   C4B 6956  11.439  19.648   8.520 -0.0943  0.0033 -0.0133
  440POPI    C1 6957   3.540   1.004  10.629 -0.0699  0.1242 -0.1269
  440POPI    C2 6958   3.645   1.360  10.478  0.0563  0.1768  0.0802
  440POPI    C3 6959   3.924   1.116  10.628  0.0087 -0.1380 -0.3238
  440POPI   PO4 6960   3.303   0.919  10.466  0.1824 -0.4858  0.2202
  440POPI   GL1 6961   3.360   1.153  10.064 -0.2171  0.1419 -0.0724
  440POPI   GL2 6962   3.476   0.982   9.925  0.0268 -0.4182 -0.0104
  440POPI   C1A 6963   3.085   1.388   9.776  0.3556 -0.0542 -0.0246
  440POPI   D2A 6964   2.817   1.330   9.407 -0.0739 -0.1449 -0.3536
  440POPI   C3A 6965   2.534   1.553   9.156 -0.3965  0.0459 -0.0808
  440POPI   C4A 6966   2.241   1.627   9.092  0.2281 -0.2450  0.0443
  440POPI   C1B 6967   3.395   0.984   9.526 -0.1401 -0.1595 -0.1322
  440POPI   C2B 6968   3.363   1.025   9.118 -0.0157  0.1781  0.1002
  440POPI   C3B 6969   3.332   0.966   8.717 -0.2451 -0.2041 -0.0355
  440POPI   C4B 6970   3.085   0.856   8.388  0.1553  0.4083  0.0188
  441POPI    C1 6971  15.823  18.300  10.500 -0.1819  0.3542  0.0641
  441POPI    C2 6972  15.847  18.083  10.835 -0.0744  0.1007 -0.1048
  441POPI    C3 6973  15.890  18.480  10.851  0.0430  0.0792  0.1661
  441POPI   PO4 6974  15.730  18.083  10.289 -0.2263  0.3081  0.3323
  441POPI   GL1 6975  15.992  17.892   9.949 -0.0493  0.1104  0.3663
  441POPI   GL2 6976  16.099  17.696   9.698  0.2703 -0.0742  0.2424
  441POPI   C1A 6977  16.083  18.272   9.555  0.1581  0.0567 -0.0606
  441POPI   D2A 6978  16.139  18.295   9.195 -0.3361 -0.1304  0.0052
  441POPI   C3A 6979  16.377  18.671   9.055  0.1672 -0.3061  0.1367
  441POPI   C4A 6980  16.735  18.618   8.782  0.0115 -0.0353 -0.0084
  441POPI   C1B 6981  15.888  17.783   9.325 -0.3729 -0.0516  0.1622
  441POPI   C2B 6982  15.796  17.680   8.860  0.0021 -0.0610 -0.1777
  441POPI   C3B 6983  15.930  17.636   8.441  0.1930  0.0287  0.0462
  441POPI   C4B 6984  15.931  17.796   7.951 -0.0220 -0.2258 -0.1084
  442POPI    C1 6985   2.472  16.133  10.430  0.0263 -0.1116 -0.1365
  442POPI    C2 6986   2.732  15.920  10.647  0.1492  0.1394 -0.0337
  442POPI    C3 6987   2.462  16.153  10.829 -0.2660 -0.2491 -0.1348
  442POPI   PO4 6988   2.659  16.154  10.162 -0.1774  0.1225 -0.3757
  442POPI   GL1 6989   2.885  16.256   9.870 -0.1468  0.0758  0.0674
  442POPI   GL2 6990   2.584  16.419   9.741 -0.0346  0.0190 -0.2877
  442POPI   C1A 6991   3.147  16.129   9.510  0.3587 -0.1690  0.4293
  442POPI   D2A 6992   3.296  16.128   9.252  0.2286 -0.0066 -0.0096
  442POPI   C3A 6993   3.128  16.220   8.808  0.1040 -0.0566  0.1003
  442POPI   C4A 6994   2.892  16.116   8.459 -0.1640 -0.0207 -0.1515
  442POPI   C1B 6995   2.699  16.338   9.287 -0.2473 -0.2207  0.0598
  442POPI   C2B 6996   2.742  16.545   8.855 -0.0306 -0.0443  0.2041
  442POPI   C3B 6997   2.851  16.612   8.545  0.0661 -0.2028 -0.0082
  442POPI   C4B 6998   2.882  16.681   8.071  0.0569 -0.0190  0.1389
  443POPI    C1 6999  10.500   7.934  10.089 -0.0765  0.0857 -0.0015
  443POPI    C2 7000  10.345   7.845  10.447 -0.0744  0.2455  0.0400
  443POPI    C3 7001  10.742   7.856  10.398 -0.0733 -0.0695 -0.0426
  443POPI   PO4 7002  10.303   8.048   9.958 -0.1708  0.1077  0.0415
  443POPI   GL1 7003  10.045   8.295   9.669 -0.0490 -0.0376  0.1040
  443POPI   GL2 7004   9.697   8.332   9.592  0.0812 -0.2811 -0.3038
  443POPI   C1A 7005  10.391   8.321   9.318  0.0653 -0.0777 -0.1259
  443POPI   D2A 7006  10.615   8.125   9.149 -0.2851 -0.0226 -0.1069
  443POPI   C3A 7007  10.723   8.260   8.825  0.2702 -0.2855 -0.0816
  443POPI   C4A 7008  10.761   8.376   8.403 -0.1243 -0.2674 -0.0352
  443POPI   C1B 7009   9.876   8.179   9.246 -0.0452 -0.0865  0.1337
  443POPI   C2B 7010  10.047   8.254   8.954 -0.0529  0.0197 -0.0712
  443POPI   C3B 7011  10.239   8.300   8.574  0.0077  0.2855  0.0711
  443POPI   C4B 7012  10.335   8.228   8.193  0.0179  0.2316 -0.0068
  444POPI    C1 7013   1.200   8.423   9.857  0.1487  0.0485 -0.0393
  444POPI    C2 7014   1.217   8.042   9.975 -0.0062  0.0651  0.0398
  444POPI    C3 7015   1.141   8.330  10.241 -0.0151  0.1384 -0.0416
  444POPI   PO4 7016   1.051   8.400   9.658  0.0336  0.1652 -0.1435
  444POPI   GL1 7017   1.046   8.464   9.249  0.0664  0.0590  0.0773
  444POPI   GL2 7018   0.799   8.471   9.059 -0.1212 -0.0844 -0.0920
  444POPI   C1A 7019   1.465   8.579   9.112 -0.1430  0.1016  0.0030
  444POPI   D2A 7020   1.698   8.317   8.840  0.0588 -0.1957 -0.1932
  444POPI   C3A 7021   1.831   8.500   8.370  0.0001  0.1022 -0.1302
  444POPI   C4A 7022   2.202   8.519   8.073 -0.0274 -0.3850  0.1329
  444POPI   C1B 7023   0.711   8.354   8.623 -0.2721 -0.2034 -0.1592
  444POPI   C2B 7024   0.980   8.149   8.360 -0.0034 -0.0183  0.1894
  444POPI   C3B 7025   1.215   8.137   8.014 -0.0854 -0.1417  0.2994
  444POPI   C4B 7026   1.371   8.344   7.652 -0.1171  0.0956 -0.3133
  445POPI    C1 7027   3.194  13.764  10.178  0.2872 -0.0240  0.0621
  445POPI    C2 7028   3.163  13.365  10.185  0.4704 -0.0406 -0.0060
  445POPI    C3 7029   3.295  13.561  10.508  0.0247 -0.0002  0.1600
  445POPI   PO4 7030   3.415  13.866   9.853  0.1672 -0.0823 -0.1895
  445POPI   GL1 7031   3.491  14.051   9.478 -0.0359 -0.0035 -0.0116
  445POPI   GL2 7032   3.520  13.659   9.337  0.0196  0.0050 -0.3126
  445POPI   C1A 7033   3.779  14.112   9.252  0.1498  0.1456 -0.2023
  445POPI   D2A 7034   3.954  14.052   8.858  0.0637  0.2362  0.1424
  445POPI   C3A 7035   3.855  13.692   8.548 -0.2630 -0.2563 -0.2274
  445POPI   C4A 7036   3.652  13.721   8.174  0.1563  0.0536  0.2931
  445POPI   C1B 7037   3.584  13.781   8.953  0.1849  0.2234 -0.0374
  445POPI   C2B 7038   3.348  13.881   8.504 -0.0237  0.1223  0.0597
  445POPI   C3B 7039   3.156  13.573   8.159 -0.0577 -0.2245  0.0104
  445POPI   C4B 7040   2.907  13.239   7.876  0.0043 -0.3681  0.2378
  446POPI    C1 7041  13.971  15.386  10.180  0.1258  0.3024  0.1519
  446POPI    C2 7042  13.613  15.370  10.358  0.1842  0.1028  0.2539
  446POPI    C3 7043  13.912  15.577  10.527  0.1891  0.0595  0.2982
  446POPI   PO4 7044  13.943  15.458   9.904 -0.0111  0.2063  0.0048
  446POPI   GL1 7045  13.979  15.375   9.457  0.0564 -0.0573  0.2147
  446POPI   GL2 7046  14.253  15.421   9.411 -0.2924 -0.0792  0.0790
  446POPI   C1A 7047  13.818  15.549   9.023  0.5653 -0.0808  0.0886
  446POPI   D2A 7048  13.882  15.658   8.575 -0.5213  0.2219  0.1006
  446POPI   C3A 7049  13.940  15.659   8.195 -0.2475  0.0251 -0.1055
  446POPI   C4A 7050  14.118  15.972   7.993  0.0747  0.0018  0.0778
  446POPI   C1B 7051  14.346  15.502   8.952 -0.2269 -0.0384 -0.1000
  446POPI   C2B 7052  14.323  15.843   8.697  0.2086 -0.0878 -0.2349
  446POPI   C3B 7053  14.469  16.065   8.330 -0.3386  0.0191 -0.2576
  446POPI   C4B 7054  14.321  16.404   7.924 -0.1119  0.1468  0.1656
  447POPI    C1 7055   9.259  15.165  10.601  0.0707 -0.2350 -0.0229
  447POPI    C2 7056   9.619  14.991  10.618  0.2286  0.0797 -0.0543
  447POPI    C3 7057   9.382  14.993  10.940  0.2067 -0.2221 -0.0651
  447POPI   PO4 7058   9.315  15.207  10.262  0.1054 -0.0715 -0.1696
  447POPI   GL1 7059   9.318  15.430  10.055  0.2627 -0.2034 -0.1958
  447POPI   GL2 7060   9.072  15.563   9.956  0.0602 -0.1468 -0.0089
  447POPI   C1A 7061   9.272  15.376   9.579  0.1615 -0.2382 -0.1061
  447POPI   D2A 7062   8.961  15.367   9.280  0.1761  0.2328  0.1506
  447POPI   C3A 7063   8.776  15.709   8.890 -0.2250  0.0566  0.0062
  447POPI   C4A 7064   8.811  15.855   8.529  0.0409  0.0612  0.0342
  447POPI   C1B 7065   8.853  15.756   9.644 -0.1765  0.0291 -0.1583
  447POPI   C2B 7066   8.475  15.864   9.459 -0.1489  0.1949  0.0341
  447POPI   C3B 7067   8.367  16.008   9.145 -0.0838 -0.0228 -0.3069
  447POPI   C4B 7068   8.528  16.293   8.995  0.1371  0.0697 -0.2086
  448POPI    C1 7069   9.435   4.618   9.715 -0.1807  0.2402 -0.0526
  448POPI    C2 7070   9.514   4.336   9.988 -0.1858  0.1347 -0.1597
  448POPI    C3 7071   9.730   4.355   9.652 -0.1968  0.2479 -0.1606
  448POPI   PO4 7072   9.112   4.509   9.715  0.0511  0.0301 -0.0034
  448POPI   GL1 7073   8.840   4.693   9.375 -0.0944  0.0236  0.1185
  448POPI   GL2 7074   8.536   4.691   9.467  0.0070  0.0569  0.0459
  448POPI   C1A 7075   8.855   4.602   8.962 -0.2630 -0.0094  0.0548
  448POPI   D2A 7076   8.656   4.411   8.573  0.2709  0.3225 -0.0376
  448POPI   C3A 7077   8.647   4.483   8.159  0.3996 -0.2139 -0.0156
  448POPI   C4A 7078   8.510   4.659   7.797 -0.3079 -0.2335  0.0192
  448POPI   C1B 7079   8.537   4.919   9.067  0.2225 -0.1190 -0.0121
  448POPI   C2B 7080   8.444   4.891   8.595  0.1288 -0.0236 -0.2207
  448POPI   C3B 7081   8.518   5.001   8.166 -0.1643  0.0688 -0.1630
  448POPI   C4B 7082   8.398   5.269   7.899 -0.1587 -0.0731  0.1026
  449POPI    C1 7083  16.023   6.455  10.188 -0.1649 -0.0060 -0.0529
  449POPI    C2 7084  16.221   6.696  10.438 -0.3457  0.0263  0.0613
  449POPI    C3 7085  15.918   6.473  10.573 -0.1480 -0.3058 -0.0322
  449POPI   PO4 7086  15.951   6.597   9.919 -0.4284 -0.0877  0.2391
  449POPI   GL1 7087  16.028   6.395   9.533 -0.0664 -0.1078 -0.1559
  449POPI   GL2 7088  16.307   6.390   9.454  0.0628  0.2797 -0.1562
  449POPI   C1A 7089  16.010   6.221   9.067  0.2601 -0.0415  0.0903
  449POPI   D2A 7090  16.133   6.207   8.710  0.3243 -0.4038  0.0546
  449POPI   C3A 7091  15.972   6.172   8.370  0.1604 -0.0143 -0.0114
  449POPI   C4A 7092  16.049   6.118   8.006  0.2002 -0.2969  0.1549
  449POPI   C1B 7093  16.077   6.680   9.152 -0.1157 -0.0727  0.0154
  449POPI   C2B 7094  15.938   6.649   8.793  0.1095 -0.0763  0.0853
  449POPI   C3B 7095  15.774   6.746   8.352 -0.1314 -0.2483  0.1755
  449POPI   C4B 7096  15.756   6.856   7.940 -0.1309  0.0993 -0.4697
  450POPI    C1 7097   8.278  13.690   9.976  0.1159 -0.1192 -0.0509
  450POPI    C2 7098   8.369  13.525  10.328  0.0204 -0.1480 -0.0395
  450POPI    C3 7099   8.083  13.363  10.100 -0.0313 -0.0344 -0.0557
  450POPI   PO4 7100   8.514  13.967  10.113  0.2662 -0.2122  0.2342
  450POPI   GL1 7101   8.612  14.388   9.897  0.1737 -0.0886  0.0594
  450POPI   GL2 7102   8.375  14.196   9.650 -0.1492 -0.0648  0.3334
  450POPI   C1A 7103   8.482  14.781   9.788 -0.4314  0.0370 -0.2664
  450POPI   D2A 7104   8.212  15.027   9.514  0.1334 -0.0907  0.1025
  450POPI   C3A 7105   7.895  14.900   9.187 -0.1188 -0.1546 -0.1670
  450POPI   C4A 7106   7.654  14.656   8.959 -0.0751 -0.1144 -0.3478
  450POPI   C1B 7107   8.433  14.582   9.351 -0.1092  0.1064 -0.2590
  450POPI   C2B 7108   8.372  14.837   9.087  0.3409  0.0494 -0.0048
  450POPI   C3B 7109   8.114  15.140   8.778 -0.1145 -0.0795  0.0821
  450POPI   C4B 7110   7.675  15.127   8.776  0.1953  0.0779 -0.1626
  451POPI    C1 7111   8.159  12.574  10.381 -0.0830 -0.0585 -0.1096
  451POPI    C2 7112   8.352  12.240  10.488 -0.0860 -0.0783 -0.1657
  451POPI    C3 7113   8.023  12.353  10.686 -0.1407 -0.1609 -0.2085
  451POPI   PO4 7114   8.073  12.543  10.113 -0.0993  0.0443  0.0703
  451POPI   GL1 7115   7.763  12.443   9.850 -0.4866  0.3696  0.3007
  451POPI   GL2 7116   7.641  12.712   9.754  0.0551 -0.1731 -0.1418
  451POPI   C1A 7117   7.865  12.393   9.328 -0.3922  0.0207 -0.1690
  451POPI   D2A 7118   7.615  12.392   8.947  0.3377  0.0195  0.0435
  451POPI   C3A 7119   7.343  12.410   8.576  0.1183 -0.0184 -0.0278
  451POPI   C4A 7120   7.219  12.375   8.252  0.0762 -0.0163  0.0351
  451POPI   C1B 7121   7.463  12.716   9.331  0.0201 -0.0392  0.1717
  451POPI   C2B 7122   7.281  12.773   8.981 -0.2242  0.0674 -0.1964
  451POPI   C3B 7123   7.212  12.882   8.552  0.0754  0.0054 -0.1478
  451POPI   C4B 7124   7.304  12.951   7.983 -0.3076 -0.1061  0.0418
  452POPI    C1 7125   8.960  11.788   9.810  0.1470  0.1178 -0.0314
  452POPI    C2 7126   9.288  11.883   9.602  0.2477 -0.0840  0.0329
  452POPI    C3 7127   9.322  11.737   9.973  0.0861 -0.1345  0.0281
  452POPI   PO4 7128   8.705  11.911   9.736 -0.4078  0.1146 -0.0675
  452POPI   GL1 7129   8.352  11.792   9.381  0.1589  0.1612  0.0747
  452POPI   GL2 7130   8.607  11.764   9.294  0.3987  0.1347  0.0349
  452POPI   C1A 7131   8.102  11.909   9.116 -0.1269 -0.0051  0.0788
  452POPI   D2A 7132   7.994  11.839   8.776  0.1310 -0.1337  0.4143
  452POPI   C3A 7133   7.889  11.783   8.315 -0.0865  0.0123  0.1392
  452POPI   C4A 7134   7.853  11.717   7.897 -0.1675  0.1272  0.0189
  452POPI   C1B 7135   8.553  11.782   8.887  0.0194 -0.1865 -0.2886
  452POPI   C2B 7136   8.579  11.910   8.567  0.2989 -0.0163  0.1056
  452POPI   C3B 7137   8.541  12.092   8.272 -0.2935 -0.1238 -0.0977
  452POPI   C4B 7138   8.498  12.506   8.105 -0.0691 -0.6372 -0.2249
  453POPI    C1 7139  14.510  11.990  10.083  0.1187 -0.0483 -0.1079
  453POPI    C2 7140  14.205  11.910  10.330  0.0327  0.0249 -0.1894
  453POPI    C3 7141  14.421  12.243  10.380  0.2452 -0.1390  0.0086
  453POPI   PO4 7142  14.320  11.899   9.857  0.1917  0.1751  0.1126
  453POPI   GL1 7143  14.014  11.786   9.642 -0.0892 -0.2589  0.1808
  453POPI   GL2 7144  13.706  11.884   9.582  0.0753 -0.2613  0.0530
  453POPI   C1A 7145  14.129  11.689   9.196 -0.0824 -0.2447 -0.0381
  453POPI   D2A 7146  14.145  11.711   8.885  0.2769  0.0636  0.5317
  453POPI   C3A 7147  13.883  11.771   8.608 -0.3146 -0.1876 -0.0911
  453POPI   C4A 7148  13.449  11.833   8.630  0.0377 -0.1436  0.3019
  453POPI   C1B 7149  13.650  11.551   9.293 -0.2499 -0.0190 -0.0316
  453POPI   C2B 7150  13.805  11.354   8.996 -0.0967  0.3500 -0.3049
  453POPI   C3B 7151  14.111  11.206   8.739  0.1252  0.2382 -0.0504
  453POPI   C4B 7152  14.093  11.365   8.368 -0.2401  0.1331 -0.1796
  454POPI    C1 7153   8.464   6.451  10.309 -0.1119 -0.2041 -0.5968
  454POPI    C2 7154   8.812   6.528  10.127  0.0876 -0.0245 -0.1559
  454POPI    C3 7155   8.676   6.152  10.148  0.4717 -0.1581  0.0378
  454POPI   PO4 7156   8.323   6.638  10.155 -0.1361  0.0483  0.2307
  454POPI   GL1 7157   8.292   6.798   9.810 -0.2878  0.0085  0.4587
  454POPI   GL2 7158   8.289   7.140   9.653 -0.2628 -0.0336  0.3108
  454POPI   C1A 7159   8.368   6.653   9.416 -0.2072 -0.1693 -0.0459
  454POPI   D2A 7160   8.678   6.404   9.270  0.1979  0.0161  0.0633
  454POPI   C3A 7161   8.709   6.286   8.857  0.0717  0.1205 -0.2475
  454POPI   C4A 7162   8.666   5.919   8.566 -0.1053  0.3247  0.0764
  454POPI   C1B 7163   8.228   7.096   9.156  0.1414  0.1395 -0.0557
  454POPI   C2B 7164   8.294   6.819   8.802 -0.0806  0.3391 -0.0137
  454POPI   C3B 7165   8.544   6.708   8.454 -0.0993 -0.0071 -0.1255
  454POPI   C4B 7166   8.811   6.424   8.294 -0.2242 -0.0335  0.3126
  455POPI    C1 7167   0.744  14.276  10.195  0.0314 -0.0450  0.0845
  455POPI    C2 7168   0.480  13.976  10.220 -0.0254  0.0049  0.0866
  455POPI    C3 7169   0.792  13.991  10.471  0.0222 -0.0957  0.0339
  455POPI   PO4 7170   0.781  14.236   9.907 -0.2236 -0.0773  0.0367
  455POPI   GL1 7171   1.010  14.006   9.519 -0.2336  0.2196 -0.3682
  455POPI   GL2 7172   1.265  13.869   9.365  0.0962 -0.2519  0.1151
  455POPI   C1A 7173   0.775  14.137   9.195 -0.0983  0.0800 -0.1338
  455POPI   D2A 7174   0.755  13.908   8.866  0.0750 -0.3215 -0.0091
  455POPI   C3A 7175   0.717  14.073   8.401  0.0929  0.0040  0.3887
  455POPI   C4A 7176   0.690  14.222   8.025  0.4326  0.1888 -0.0405
  455POPI   C1B 7177   1.236  13.873   8.963 -0.0984 -0.1251  0.0340
  455POPI   C2B 7178   1.196  13.858   8.547  0.1699 -0.2740  0.2661
  455POPI   C3B 7179   1.217  13.939   8.081 -0.4366  0.0080  0.1054
  455POPI   C4B 7180   1.084  13.870   7.617  0.1198 -0.1647 -0.2574
  456POPI    C1 7181   0.377  11.815   9.981  0.0305 -0.1081  0.0598
  456POPI    C2 7182   0.326  11.441  10.113 -0.0014 -0.1150  0.0280
  456POPI    C3 7183   0.329  11.746  10.372  0.0288 -0.1377  0.0544
  456POPI   PO4 7184   0.411  11.657   9.678 -0.2710 -0.3039 -0.1549
  456POPI   GL1 7185   0.352  11.363   9.318  0.5045 -0.0623  0.0335
  456POPI   GL2 7186  -0.016  11.472   9.400 -0.1449 -0.1155 -0.1419
  456POPI   C1A 7187   0.413  11.226   8.879 -0.0167 -0.1154  0.4511
  456POPI   D2A 7188   0.228  11.117   8.556 -0.3011 -0.0056  0.2424
  456POPI   C3A 7189   0.175  10.983   8.172  0.2460  0.1001 -0.3182
  456POPI   C4A 7190   0.290  10.723   7.829 -0.0455 -0.1662  0.0078
  456POPI   C1B 7191  -0.033  11.405   8.941  0.3897  0.1384 -0.2098
  456POPI   C2B 7192  -0.158  11.348   8.576  0.0889 -0.0961 -0.0941
  456POPI   C3B 7193  -0.225  11.360   8.170  0.1417  0.0098 -0.2501
  456POPI   C4B 7194  -0.197  11.079   7.875  0.1811  0.1265  0.1904
  457POPI    C1 7195   9.926   4.501  10.315 -0.2282 -0.0651 -0.2038
  457POPI    C2 7196   9.610   4.442  10.554 -0.0326 -0.1341  0.0427
  457POPI    C3 7197   9.815   4.129  10.413  0.1101 -0.0829  0.1348
  457POPI   PO4 7198   9.846   4.677  10.094 -0.1094  0.0237 -0.2412
  457POPI   GL1 7199  10.003   4.766   9.587  0.1523  0.3956  0.1513
  457POPI   GL2 7200  10.222   4.888   9.632  0.1679  0.0472  0.1439
  457POPI   C1A 7201   9.791   4.571   9.222  0.2423 -0.1162 -0.0337
  457POPI   D2A 7202   9.896   4.453   8.731 -0.1490  0.0421  0.3125
  457POPI   C3A 7203  10.228   4.149   8.583 -0.2386  0.3640  0.2076
  457POPI   C4A 7204  10.497   4.024   8.273  0.0817  0.2503  0.0944
  457POPI   C1B 7205  10.213   4.893   9.149  0.0454  0.0136  0.2359
  457POPI   C2B 7206  10.316   4.757   8.675 -0.0886  0.1895 -0.2160
  457POPI   C3B 7207  10.346   5.014   8.323  0.0175  0.1244 -0.0392
  457POPI   C4B 7208  10.267   4.920   7.858  0.1802 -0.1085  0.2192
  458POPI    C1 7209   0.388  18.099  10.538  0.0075 -0.0711  0.0111
  458POPI    C2 7210   0.090  17.855  10.648 -0.1687  0.1177 -0.0417
  458POPI    C3 7211   0.225  18.133  10.902 -0.0294  0.0252 -0.0141
  458POPI   PO4 7212   0.575  17.927  10.401 -0.0108  0.0544  0.4199
  458POPI   GL1 7213   0.565  17.687  10.005  0.0771 -0.1254  0.0926
  458POPI   GL2 7214   0.917  17.639   9.982  0.1671 -0.2718 -0.0612
  458POPI   C1A 7215   0.479  17.981   9.686 -0.0069  0.2082 -0.0890
  458POPI   D2A 7216   0.228  17.962   9.334 -0.0510  0.2779  0.2549
  458POPI   C3A 7217   0.486  17.959   9.064 -0.1783  0.1360  0.3816
  458POPI   C4A 7218   0.653  17.820   8.758 -0.2728  0.1382 -0.0371
  458POPI   C1B 7219   0.822  17.520   9.547 -0.0827 -0.1163 -0.4373
  458POPI   C2B 7220   0.934  17.608   9.156 -0.1533  0.0257  0.0942
  458POPI   C3B 7221   1.127  17.689   8.725 -0.1754  0.0134  0.1547
  458POPI   C4B 7222   1.149  17.372   8.410 -0.1038 -0.0565 -0.1134
  459POPI    C1 7223   7.943   7.144  10.175 -0.2611 -0.1541 -0.3128
  459POPI    C2 7224   7.874   6.876  10.464 -0.2243 -0.0819 -0.2367
  459POPI    C3 7225   8.180   7.131  10.497 -0.2995  0.0140 -0.2772
  459POPI   PO4 7226   7.950   7.010   9.998  0.0792 -0.2972  0.3404
  459POPI   GL1 7227   7.546   6.818   9.695 -0.2333  0.3972  0.0253
  459POPI   GL2 7228   7.850   6.885   9.564 -0.0418 -0.0187  0.2927
  459POPI   C1A 7229   7.334   6.908   9.338 -0.3283 -0.2790 -0.3273
  459POPI   D2A 7230   7.470   7.119   8.964  0.1789 -0.0598 -0.3405
  459POPI   C3A 7231   7.717   6.935   8.612  0.1924 -0.0152 -0.2415
  459POPI   C4A 7232   8.071   6.868   8.279  0.1862  0.0360  0.1053
  459POPI   C1B 7233   7.792   6.742   9.083 -0.0698 -0.1711  0.2693
  459POPI   C2B 7234   7.771   6.513   8.789  0.2669 -0.1062 -0.2503
  459POPI   C3B 7235   7.901   6.451   8.258  0.2548 -0.1434  0.0581
  459POPI   C4B 7236   8.077   6.508   7.856 -0.1821 -0.0905 -0.0420
  460POPI    C1 7237   8.284   4.985  10.132 -0.3258  0.1498  0.0251
  460POPI    C2 7238   8.147   4.688  10.363  0.0984 -0.0005  0.0927
  460POPI    C3 7239   8.470   4.895  10.475  0.0398  0.2268 -0.1488
  460POPI   PO4 7240   8.314   4.929   9.888 -0.2516  0.0783 -0.0961
  460POPI   GL1 7241   8.062   4.908   9.456  0.2186  0.0629  0.1953
  460POPI   GL2 7242   7.940   4.660   9.394  0.1584 -0.0331 -0.1279
  460POPI   C1A 7243   8.053   5.009   9.091 -0.0717  0.0229 -0.1226
  460POPI   D2A 7244   8.016   4.949   8.761  0.0634 -0.1375 -0.0056
  460POPI   C3A 7245   8.043   5.159   8.502 -0.0582  0.1103  0.0039
  460POPI   C4A 7246   8.060   5.459   8.170 -0.1480 -0.0045 -0.0135
  460POPI   C1B 7247   7.747   4.600   9.028  0.1620  0.0167 -0.1299
  460POPI   C2B 7248   7.681   4.510   8.555 -0.2224  0.0855  0.2346
  460POPI   C3B 7249   7.805   4.369   8.127 -0.2164 -0.0632  0.1241
  460POPI   C4B 7250   8.170   4.153   7.892  0.1251  0.0999 -0.2443
  461POPI    C1 7251  15.139   6.900  10.204  0.1306 -0.0519  0.1585
  461POPI    C2 7252  15.046   6.582  10.428 -0.0820 -0.1093 -0.0075
  461POPI    C3 7253  14.776   6.871  10.371 -0.0014 -0.0560 -0.1231
  461POPI   PO4 7254  15.217   6.858  10.023 -0.1603 -0.0156 -0.2418
  461POPI   GL1 7255  15.191   6.925   9.564  0.0175  0.1559  0.0702
  461POPI   GL2 7256  15.176   6.800   9.255 -0.1826 -0.0233  0.1619
  461POPI   C1A 7257  15.543   6.409   9.378  0.2890  0.0174 -0.2347
  461POPI   D2A 7258  15.522   6.456   8.960  0.1401 -0.1525 -0.0527
  461POPI   C3A 7259  15.329   6.760   8.668 -0.2533 -0.2581  0.0894
  461POPI   C4A 7260  15.032   6.852   8.346  0.0967 -0.1765 -0.0568
  461POPI   C1B 7261  14.907   6.636   8.923 -0.0077 -0.1629  0.2158
  461POPI   C2B 7262  15.045   6.402   8.611  0.1892 -0.0746  0.3283
  461POPI   C3B 7263  14.908   6.434   8.141 -0.0485 -0.0947  0.1413
  461POPI   C4B 7264  15.087   6.277   7.689  0.0734 -0.0606 -0.2222
  462POPI    C1 7265  15.449   5.447  10.146 -0.0499 -0.1710 -0.0519
  462POPI    C2 7266  15.112   5.451  10.362  0.0256 -0.3355  0.0708
  462POPI    C3 7267  15.438   5.642  10.495 -0.0252 -0.1538 -0.0607
  462POPI   PO4 7268  15.430   5.433   9.831 -0.2710  0.1839 -0.3130
  462POPI   GL1 7269  15.263   5.624   9.533 -0.0104  0.0530 -0.1629
  462POPI   GL2 7270  15.240   5.936   9.506 -0.2258  0.1593  0.0192
  462POPI   C1A 7271  15.242   5.541   9.172  0.3704 -0.1742  0.4145
  462POPI   D2A 7272  15.523   5.525   8.823 -0.0679  0.0230 -0.1036
  462POPI   C3A 7273  15.420   5.671   8.368  0.0769 -0.0797 -0.3084
  462POPI   C4A 7274  15.329   5.889   8.070  0.0487 -0.1586  0.1780
  462POPI   C1B 7275  15.537   5.978   9.163  0.1225  0.1559 -0.0512
  462POPI   C2B 7276  15.538   5.995   8.744 -0.1170 -0.2038  0.1426
  462POPI   C3B 7277  15.463   6.253   8.399 -0.3980 -0.1591  0.1974
  462POPI   C4B 7278  15.635   6.385   7.953  0.2410  0.0687  0.2892
  463POPI    C1 7279  16.699   8.757  10.172  0.1615 -0.1381 -0.0802
  463POPI    C2 7280  17.094   8.713  10.219  0.1727 -0.1907 -0.2207
  463POPI    C3 7281  16.857   8.391  10.198  0.1036 -0.1566  0.0149
  463POPI   PO4 7282  16.644   8.861  10.005  0.3946 -0.4486 -0.0485
  463POPI   GL1 7283  16.503   8.997   9.665 -0.0722 -0.2417 -0.1792
  463POPI   GL2 7284  16.506   8.811   9.495  0.1621 -0.1004  0.1005
  463POPI   C1A 7285  16.090   9.039   9.432 -0.6479  0.1232  0.1107
  463POPI   D2A 7286  15.709   9.108   9.168 -0.0885  0.2319  0.0493
  463POPI   C3A 7287  15.373   9.364   9.103  0.0070 -0.2159  0.1728
  463POPI   C4A 7288  15.086   9.594   9.152  0.0598 -0.1366 -0.2818
  463POPI   C1B 7289  16.337   8.699   9.189  0.1104  0.0702  0.0698
  463POPI   C2B 7290  16.274   8.360   8.978  0.2242  0.1830 -0.1129
  463POPI   C3B 7291  16.295   8.173   8.602 -0.0078 -0.5285 -0.1080
  463POPI   C4B 7292  16.117   8.174   8.224 -0.0214  0.0501  0.2624
  464POPI    C1 7293  11.611  17.222  10.966  0.0816  0.0824 -0.1207
  464POPI    C2 7294  11.819  16.990  11.217  0.2385  0.1286 -0.2074
  464POPI    C3 7295  11.683  17.345  11.340 -0.1093 -0.0596 -0.0353
  464POPI   PO4 7296  11.765  17.210  10.718 -0.1550 -0.0700 -0.1425
  464POPI   GL1 7297  11.680  17.435  10.329 -0.0987 -0.1613  0.2380
  464POPI   GL2 7298  11.768  17.092  10.208  0.3203 -0.2435 -0.0858
  464POPI   C1A 7299  11.684  17.641   9.984  0.0291  0.4037 -0.1244
  464POPI   D2A 7300  11.806  17.714   9.658 -0.0367 -0.0012 -0.0053
  464POPI   C3A 7301  12.060  17.530   9.459 -0.0345  0.1180 -0.0452
  464POPI   C4A 7302  12.196  17.316   9.146 -0.1826  0.1253  0.1725
  464POPI   C1B 7303  11.501  17.209   9.903  0.0293  0.1503  0.1759
  464POPI   C2B 7304  11.172  17.189   9.580 -0.0819 -0.3006  0.0978
  464POPI   C3B 7305  10.733  17.190   9.577 -0.1709  0.1951  0.0295
  464POPI   C4B 7306  10.555  17.254   9.895  0.0080  0.4602  0.0393
  465POPI    C1 7307   8.149   2.013  10.548 -0.0306  0.0004 -0.2351
  465POPI    C2 7308   8.291   1.682  10.722 -0.1676 -0.0340 -0.1873
  465POPI    C3 7309   8.539   1.984  10.633 -0.0313 -0.1741 -0.2883
  465POPI   PO4 7310   8.075   1.855  10.351 -0.1530 -0.2316 -0.0679
  465POPI   GL1 7311   7.918   1.615   9.997  0.4931 -0.4790  0.1506
  465POPI   GL2 7312   7.680   1.757   9.899 -0.2167 -0.0154  0.0416
  465POPI   C1A 7313   7.912   1.565   9.491 -0.1083  0.1362  0.3522
  465POPI   D2A 7314   8.080   1.324   9.072  0.0206  0.0596 -0.1736
  465POPI   C3A 7315   8.209   1.213   8.716  0.0302  0.0141 -0.1177
  465POPI   C4A 7316   8.113   1.301   8.241  0.1321  0.3015  0.0578
  465POPI   C1B 7317   7.480   1.780   9.460 -0.1356 -0.0095  0.1060
  465POPI   C2B 7318   7.663   1.746   9.073  0.0546  0.1117  0.1588
  465POPI   C3B 7319   7.800   1.566   8.684  0.0161 -0.0817 -0.0033
  465POPI   C4B 7320   7.698   1.703   8.181 -0.0384  0.0761 -0.4281
  466POPI    C1 7321  11.293  13.543  10.598  0.1388 -0.1311  0.1055
  466POPI    C2 7322  11.585  13.675  10.837  0.2103 -0.0890 -0.0038
  466POPI    C3 7323  11.537  13.283  10.778  0.1660 -0.1015  0.1115
  466POPI   PO4 7324  11.327  13.665  10.374 -0.1830  0.0518  0.0383
  466POPI   GL1 7325  11.506  13.610   9.975  0.2535 -0.4089 -0.1855
  466POPI   GL2 7326  11.516  13.915   9.810 -0.0092  0.3073 -0.0296
  466POPI   C1A 7327  11.467  13.490   9.504 -0.3179  0.2667 -0.0269
  466POPI   D2A 7328  11.511  13.241   9.161 -0.2359  0.1720 -0.0690
  466POPI   C3A 7329  11.717  13.421   8.792  0.0643  0.3195  0.0962
  466POPI   C4A 7330  11.761  13.670   8.386  0.0403 -0.0732  0.0715
  466POPI   C1B 7331  11.532  13.960   9.300 -0.2647  0.3165  0.0647
  466POPI   C2B 7332  11.402  13.744   8.996  0.1566 -0.0783 -0.0506
  466POPI   C3B 7333  11.250  13.557   8.672 -0.1554  0.2049 -0.2071
  466POPI   C4B 7334  11.075  13.456   8.293 -0.0140  0.0659 -0.2328
  467POPI    C1 7335   7.851   8.101  10.190  0.1714  0.0703  0.0539
  467POPI    C2 7336   8.113   8.046  10.487  0.0572 -0.0826  0.1274
  467POPI    C3 7337   7.732   8.136  10.571 -0.0105 -0.2753  0.0322
  467POPI   PO4 7338   7.963   7.962   9.993 -0.3966  0.1396 -0.0936
  467POPI   GL1 7339   8.003   7.555   9.831  0.1652 -0.2204 -0.2515
  467POPI   GL2 7340   7.758   7.394   9.792 -0.0417 -0.0768  0.0235
  467POPI   C1A 7341   8.287   7.600   9.473 -0.0748 -0.0067 -0.0068
  467POPI   D2A 7342   8.544   7.484   9.152  0.3201 -0.0706 -0.3270
  467POPI   C3A 7343   8.461   7.388   8.800  0.1740  0.4407 -0.1519
  467POPI   C4A 7344   8.455   7.252   8.408  0.1603 -0.2635 -0.1954
  467POPI   C1B 7345   7.855   7.388   9.364  0.2097 -0.2976  0.1711
  467POPI   C2B 7346   7.932   7.408   8.919 -0.0047  0.0094 -0.0378
  467POPI   C3B 7347   7.961   7.366   8.504  0.0335  0.1115 -0.0302
  467POPI   C4B 7348   7.885   7.346   8.065  0.2068  0.0892 -0.0746
  468POPI    C1 7349  18.228   2.406  10.268  0.1552  0.1327  0.0711
  468POPI    C2 7350  17.877   2.480  10.092  0.2046  0.0991 -0.0426
  468POPI    C3 7351  17.969   2.658  10.438 -0.0750 -0.1682  0.1752
  468POPI   PO4 7352  18.390   2.382  10.061  0.0785 -0.1555  0.2631
  468POPI   GL1 7353  18.535   2.238   9.724 -0.1009 -0.0871  0.0425
  468POPI   GL2 7354  18.309   2.180   9.493 -0.1486  0.1318  0.0356
  468POPI   C1A 7355  18.721   2.647   9.587 -0.0090 -0.0908 -0.1562
  468POPI   D2A 7356  18.905   2.691   9.140  0.2966 -0.0349 -0.2437
  468POPI   C3A 7357  18.600   2.707   8.807 -0.3033 -0.0799 -0.0422
  468POPI   C4A 7358  18.238   2.890   8.668 -0.0943  0.0725  0.0655
  468POPI   C1B 7359  18.571   2.343   9.159 -0.3519  0.0857 -0.0893
  468POPI   C2B 7360  18.732   2.243   8.761 -0.0475 -0.0594  0.0028
  468POPI   C3B 7361  18.602   2.452   8.368 -0.1362 -0.2485  0.1611
  468POPI   C4B 7362  18.275   2.461   8.181 -0.0417 -0.3077  0.0155
  469POPI    C1 7363   9.812  10.968  10.258 -0.1040 -0.0797 -0.0646
  469POPI    C2 7364  10.156  10.968  10.464 -0.0787  0.0885 -0.1054
  469POPI    C3 7365   9.810  11.040  10.652 -0.1234 -0.3349 -0.0165
  469POPI   PO4 7366   9.840  10.733  10.176  0.1087 -0.1617  0.0498
  469POPI   GL1 7367   9.998  10.684   9.750 -0.0754 -0.1803  0.1879
  469POPI   GL2 7368  10.048  11.015   9.741 -0.2344  0.1446 -0.2464
  469POPI   C1A 7369  10.030  10.591   9.308 -0.0982 -0.0646 -0.0778
  469POPI   D2A 7370   9.998  10.534   8.884  0.1366  0.1099  0.1355
  469POPI   C3A 7371   9.997  10.498   8.421  0.3302 -0.2250 -0.0978
  469POPI   C4A 7372   9.958  10.282   7.939  0.1070 -0.0146 -0.1054
  469POPI   C1B 7373  10.014  11.058   9.345  0.1321  0.0354 -0.0874
  469POPI   C2B 7374  10.115  11.021   8.987 -0.1300  0.0539 -0.3080
  469POPI   C3B 7375  10.198  10.894   8.611 -0.1108 -0.0441  0.0733
  469POPI   C4B 7376  10.400  10.726   8.198 -0.0585  0.1276 -0.2112
  470POPI    C1 7377   5.623   8.404  10.452  0.0713 -0.0032 -0.0287
  470POPI    C2 7378   5.871   8.499  10.751 -0.0159 -0.1027  0.0756
  470POPI    C3 7379   5.527   8.699  10.705  0.0386 -0.0286 -0.0115
  470POPI   PO4 7380   5.740   8.384  10.266  0.1849  0.1142 -0.1559
  470POPI   GL1 7381   6.030   8.422   9.883 -0.1577 -0.1397  0.3655
  470POPI   GL2 7382   5.766   8.526   9.740 -0.1793 -0.0848  0.0579
  470POPI   C1A 7383   6.424   8.236   9.903 -0.2082 -0.4136  0.0475
  470POPI   D2A 7384   6.583   8.048   9.675 -0.2637 -0.0782  0.1618
  470POPI   C3A 7385   6.428   7.800   9.291 -0.2162  0.0846 -0.1677
  470POPI   C4A 7386   6.437   7.579   8.835  0.1108 -0.2332 -0.2555
  470POPI   C1B 7387   5.630   8.462   9.386 -0.2057 -0.2322  0.0865
  470POPI   C2B 7388   5.645   8.444   8.930  0.2422  0.1187 -0.0684
  470POPI   C3B 7389   5.899   8.214   8.507 -0.1941  0.0984  0.1192
  470POPI   C4B 7390   5.959   7.914   8.099 -0.1632  0.1428  0.1929
  471POPI    C1 7391   7.801   3.037  10.283 -0.1429  0.0168 -0.1205
  471POPI    C2 7392   7.851   2.942  10.668  0.1670 -0.2407 -0.2197
  471POPI    C3 7393   7.486   3.029  10.529  0.0634 -0.0727  0.1452
  471POPI   PO4 7394   8.057   2.985  10.224  0.3476 -0.0061 -0.4458
  471POPI   GL1 7395   8.272   3.091   9.852 -0.1970  0.1925 -0.1293
  471POPI   GL2 7396   8.204   3.159   9.566  0.2963  0.0573 -0.2332
  471POPI   C1A 7397   8.592   2.785   9.626 -0.2358 -0.1085 -0.0970
  471POPI   D2A 7398   8.649   2.283   9.691 -0.2351 -0.0236  0.1493
  471POPI   C3A 7399   8.726   2.209   9.273 -0.0652 -0.1890  0.0017
  471POPI   C4A 7400   8.635   2.147   8.846  0.2075  0.0690 -0.0927
  471POPI   C1B 7401   8.320   3.033   9.170  0.1304  0.0194 -0.1040
  471POPI   C2B 7402   8.626   2.772   9.086 -0.1290 -0.1492  0.0594
  471POPI   C3B 7403   9.019   2.612   9.370  0.1362  0.3967  0.0796
  471POPI   C4B 7404   9.354   2.677   9.596 -0.0973  0.0293 -0.2940
  472POPI    C1 7405  13.794   8.066   9.984  0.1726  0.1623 -0.0495
  472POPI    C2 7406  14.037   7.851  10.218  0.0299 -0.0903 -0.1290
  472POPI    C3 7407  13.730   8.051  10.379  0.2168  0.1337 -0.0433
  472POPI   PO4 7408  13.958   8.230   9.784  0.1314 -0.0079  0.0312
  472POPI   GL1 7409  14.228   8.224   9.510 -0.1056 -0.1350  0.0238
  472POPI   GL2 7410  14.115   7.952   9.319  0.0429  0.1583 -0.0973
  472POPI   C1A 7411  14.150   8.654   9.349  0.1055 -0.0339 -0.1163
  472POPI   D2A 7412  14.169   9.085   9.163 -0.0313  0.4190  0.1326
  472POPI   C3A 7413  13.936   9.200   8.689  0.1444 -0.0053  0.1684
  472POPI   C4A 7414  13.992   9.529   8.389  0.0286  0.1001  0.1154
  472POPI   C1B 7415  13.842   7.667   9.005 -0.0780 -0.0736  0.2858
  472POPI   C2B 7416  13.806   7.647   8.571 -0.0114 -0.0129 -0.4652
  472POPI   C3B 7417  13.881   7.652   8.160 -0.1557  0.0844 -0.2152
  472POPI   C4B 7418  13.749   7.815   7.779  0.1096  0.2574 -0.0508
  473DPPI    C1 7419  12.150  13.194  10.108  0.1786 -0.0685  0.2259
  473DPPI    C2 7420  12.515  13.038  10.054  0.1517 -0.0101 -0.1527
  473DPPI    C3 7421  12.214  12.931   9.813 -0.0443  0.0654  0.0551
  473DPPI   PO4 7422  12.144  13.377  10.045 -0.1321 -0.2689 -0.1740
  473DPPI   GL1 7423  11.893  13.459   9.730  0.1421 -0.3836 -0.1488
  473DPPI   GL2 7424  11.705  13.160   9.761 -0.0136 -0.0154  0.1211
  473DPPI   C1A 7425  11.983  13.617   9.377  0.0503 -0.2453 -0.1781
  473DPPI   C2A 7426  12.142  13.566   9.055  0.3474 -0.0773  0.0520
  473DPPI   C3A 7427  12.240  13.686   8.612 -0.0457  0.2431  0.1514
  473DPPI   C4A 7428  12.152  13.950   8.253  0.1744 -0.1196  0.0262
  473DPPI   C1B 7429  11.976  13.108   9.328 -0.0713 -0.2040  0.1306
  473DPPI   C2B 7430  12.071  13.056   8.790 -0.2193  0.1432 -0.1353
  473DPPI   C3B 7431  11.976  13.012   8.393 -0.0248  0.1136  0.1643
  473DPPI   C4B 7432  11.572  13.180   8.167  0.0603 -0.1756 -0.2020
  474DPPI    C1 7433   9.087  12.116  10.409  0.0523 -0.0237  0.0708
  474DPPI    C2 7434   9.477  12.030  10.386  0.0825  0.0843  0.1712
  474DPPI    C3 7435   9.228  11.779  10.572  0.0371 -0.1833 -0.2384
  474DPPI   PO4 7436   8.950  12.111  10.174  0.2129 -0.0748  0.0921
  474DPPI   GL1 7437   8.953  12.357   9.752  0.1428 -0.0254  0.0094
  474DPPI   GL2 7438   9.252  12.413   9.607 -0.1520 -0.0579 -0.2605
  474DPPI   C1A 7439   8.820  12.528   9.407  0.3386 -0.2493 -0.3306
  474DPPI   C2A 7440   8.607  12.744   9.036  0.1180 -0.0407  0.3690
  474DPPI   C3A 7441   8.406  12.829   8.710  0.1489  0.0065  0.0998
  474DPPI   C4A 7442   8.170  12.820   8.312  0.0421 -0.0104 -0.1282
  474DPPI   C1B 7443   9.385  12.355   9.242  0.0680 -0.0539  0.2510
  474DPPI   C2B 7444   9.448  12.408   8.768  0.1853  0.1151 -0.0503
  474DPPI   C3B 7445   9.401  12.474   8.426 -0.1611 -0.2180 -0.0964
  474DPPI   C4B 7446   9.375  12.501   7.872  0.0635  0.2834  0.1656
  475DPPI    C1 7447   8.042  13.943  10.442  0.1839  0.1466  0.0541
  475DPPI    C2 7448   7.971  13.651  10.706  0.0864  0.1396  0.0204
  475DPPI    C3 7449   8.013  14.028  10.831  0.0892  0.1291  0.0511
  475DPPI   PO4 7450   7.871  13.775  10.253 -0.2370  0.0279  0.1567
  475DPPI   GL1 7451   7.779  13.744   9.827 -0.0528 -0.2244 -0.4168
  475DPPI   GL2 7452   7.986  13.810   9.596  0.0189 -0.0709  0.0231
  475DPPI   C1A 7453   7.768  13.327   9.586 -0.2283 -0.1091  0.0386
  475DPPI   C2A 7454   7.664  13.128   9.263  0.3275 -0.1777 -0.1313
  475DPPI   C3A 7455   7.524  13.193   8.861  0.2849  0.4307 -0.4125
  475DPPI   C4A 7456   7.591  13.203   8.363 -0.0477 -0.0522 -0.0495
  475DPPI   C1B 7457   7.868  13.780   9.223 -0.0129 -0.1556 -0.4365
  475DPPI   C2B 7458   7.747  13.616   8.851 -0.2985  0.2150 -0.2000
  475DPPI   C3B 7459   7.855  13.758   8.424  0.0262  0.0159 -0.2477
  475DPPI   C4B 7460   8.021  13.838   8.021 -0.1831 -0.0332  0.3089
  476DPPI    C1 7461   9.123  17.423  10.765 -0.0699  0.4194  0.1171
  476DPPI    C2 7462   9.459  17.213  10.816 -0.2271  0.0813 -0.1920
  476DPPI    C3 7463   9.273  17.372  11.132  0.0659  0.0268  0.0121
  476DPPI   PO4 7464   8.956  17.225  10.547 -0.1337  0.0623 -0.0877
  476DPPI   GL1 7465   9.077  17.085  10.104 -0.3166 -0.1970  0.3046
  476DPPI   GL2 7466   8.811  17.058  10.072 -0.0389  0.0345 -0.0279
  476DPPI   C1A 7467   9.335  17.235   9.783  0.0459 -0.0914  0.2133
  476DPPI   C2A 7468   9.351  17.317   9.372 -0.1436  0.0732 -0.1373
  476DPPI   C3A 7469   9.387  17.385   8.797  0.5153 -0.0394 -0.2551
  476DPPI   C4A 7470   9.673  17.406   8.492  0.0405 -0.1748  0.0173
  476DPPI   C1B 7471   8.899  17.082   9.605 -0.1043  0.0490 -0.1824
  476DPPI   C2B 7472   8.943  17.159   9.152  0.0476 -0.1040 -0.1259
  476DPPI   C3B 7473   8.904  17.271   8.681 -0.1822 -0.0722 -0.4357
  476DPPI   C4B 7474   9.155  17.268   8.334 -0.1870  0.3218  0.0316
  477DPPI    C1 7475   5.142  10.948  10.186  0.0654  0.0363 -0.0602
  477DPPI    C2 7476   4.820  10.753  10.321  0.0699 -0.0194 -0.1289
  477DPPI    C3 7477   4.915  11.111  10.472  0.0965 -0.0978  0.0424
  477DPPI   PO4 7478   5.260  10.774   9.990  0.0907 -0.0149  0.0331
  477DPPI   GL1 7479   5.152  10.669   9.630  0.0356  0.2669 -0.0174
  477DPPI   GL2 7480   5.138  10.361   9.633 -0.1342  0.3077 -0.0606
  477DPPI   C1A 7481   5.093  10.648   9.153  0.1835 -0.0867 -0.1542
  477DPPI   C2A 7482   5.362  10.271   8.846 -0.2017  0.0346  0.0833
  477DPPI   C3A 7483   5.422  10.237   8.398  0.1613  0.1430 -0.0086
  477DPPI   C4A 7484   5.380  10.181   7.950  0.3791  0.2987  0.0593
  477DPPI   C1B 7485   5.303  10.086   9.432  0.0082 -0.1785  0.0275
  477DPPI   C2B 7486   5.420   9.820   9.087  0.1870 -0.0297 -0.0002
  477DPPI   C3B 7487   5.526   9.745   8.627  0.2576  0.2405 -0.2746
  477DPPI   C4B 7488   5.508   9.702   8.123 -0.2019  0.1231  0.0184
  478DPPI    C1 7489  14.865   3.189  10.153 -0.1740 -0.0065 -0.2392
  478DPPI    C2 7490  14.531   3.190  10.373  0.0852  0.3812  0.1722
  478DPPI    C3 7491  14.864   3.021  10.516  0.1325  0.2052 -0.1355
  478DPPI   PO4 7492  14.833   3.057   9.893 -0.1660 -0.0394  0.0512
  478DPPI   GL1 7493  14.796   3.162   9.534 -0.0662 -0.0756  0.1384
  478DPPI   GL2 7494  14.524   2.899   9.411 -0.2596  0.2995 -0.0685
  478DPPI   C1A 7495  14.835   3.260   9.064 -0.0276 -0.2453 -0.1675
  478DPPI   C2A 7496  14.752   3.219   8.569  0.0299 -0.1547  0.1193
  478DPPI   C3A 7497  14.796   3.273   8.106 -0.1248  0.1315  0.2190
  478DPPI   C4A 7498  14.939   3.468   7.803  0.1528 -0.0114  0.0723
  478DPPI   C1B 7499  14.304   2.956   9.102  0.0052 -0.0997  0.1915
  478DPPI   C2B 7500  14.317   3.286   8.738  0.2621 -0.1286  0.1042
  478DPPI   C3B 7501  14.328   3.358   8.345  0.1059  0.0440 -0.3678
  478DPPI   C4B 7502  14.217   3.467   7.981 -0.2321 -0.0137 -0.0702
  479DPPI    C1 7503  15.881  11.355  10.191 -0.0422  0.1327 -0.0213
  479DPPI    C2 7504  15.573  11.201   9.988 -0.0685  0.0477  0.0821
  479DPPI    C3 7505  15.598  11.148  10.384  0.0894  0.0368  0.0711
  479DPPI   PO4 7506  16.062  11.304  10.028  0.0848  0.4822 -0.2720
  479DPPI   GL1 7507  16.080  11.057   9.746  0.0431  0.3383  0.1580
  479DPPI   GL2 7508  16.454  11.169   9.719 -0.1292 -0.1151  0.2618
  479DPPI   C1A 7509  15.741  11.214   9.536 -0.1717 -0.0955  0.0031
  479DPPI   C2A 7510  15.376  11.183   9.282 -0.0240  0.0544 -0.1261
  479DPPI   C3A 7511  15.256  11.189   8.947 -0.0335 -0.3310  0.3547
  479DPPI   C4A 7512  15.192  11.204   8.390 -0.1877 -0.0630  0.0199
  479DPPI   C1B 7513  16.188  11.159   9.260  0.2531  0.4233 -0.1016
  479DPPI   C2B 7514  15.765  11.154   9.009 -0.1345 -0.0595  0.1211
  479DPPI   C3B 7515  15.662  11.215   8.663 -0.2300 -0.1085 -0.1698
  479DPPI   C4B 7516  15.749  11.183   8.221  0.0976  0.2126  0.0659
  480DPPI    C1 7517  10.113   2.830  10.425 -0.0227  0.0701  0.2236
  480DPPI    C2 7518   9.976   2.454  10.439  0.0925  0.0211  0.0739
  480DPPI    C3 7519   9.844   2.726  10.702  0.0207 -0.1275  0.1931
  480DPPI   PO4 7520  10.025   2.863  10.110  0.0270 -0.0263 -0.2199
  480DPPI   GL1 7521  10.169   2.872   9.697  0.0472  0.3470 -0.1609
  480DPPI   GL2 7522  10.304   3.132   9.728  0.3329 -0.0301 -0.0436
  480DPPI   C1A 7523  10.170   2.420   9.438 -0.3960 -0.2909 -0.2176
  480DPPI   C2A 7524  10.411   2.333   9.141 -0.1711 -0.1411  0.0949
  480DPPI   C3A 7525  10.309   2.362   8.698 -0.1883 -0.1437  0.0378
  480DPPI   C4A 7526  10.028   2.307   8.384  0.0816 -0.1988 -0.3260
  480DPPI   C1B 7527  10.069   3.113   9.283 -0.0392  0.0529  0.1920
  480DPPI   C2B 7528   9.705   2.896   9.226 -0.0204  0.5678  0.0657
  480DPPI   C3B 7529   9.327   2.661   8.955  0.4080  0.0074  0.4653
  480DPPI   C4B 7530   9.100   2.363   8.936 -0.3727 -0.0909 -0.2528
  481DPPI    C1 7531  12.045   5.310  10.144 -0.1401  0.1097 -0.1079
  481DPPI    C2 7532  11.810   5.581  10.322 -0.0393  0.1149  0.0184
  481DPPI    C3 7533  12.190   5.537  10.440  0.0118  0.0778 -0.1572
  481DPPI   PO4 7534  12.070   5.336   9.852 -0.1795  0.0965  0.1284
  481DPPI   GL1 7535  11.993   5.427   9.461 -0.1192  0.0893 -0.0918
  481DPPI   GL2 7536  12.066   5.718   9.333  0.0492 -0.1968 -0.4122
  481DPPI   C1A 7537  12.195   5.365   9.026  0.0332 -0.0027  0.0430
  481DPPI   C2A 7538  12.259   5.518   8.645  0.0174  0.1034 -0.0612
  481DPPI   C3A 7539  12.018   5.321   8.242 -0.0188 -0.3336 -0.1697
  481DPPI   C4A 7540  11.694   5.107   7.970  0.0633  0.3136 -0.1064
  481DPPI   C1B 7541  12.096   5.998   9.014  0.0188  0.2078 -0.1278
  481DPPI   C2B 7542  11.954   6.078   8.575  0.1031  0.0280  0.0823
  481DPPI   C3B 7543  11.826   6.128   8.078  0.2197 -0.0875  0.3304
  481DPPI   C4B 7544  11.610   6.456   7.712  0.0726  0.0444  0.1224
  482DPPI    C1 7545   5.484   6.372  10.397 -0.0605 -0.2647  0.0718
  482DPPI    C2 7546   5.767   6.094  10.350 -0.2360 -0.4300 -0.0182
  482DPPI    C3 7547   5.787   6.349  10.657  0.2404 -0.1610 -0.2619
  482DPPI   PO4 7548   5.405   6.530  10.127  0.0004 -0.0012  0.0656
  482DPPI   GL1 7549   5.395   6.566   9.699 -0.1688  0.1550 -0.2058
  482DPPI   GL2 7550   5.308   6.310   9.662 -0.2066  0.0082  0.1314
  482DPPI   C1A 7551   5.098   6.704   9.343  0.2145 -0.1278  0.2237
  482DPPI   C2A 7552   4.943   6.873   8.933  0.1987 -0.3358 -0.0491
  482DPPI   C3A 7553   4.839   6.771   8.483  0.0857 -0.2218 -0.0015
  482DPPI   C4A 7554   4.897   6.445   8.209  0.2701  0.2147 -0.1051
  482DPPI   C1B 7555   5.460   6.265   9.192 -0.0135 -0.0631 -0.1301
  482DPPI   C2B 7556   5.691   6.239   8.932  0.0075 -0.1793  0.0963
  482DPPI   C3B 7557   5.968   6.196   8.472 -0.2846 -0.3449 -0.0540
  482DPPI   C4B 7558   5.981   6.344   8.101  0.0998 -0.0388  0.1428
  483DPPI    C1 7559  11.917  14.033  10.609  0.1845 -0.3137  0.0686
  483DPPI    C2 7560  11.816  14.148  10.979  0.1017 -0.1797  0.0050
  483DPPI    C3 7561  12.124  13.898  10.924  0.3783  0.1246  0.1363
  483DPPI   PO4 7562  11.860  14.314  10.425 -0.0899 -0.0932  0.0298
  483DPPI   GL1 7563  11.836  14.310  10.042  0.0331  0.1374  0.0488
  483DPPI   GL2 7564  11.818  14.649   9.830 -0.0610 -0.5030 -0.1748
  483DPPI   C1A 7565  11.962  14.105   9.593  0.2447 -0.0136 -0.0058
  483DPPI   C2A 7566  12.018  14.103   9.139  0.2560  0.5447  0.0894
  483DPPI   C3A 7567  11.789  14.142   8.628  0.2687  0.2074 -0.1640
  483DPPI   C4A 7568  11.746  14.090   8.106 -0.0847 -0.0968 -0.1630
  483DPPI   C1B 7569  11.708  14.505   9.394  0.1196  0.1006 -0.1460
  483DPPI   C2B 7570  11.614  14.599   8.967 -0.1026 -0.0285  0.1394
  483DPPI   C3B 7571  11.617  14.678   8.501  0.0590 -0.1756  0.0521
  483DPPI   C4B 7572  11.288  14.550   8.242 -0.2644  0.0768  0.0462
  484DPPI    C1 7573   9.089   0.203  10.407  0.2376  0.0701  0.1364
  484DPPI    C2 7574   9.006   0.404  10.743 -0.1786  0.1151  0.0124
  484DPPI    C3 7575   8.976   0.005  10.735  0.2534  0.0745  0.1445
  484DPPI   PO4 7576   8.926   0.271  10.200 -0.0172 -0.0677  0.2033
  484DPPI   GL1 7577   8.683   0.246   9.868  0.2973 -0.0990 -0.1426
  484DPPI   GL2 7578   8.504   0.221   9.849 -0.1911  0.1015  0.1414
  484DPPI   C1A 7579   8.770   0.169   9.431 -0.1575 -0.1285  0.1673
  484DPPI   C2A 7580   8.866   0.184   8.901 -0.0298 -0.0074 -0.3563
  484DPPI   C3A 7581   8.770   0.226   8.470 -0.1159 -0.1463 -0.1226
  484DPPI   C4A 7582   8.475   0.459   8.202  0.2566  0.1320  0.1737
  484DPPI   C1B 7583   8.494  -0.182   9.752 -0.0718 -0.1086 -0.0795
  484DPPI   C2B 7584   8.636  -0.413   9.466  0.2213  0.0509 -0.0895
  484DPPI   C3B 7585   8.746  -0.452   9.042 -0.1211 -0.0872  0.0442
  484DPPI   C4B 7586   8.465  -0.805   8.713 -0.2449 -0.0375  0.0230
  485DPPI    C1 7587  17.593  18.132  10.343 -0.0505 -0.1431 -0.1618
  485DPPI    C2 7588  17.359  18.206  10.659 -0.0849 -0.0006 -0.2198
  485DPPI    C3 7589  17.273  18.368  10.303  0.2699  0.3032 -0.1745
  485DPPI   PO4 7590  17.646  17.870  10.227 -0.0937  0.1467 -0.2056
  485DPPI   GL1 7591  17.545  17.704   9.923 -0.0340  0.3302  0.1317
  485DPPI   GL2 7592  17.372  17.650   9.615 -0.3861 -0.0528 -0.2219
  485DPPI   C1A 7593  17.837  17.850   9.554 -0.0660 -0.1035 -0.2927
  485DPPI   C2A 7594  17.815  17.823   9.093  0.3240  0.1741 -0.1515
  485DPPI   C3A 7595  18.154  17.891   8.722 -0.0223  0.3836 -0.0746
  485DPPI   C4A 7596  18.215  18.062   8.370 -0.0868  0.1644 -0.1112
  485DPPI   C1B 7597  17.363  17.550   9.187  0.1054  0.1741 -0.0308
  485DPPI   C2B 7598  17.150  17.405   8.850  0.0594  0.0231  0.0901
  485DPPI   C3B 7599  16.965  17.464   8.488 -0.0436  0.2704  0.3932
  485DPPI   C4B 7600  16.849  17.656   8.196 -0.0530  0.0951 -0.0367
  486DPPI    C1 7601   2.627   2.924  10.204  0.1303  0.0145  0.0814
  486DPPI    C2 7602   2.798   3.153  10.484  0.0590  0.0320  0.1108
  486DPPI    C3 7603   2.860   2.758  10.483 -0.0282  0.0177  0.2177
  486DPPI   PO4 7604   2.588   3.096  10.039 -0.0383  0.0909 -0.1030
  486DPPI   GL1 7605   2.740   2.823   9.656  0.1092 -0.4750  0.1393
  486DPPI   GL2 7606   3.073   2.877   9.795  0.0662 -0.1617  0.1042
  486DPPI   C1A 7607   2.743   2.825   9.252  0.0552  0.1803 -0.0328
  486DPPI   C2A 7608   2.906   3.028   8.810 -0.0211  0.1355  0.2828
  486DPPI   C3A 7609   2.682   3.292   8.549  0.0883 -0.2512 -0.0327
  486DPPI   C4A 7610   2.717   3.670   8.200  0.0729  0.2944  0.0714
  486DPPI   C1B 7611   3.210   2.703   9.389 -0.0005  0.0075 -0.0329
  486DPPI   C2B 7612   3.224   2.662   8.959  0.1594  0.1331  0.1782
  486DPPI   C3B 7613   3.465   2.830   8.595 -0.3088 -0.0032  0.2052
  486DPPI   C4B 7614   3.597   2.966   8.173  0.0220  0.0772 -0.1130
  487DPPI    C1 7615   9.416  12.779   9.899 -0.0417  0.0149 -0.0001
  487DPPI    C2 7616   9.299  12.488  10.147 -0.0657  0.0406  0.0189
  487DPPI    C3 7617   9.035  12.760  10.018 -0.0525  0.0294 -0.0321
  487DPPI   PO4 7618   9.606  13.007  10.028 -0.1721 -0.0344 -0.1038
  487DPPI   GL1 7619   9.928  13.172   9.673 -0.0158 -0.0764  0.1300
  487DPPI   GL2 7620   9.659  13.253   9.582 -0.2318 -0.2119 -0.0598
  487DPPI   C1A 7621   9.993  13.364   9.257  0.0256 -0.1828 -0.0441
  487DPPI   C2A 7622   9.858  13.507   8.888 -0.4154 -0.0141 -0.1550
  487DPPI   C3A 7623   9.660  13.481   8.459  0.1342 -0.1477 -0.1186
  487DPPI   C4A 7624   9.529  13.443   8.042 -0.3938  0.0805  0.0242
  487DPPI   C1B 7625   9.431  13.396   9.214  0.0434 -0.1688 -0.1155
  487DPPI   C2B 7626   9.317  13.409   8.791  0.1911  0.4875 -0.1454
  487DPPI   C3B 7627   9.135  13.560   8.393 -0.2136 -0.1483 -0.3671
  487DPPI   C4B 7628   9.002  13.535   8.021  0.0289  0.2244  0.3650
  488DPPI    C1 7629  10.140   5.772  10.292 -0.0676 -0.0375  0.0510
  488DPPI    C2 7630  10.280   6.109  10.455 -0.1850  0.1092 -0.1461
  488DPPI    C3 7631  10.449   5.758  10.545  0.0074  0.2314 -0.0221
  488DPPI   PO4 7632  10.035   5.891  10.108 -0.0151  0.2084  0.2124
  488DPPI   GL1 7633  10.053   6.135   9.678 -0.0027 -0.0337 -0.5956
  488DPPI   GL2 7634  10.422   6.000   9.650  0.1006  0.0370 -0.2190
  488DPPI   C1A 7635  10.121   6.426   9.368 -0.1202  0.2037 -0.0087
  488DPPI   C2A 7636  10.227   6.440   8.925  0.3381  0.1173 -0.0663
  488DPPI   C3A 7637  10.381   6.396   8.420  0.0001  0.0799 -0.0385
  488DPPI   C4A 7638  10.574   6.507   8.026  0.0977 -0.0951  0.2369
  488DPPI   C1B 7639  10.285   5.942   9.242 -0.0104  0.2872  0.0738
  488DPPI   C2B 7640  10.213   5.944   8.775 -0.0080  0.0565  0.0037
  488DPPI   C3B 7641  10.179   5.957   8.365 -0.0245  0.1135  0.0452
  488DPPI   C4B 7642  10.159   5.754   7.999 -0.1904  0.0454 -0.2448
  489DPPI    C1 7643   0.780   4.918  10.536 -0.0376 -0.1695  0.1679
  489DPPI    C2 7644   0.397   5.020  10.486  0.0519  0.1610  0.1283
  489DPPI    C3 7645   0.559   5.025  10.851 -0.0222 -0.1391  0.1684
  489DPPI   PO4 7646   0.967   5.031  10.336  0.0124  0.3199 -0.0834
  489DPPI   GL1 7647   0.985   5.269   9.904 -0.2096 -0.0383  0.0638
  489DPPI   GL2 7648   1.087   5.017   9.797  0.1997  0.3648  0.0960
  489DPPI   C1A 7649   1.104   5.448   9.485  0.2570 -0.0256  0.2639
  489DPPI   C2A 7650   1.150   5.491   9.061 -0.0370 -0.0882  0.0075
  489DPPI   C3A 7651   1.131   5.317   8.622 -0.2358 -0.0466 -0.4702
  489DPPI   C4A 7652   1.279   5.423   8.210 -0.1479  0.1698 -0.2807
  489DPPI   C1B 7653   1.277   4.981   9.336  0.0795  0.2194 -0.1707
  489DPPI   C2B 7654   1.222   4.888   8.864  0.0195  0.3846 -0.2165
  489DPPI   C3B 7655   1.180   4.625   8.584  0.1083  0.0972  0.0291
  489DPPI   C4B 7656   1.283   4.229   8.341 -0.2130  0.1907  0.0220
  490DPPI    C1 7657  11.220  13.211  10.175  0.2570  0.0785  0.1485
  490DPPI    C2 7658  11.303  12.993  10.500  0.1121  0.1342  0.2236
  490DPPI    C3 7659  10.966  13.209  10.484  0.1172  0.1294  0.0351
  490DPPI   PO4 7660  11.216  13.004   9.967 -0.1633  0.0851  0.3807
  490DPPI   GL1 7661  10.836  13.044   9.788 -0.1095 -0.3218  0.0278
  490DPPI   GL2 7662  10.628  13.077   9.549 -0.3707  0.2573 -0.0356
  490DPPI   C1A 7663  11.080  13.242   9.400  0.0130  0.3857 -0.0043
  490DPPI   C2A 7664  11.032  13.247   8.995  0.1872  0.1235  0.0562
  490DPPI   C3A 7665  10.792  13.301   8.676  0.0994 -0.0435 -0.0468
  490DPPI   C4A 7666  10.566  13.456   8.400  0.1196 -0.2247  0.1518
  490DPPI   C1B 7667  10.500  13.379   9.243 -0.0487  0.0096 -0.0090
  490DPPI   C2B 7668  10.378  13.629   8.882 -0.1156 -0.1918  0.0668
  490DPPI   C3B 7669  10.174  13.775   8.466  0.3967  0.2932 -0.0461
  490DPPI   C4B 7670  10.235  14.020   7.983  0.0266  0.2338  0.1541
  491DPPI    C1 7671  18.266  13.212   9.958  0.1833  0.1571 -0.2512
  491DPPI    C2 7672  18.106  13.444   9.674 -0.1126  0.0923 -0.1413
  491DPPI    C3 7673  17.876  13.299   9.967  0.0807 -0.2858 -0.1703
  491DPPI   PO4 7674  18.506  13.240   9.924 -0.1101 -0.2028 -0.1754
  491DPPI   GL1 7675  18.733  13.346   9.624  0.0419 -0.0211 -0.0249
  491DPPI   GL2 7676  19.025  13.326   9.517  0.0860  0.1676 -0.0489
  491DPPI   C1A 7677  18.416  13.455   9.329 -0.0545  0.1391 -0.0872
  491DPPI   C2A 7678  18.408  13.544   8.928  0.2513  0.0237  0.2384
  491DPPI   C3A 7679  18.401  13.503   8.444 -0.0331  0.2756  0.0728
  491DPPI   C4A 7680  18.360  13.187   8.089  0.2641 -0.2546  0.2660
  491DPPI   C1B 7681  18.869  13.268   9.087  0.0649  0.0121 -0.2041
  491DPPI   C2B 7682  18.882  13.179   8.717 -0.3244 -0.1061 -0.3142
  491DPPI   C3B 7683  18.734  13.111   8.369  0.0219  0.0054  0.1704
  491DPPI   C4B 7684  18.825  13.243   8.002  0.1667 -0.0353 -0.3658
  492DPPI    C1 7685   6.711   3.683  10.319  0.0577  0.0099 -0.2674
  492DPPI    C2 7686   6.829   4.030  10.479 -0.0296 -0.0365 -0.1007
  492DPPI    C3 7687   6.852   3.692  10.693 -0.0754 -0.1115 -0.2132
  492DPPI   PO4 7688   6.662   3.754  10.015 -0.0436 -0.0786 -0.2861
  492DPPI   GL1 7689   6.907   3.755   9.626  0.0436 -0.3825 -0.0746
  492DPPI   GL2 7690   6.918   3.520   9.456  0.2741 -0.1016  0.2671
  492DPPI   C1A 7691   6.801   4.008   9.287 -0.0329  0.1256  0.1354
  492DPPI   C2A 7692   6.623   4.200   9.000 -0.0235  0.1064  0.0325
  492DPPI   C3A 7693   6.597   4.236   8.594 -0.1156 -0.0590  0.0373
  492DPPI   C4A 7694   6.710   4.226   8.190  0.2711  0.0982 -0.3780
  492DPPI   C1B 7695   6.772   3.470   9.021 -0.2599  0.2416 -0.2230
  492DPPI   C2B 7696   6.748   3.292   8.632  0.1206  0.1632  0.0947
  492DPPI   C3B 7697   6.976   3.273   8.118 -0.2782  0.0952 -0.1494
  492DPPI   C4B 7698   7.084   3.170   7.736  0.0136  0.1689  0.1062
  493DPPI    C1 7699   8.703   0.957  10.471  0.1193 -0.1890  0.0140
  493DPPI    C2 7700   8.850   0.884  10.836  0.2405  0.1942  0.0464
  493DPPI    C3 7701   8.526   1.115  10.793  0.0401 -0.1025 -0.0711
  493DPPI   PO4 7702   8.959   1.098  10.386  0.0734 -0.0066 -0.2052
  493DPPI   GL1 7703   9.234   1.267  10.066  0.1807  0.1379 -0.2244
  493DPPI   GL2 7704   9.512   1.254  10.132  0.1858  0.2885  0.3176
  493DPPI   C1A 7705   9.031   1.329   9.694 -0.1006  0.0110 -0.1409
  493DPPI   C2A 7706   8.907   1.356   9.221  0.2344 -0.0662 -0.0568
  493DPPI   C3A 7707   8.982   1.285   8.910  0.0789  0.3574 -0.0866
  493DPPI   C4A 7708   8.987   1.456   8.439  0.0391 -0.2477 -0.2588
  493DPPI   C1B 7709   9.511   1.055   9.730 -0.2653  0.0784 -0.0295
  493DPPI   C2B 7710   9.580   0.976   9.323  0.0704 -0.2675 -0.2980
  493DPPI   C3B 7711   9.631   0.984   8.939  0.1695 -0.2533 -0.0565
  493DPPI   C4B 7712   9.674   0.683   8.653  0.4308 -0.1941 -0.3558
  494DPPI    C1 7713  16.376  10.507  10.063  0.1689  0.0284  0.0106
  494DPPI    C2 7714  16.330  10.902  10.110 -0.0135 -0.0014  0.0894
  494DPPI    C3 7715  16.688  10.734  10.170  0.0190  0.1239  0.2536
  494DPPI   PO4 7716  16.241  10.467   9.846 -0.0663 -0.2294 -0.1601
  494DPPI   GL1 7717  16.257  10.540   9.391  0.0599 -0.1921  0.0695
  494DPPI   GL2 7718  16.439  10.315   9.347 -0.1436 -0.2459 -0.2151
  494DPPI   C1A 7719  16.488  10.604   8.868  0.0237  0.0995  0.0240
  494DPPI   C2A 7720  16.594  10.458   8.318 -0.2473  0.1534 -0.2785
  494DPPI   C3A 7721  17.021  10.532   8.114 -0.0615  0.1322  0.1875
  494DPPI   C4A 7722  17.370  10.649   7.734 -0.1903 -0.2633  0.0799
  494DPPI   C1B 7723  16.611  10.168   9.006  0.0030 -0.0116 -0.1734
  494DPPI   C2B 7724  16.903  10.217   8.632 -0.0719 -0.0472  0.3249
  494DPPI   C3B 7725  16.964   9.992   8.306  0.1099 -0.1372  0.3418
  494DPPI   C4B 7726  17.107   9.828   7.822 -0.1497  0.0649 -0.0061
  495DPPI    C1 7727  12.603  10.250  10.339 -0.0270 -0.0865  0.1114
  495DPPI    C2 7728  12.694  10.636  10.390 -0.0737 -0.0909  0.2313
  495DPPI    C3 7729  12.801  10.368  10.666  0.1138 -0.1902  0.0643
  495DPPI   PO4 7730  12.732  10.162  10.137 -0.1010  0.1355  0.1389
  495DPPI   GL1 7731  12.635   9.942   9.758  0.2896 -0.3162  0.0958
  495DPPI   GL2 7732  12.898  10.233   9.640  0.1196  0.0652 -0.0358
  495DPPI   C1A 7733  12.371  10.135   9.422 -0.1100  0.0368  0.1170
  495DPPI   C2A 7734  12.350  10.369   9.055  0.0800  0.0618  0.0687
  495DPPI   C3A 7735  12.551  10.673   8.899 -0.0737 -0.1583 -0.2273
  495DPPI   C4A 7736  12.320  10.788   8.426 -0.1636 -0.0061  0.0354
  495DPPI   C1B 7737  12.792  10.395   9.285 -0.0953 -0.1725 -0.3003
  495DPPI   C2B 7738  12.516  10.793   9.385 -0.2514 -0.0625  0.1642
  495DPPI   C3B 7739  12.420  11.132   9.142 -0.0724 -0.1205  0.1435
  495DPPI   C4B 7740  12.429  11.221   8.790 -0.3314  0.1610 -0.4717
  496DPPI    C1 7741   7.689   0.018  10.268  0.1973  0.2267  0.1108
  496DPPI    C2 7742   7.396  -0.017  10.538 -0.0466 -0.1466 -0.1904
  496DPPI    C3 7743   7.768  -0.128  10.632 -0.0499  0.0836  0.1099
  496DPPI   PO4 7744   7.486   0.041  10.047  0.0949  0.2905  0.1129
  496DPPI   GL1 7745   7.221   0.050   9.725 -0.0225 -0.0013 -0.1389
  496DPPI   GL2 7746   7.235  -0.317   9.654  0.0207  0.1523 -0.0305
  496DPPI   C1A 7747   7.276   0.176   9.385 -0.1148 -0.0140  0.1326
  496DPPI   C2A 7748   7.286   0.112   8.990  0.0534  0.1807  0.0496
  496DPPI   C3A 7749   7.364   0.210   8.607 -0.2042 -0.2945  0.2317
  496DPPI   C4A 7750   7.179  -0.006   8.246  0.3379 -0.2299  0.0472
  496DPPI   C1B 7751   7.259  -0.339   9.214  0.0987 -0.3109  0.0697
  496DPPI   C2B 7752   7.279  -0.403   8.802  0.1645 -0.0188 -0.0753
  496DPPI   C3B 7753   7.603  -0.303   8.524 -0.0519 -0.2859  0.1318
  496DPPI   C4B 7754   7.743  -0.104   8.262  0.1113 -0.0627 -0.4269
  497DPPI    C1 7755   4.251  15.967  10.449  0.3673  0.3024  0.1473
  497DPPI    C2 7756   4.138  15.940  10.832 -0.0331  0.2876  0.0334
  497DPPI    C3 7757   4.070  16.277  10.626 -0.1792  0.1578 -0.1335
  497DPPI   PO4 7758   4.576  15.832  10.384  0.1497  0.2393  0.2519
  497DPPI   GL1 7759   4.964  15.934   9.957 -0.4585  0.0505 -0.1433
  497DPPI   GL2 7760   5.307  15.830  10.004 -0.3830  0.0322 -0.0468
  497DPPI   C1A 7761   4.804  15.808   9.592  0.0891 -0.0224  0.0014
  497DPPI   C2A 7762   4.617  15.890   9.161 -0.1552  0.0969 -0.1385
  497DPPI   C3A 7763   4.482  15.893   8.714 -0.0436  0.0605 -0.3208
  497DPPI   C4A 7764   4.790  15.953   8.435 -0.5401 -0.1650  0.2472
  497DPPI   C1B 7765   5.318  15.779   9.528 -0.0979  0.0472 -0.1231
  497DPPI   C2B 7766   5.378  15.762   9.140  0.3277 -0.0590 -0.0280
  497DPPI   C3B 7767   5.228  15.998   8.671  0.0703 -0.0456  0.2563
  497DPPI   C4B 7768   5.270  16.349   8.436 -0.0613 -0.1505 -0.1268
  498DPPI    C1 7769   0.065  14.308   9.920  0.1317  0.0266  0.2033
  498DPPI    C2 7770   0.307  14.482  10.188  0.1979  0.0441  0.1323
  498DPPI    C3 7771   0.000  14.687  10.032  0.1330  0.0199  0.2271
  498DPPI   PO4 7772   0.279  14.213   9.767 -0.0445  0.1309  0.2983
  498DPPI   GL1 7773   0.429  14.587   9.663  0.0228 -0.0407 -0.2247
  498DPPI   GL2 7774   0.701  14.600   9.494  0.1494  0.1924  0.0750
  498DPPI   C1A 7775   0.261  14.767   9.328 -0.1849 -0.0010  0.4735
  498DPPI   C2A 7776   0.032  14.872   8.927  0.2261 -0.1520  0.2482
  498DPPI   C3A 7777   0.051  14.934   8.560 -0.3438  0.3074  0.2077
  498DPPI   C4A 7778  -0.034  14.981   8.130 -0.2934  0.1528  0.1497
  498DPPI   C1B 7779   0.802  14.568   9.024  0.3286  0.1295 -0.1756
  498DPPI   C2B 7780   0.947  14.355   8.744 -0.2728  0.0928  0.2176
  498DPPI   C3B 7781   1.220  14.428   8.444  0.3219  0.2096  0.1541
  498DPPI   C4B 7782   1.564  14.276   8.293  0.0337 -0.0193  0.4728
  499DPPI    C1 7783   4.100  11.672  10.411 -0.1598 -0.1225  0.0046
  499DPPI    C2 7784   3.812  11.693  10.688  0.0011  0.0288  0.1634
  499DPPI    C3 7785   4.196  11.719  10.797  0.0744 -0.1223 -0.0522
  499DPPI   PO4 7786   3.986  11.855  10.213  0.1477  0.3501 -0.1294
  499DPPI   GL1 7787   3.977  11.720   9.817 -0.0641  0.0381  0.3010
  499DPPI   GL2 7788   3.978  11.370   9.690  0.2092  0.1934  0.1272
  499DPPI   C1A 7789   4.082  11.892   9.362  0.0160  0.1063 -0.0599
  499DPPI   C2A 7790   4.055  11.941   8.986 -0.1346  0.0750 -0.2059
  499DPPI   C3A 7791   4.164  12.008   8.600 -0.0978  0.0222 -0.1949
  499DPPI   C4A 7792   4.116  11.873   8.236 -0.1677  0.1371  0.0429
  499DPPI   C1B 7793   3.983  11.296   9.281 -0.2176  0.1725 -0.3663
  499DPPI   C2B 7794   4.033  11.446   8.904  0.0424 -0.1755  0.3021
  499DPPI   C3B 7795   4.009  11.334   8.383  0.2261 -0.0681  0.1943
  499DPPI   C4B 7796   4.077  11.464   7.976 -0.2093 -0.1702 -0.0657
  500DPPI    C1 7797   2.471  13.710  10.135 -0.0392  0.0737  0.0709
  500DPPI    C2 7798   2.345  13.335  10.192  0.0200  0.0475  0.0295
  500DPPI    C3 7799   2.221  13.627  10.436 -0.0580  0.0081  0.0374
  500DPPI   PO4 7800   2.744  13.660   9.985  0.0562  0.2146  0.1187
  500DPPI   GL1 7801   2.995  13.402   9.691  0.4149  0.1288 -0.0530
  500DPPI   GL2 7802   3.019  13.698   9.543  0.1914 -0.0154 -0.3142
  500DPPI   C1A 7803   3.246  13.122   9.433  0.1267  0.2748  0.1904
  500DPPI   C2A 7804   3.338  13.126   8.974  0.4034 -0.2170  0.2377
  500DPPI   C3A 7805   3.456  13.311   8.587  0.1663  0.2057 -0.0649
  500DPPI   C4A 7806   3.473  13.218   8.088 -0.1038  0.1577  0.1303
  500DPPI   C1B 7807   3.043  13.512   9.170 -0.0286 -0.0102  0.1461
  500DPPI   C2B 7808   2.997  13.381   8.711  0.3485 -0.0002  0.0401
  500DPPI   C3B 7809   3.100  13.085   8.362 -0.2679 -0.1609 -0.2558
  500DPPI   C4B 7810   3.189  12.814   7.963 -0.0753  0.0210 -0.3891
  501DPPI    C1 7811   1.570   0.936  10.564  0.0845  0.3353 -0.1638
  501DPPI    C2 7812   1.271   0.988  10.825  0.2582  0.0081  0.1084
  501DPPI    C3 7813   1.426   1.303  10.634 -0.1444  0.2015  0.0889
  501DPPI   PO4 7814   1.476   0.764  10.306  0.0760 -0.1209  0.1216
  501DPPI   GL1 7815   1.320   0.864   9.863  0.0206  0.2454  0.1392
  501DPPI   GL2 7816   0.974   0.796   9.877  0.0852  0.0948  0.3825
  501DPPI   C1A 7817   1.250   0.753   9.380 -0.1056 -0.2448 -0.0921
  501DPPI   C2A 7818   1.415   0.525   8.929  0.0866  0.0877  0.0313
  501DPPI   C3A 7819   1.615   0.647   8.554 -0.0724  0.1605 -0.0737
  501DPPI   C4A 7820   1.718   0.920   8.176 -0.2556 -0.0892 -0.2456
  501DPPI   C1B 7821   0.646   0.911   9.725 -0.1543  0.1043  0.2202
  501DPPI   C2B 7822   0.578   0.779   9.232  0.1139 -0.1531  0.2335
  501DPPI   C3B 7823   0.528   0.806   8.747 -0.0628 -0.0077 -0.2085
  501DPPI   C4B 7824   0.754   0.744   8.395 -0.2338  0.3790  0.1780
  502DPPI    C1 7825   0.829  11.410   9.855  0.0046 -0.0006 -0.0134
  502DPPI    C2 7826   0.777  11.238  10.212  0.2197 -0.0128  0.0135
  502DPPI    C3 7827   0.799  11.637  10.183  0.1342 -0.0084  0.0044
  502DPPI   PO4 7828   1.043  11.227   9.682  0.0110 -0.0272  0.0156
  502DPPI   GL1 7829   1.360  11.288   9.352  0.0939 -0.0106  0.0966
  502DPPI   GL2 7830   1.251  11.502   9.139  0.0307 -0.2453 -0.0149
  502DPPI   C1A 7831   1.654  11.000   9.104  0.1221  0.2067 -0.0456
  502DPPI   C2A 7832   1.674  10.996   8.661 -0.2287  0.0015  0.1320
  502DPPI   C3A 7833   1.590  11.102   8.185  0.0209  0.0255  0.0993
  502DPPI   C4A 7834   1.648  10.783   7.964 -0.0057  0.1155 -0.1120
  502DPPI   C1B 7835   0.861  11.462   8.859  0.0450 -0.0754  0.0737
  502DPPI   C2B 7836   0.837  11.559   8.408 -0.0371 -0.1465 -0.1452
  502DPPI   C3B 7837   0.766  11.706   7.960  0.0602  0.1945  0.0956
  502DPPI   C4B 7838   0.707  12.066   7.601 -0.0479 -0.2638  0.2669
  503DPPI    C1 7839  14.599   4.408  10.352 -0.2433  0.0907  0.1035
  503DPPI    C2 7840  14.372   4.112  10.497  0.0162 -0.3187 -0.2983
  503DPPI    C3 7841  14.770   4.095  10.534  0.0204  0.1313 -0.0696
  503DPPI   PO4 7842  14.562   4.397  10.014  0.1734 -0.1834 -0.1508
  503DPPI   GL1 7843  14.840   4.454   9.721  0.0507 -0.3351 -0.0634
  503DPPI   GL2 7844  14.588   4.313   9.565  0.0372  0.0500  0.1764
  503DPPI   C1A 7845  14.966   4.637   9.352  0.0810  0.1374  0.0646
  503DPPI   C2A 7846  14.983   4.680   8.875 -0.0580  0.1257 -0.4027
  503DPPI   C3A 7847  14.848   4.685   8.471  0.0310 -0.1112 -0.2525
  503DPPI   C4A 7848  14.831   4.964   8.137 -0.1010  0.3244 -0.0259
  503DPPI   C1B 7849  14.505   4.110   9.155 -0.0359 -0.1063 -0.3880
  503DPPI   C2B 7850  14.437   4.116   8.817  0.3496 -0.1206 -0.0275
  503DPPI   C3B 7851  14.544   4.214   8.392 -0.2142 -0.0358  0.1112
  503DPPI   C4B 7852  14.926   4.317   8.145  0.1619 -0.0270  0.0675
  504DPPI    C1 7853  12.675   5.651   9.798 -0.0427 -0.0065 -0.2822
  504DPPI    C2 7854  12.360   5.727  10.033  0.0318 -0.0150 -0.1786
  504DPPI    C3 7855  12.543   5.372  10.052 -0.1339 -0.1184 -0.4513
  504DPPI   PO4 7856  12.880   5.853   9.903  0.0184 -0.0086 -0.1205
  504DPPI   GL1 7857  12.965   5.974   9.505 -0.0062  0.2772 -0.3004
  504DPPI   GL2 7858  13.175   5.692   9.496 -0.1624 -0.0501  0.1900
  504DPPI   C1A 7859  12.999   6.122   9.109  0.0479 -0.3143  0.1383
  504DPPI   C2A 7860  13.108   6.019   8.668  0.1342  0.1512 -0.2267
  504DPPI   C3A 7861  13.057   5.974   8.237  0.3668  0.0822 -0.0782
  504DPPI   C4A 7862  12.875   6.025   7.894  0.4487  0.1858  0.1811
  504DPPI   C1B 7863  13.131   5.646   9.057 -0.2294  0.1904  0.1018
  504DPPI   C2B 7864  13.206   5.483   8.585 -0.1285  0.2239  0.0132
  504DPPI   C3B 7865  13.501   5.236   8.462 -0.1596 -0.0768 -0.2059
  504DPPI   C4B 7866  13.913   5.598   8.321 -0.0962 -0.1247 -0.0070
  505DPPI    C1 7867   4.937  16.607  10.276 -0.1568  0.1368 -0.0673
  505DPPI    C2 7868   5.153  16.271  10.298 -0.0739  0.1968  0.0460
  505DPPI    C3 7869   4.755  16.252  10.262 -0.0929  0.0862  0.2941
  505DPPI   PO4 7870   5.103  16.759  10.089 -0.1994  0.1701 -0.1731
  505DPPI   GL1 7871   5.155  17.051   9.759 -0.0168  0.0861 -0.1468
  505DPPI   GL2 7872   5.210  16.927   9.521 -0.0780  0.3179  0.0534
  505DPPI   C1A 7873   5.356  17.474   9.751  0.0444 -0.0494  0.1779
  505DPPI   C2A 7874   5.529  17.831   9.661 -0.1533  0.0855  0.1641
  505DPPI   C3A 7875   5.178  18.092   9.508 -0.1852 -0.2189 -0.1478
  505DPPI   C4A 7876   4.727  18.264   9.581  0.1623 -0.1039  0.3757
  505DPPI   C1B 7877   5.167  17.137   9.232 -0.0279  0.0713  0.5566
  505DPPI   C2B 7878   5.247  17.517   9.294  0.0105 -0.2082 -0.3182
  505DPPI   C3B 7879   5.345  17.911   9.094 -0.0396 -0.0732 -0.1655
  505DPPI   C4B 7880   5.279  18.160   8.753 -0.1521 -0.1731 -0.0343
  506DPPI    C1 7881  11.167   3.961  10.228 -0.1570  0.2725 -0.0645
  506DPPI    C2 7882  11.423   3.969  10.535 -0.1722 -0.0029 -0.0431
  506DPPI    C3 7883  11.204   4.292  10.450  0.0725  0.1854  0.0305
  506DPPI   PO4 7884  11.316   3.958   9.970 -0.2566  0.2027 -0.1406
  506DPPI   GL1 7885  11.536   4.049   9.527  0.0309 -0.0565 -0.0474
  506DPPI   GL2 7886  11.323   3.799   9.440  0.0315  0.1328  0.1883
  506DPPI   C1A 7887  11.581   4.016   9.061 -0.0385 -0.0111  0.2307
  506DPPI   C2A 7888  11.828   3.970   8.623 -0.0849  0.0881  0.1240
  506DPPI   C3A 7889  11.728   3.729   8.206 -0.1936  0.0527  0.0055
  506DPPI   C4A 7890  11.284   3.690   7.948 -0.1508 -0.1124 -0.2776
  506DPPI   C1B 7891  11.147   3.402   9.167  0.4254 -0.2989  0.1899
  506DPPI   C2B 7892  11.048   3.309   8.714 -0.1130  0.1557  0.1155
  506DPPI   C3B 7893  11.354   3.315   8.321 -0.0006 -0.2043  0.0005
  506DPPI   C4B 7894  11.469   3.155   8.042 -0.1986  0.2011  0.2162
  507DPPI    C1 7895  12.230   4.593   9.765 -0.1325  0.2949 -0.1763
  507DPPI    C2 7896  12.049   4.625  10.120  0.0346  0.0878 -0.0698
  507DPPI    C3 7897  11.945   4.867   9.820 -0.1350  0.2390  0.1082
  507DPPI   PO4 7898  12.221   4.303   9.648  0.6786 -0.1418  0.4104
  507DPPI   GL1 7899  11.996   4.067   9.347 -0.1262  0.2114  0.0223
  507DPPI   GL2 7900  12.187   3.857   9.291 -0.0682 -0.1603 -0.0059
  507DPPI   C1A 7901  12.224   4.179   8.960 -0.5618  0.2129  0.4779
  507DPPI   C2A 7902  12.349   4.100   8.545 -0.1586 -0.6066  0.0219
  507DPPI   C3A 7903  12.157   4.113   8.127  0.1353  0.0809  0.1795
  507DPPI   C4A 7904  11.909   3.999   7.808  0.1432  0.0810  0.2648
  507DPPI   C1B 7905  12.045   3.672   8.948 -0.1920 -0.0791  0.3268
  507DPPI   C2B 7906  12.172   3.571   8.538 -0.2538 -0.0581 -0.0687
  507DPPI   C3B 7907  12.452   3.656   8.221  0.1914 -0.2568  0.0290
  507DPPI   C4B 7908  12.431   3.719   7.690 -0.2679  0.1701 -0.1263
  508DPPI    C1 7909  11.381  10.028  10.306  0.1797 -0.1033  0.0283
  508DPPI    C2 7910  11.141  10.216  10.564  0.0144 -0.1282 -0.1059
  508DPPI    C3 7911  11.536  10.210  10.627 -0.0328 -0.2210  0.1997
  508DPPI   PO4 7912  11.189   9.741  10.147 -0.0358 -0.1138 -0.3611
  508DPPI   GL1 7913  11.047   9.536   9.838 -0.1342 -0.0863  0.0998
  508DPPI   GL2 7914  11.337   9.431   9.842 -0.0239  0.0366 -0.1565
  508DPPI   C1A 7915  11.069   9.866   9.531  0.1036 -0.3342 -0.1156
  508DPPI   C2A 7916  11.233   9.953   9.178  0.0832 -0.0078  0.1466
  508DPPI   C3A 7917  11.218   9.839   8.799 -0.0390  0.1036  0.0224
  508DPPI   C4A 7918  11.376   9.741   8.344 -0.0005 -0.0485  0.1244
  508DPPI   C1B 7919  11.284   9.423   9.408 -0.1428  0.4724 -0.1233
  508DPPI   C2B 7920  11.281   9.262   8.998  0.1207  0.0082  0.1724
  508DPPI   C3B 7921  11.107   9.382   8.551 -0.0320  0.1135  0.0620
  508DPPI   C4B 7922  11.082   9.344   8.110 -0.0290  0.1769 -0.0036
  509DPPI    C1 7923  13.105  10.519  10.104 -0.0862  0.2168  0.2674
  509DPPI    C2 7924  13.486  10.640  10.131 -0.0806  0.2458  0.0695
  509DPPI    C3 7925  13.262  10.610  10.461  0.1147  0.1571  0.1959
  509DPPI   PO4 7926  13.026  10.700   9.943 -0.4188 -0.1410 -0.1548
  509DPPI   GL1 7927  13.126  10.734   9.595 -0.0610  0.0378 -0.2312
  509DPPI   GL2 7928  13.428  10.841   9.512 -0.1665  0.0502  0.0900
  509DPPI   C1A 7929  12.952  10.828   9.117 -0.0023 -0.1549  0.0445
  509DPPI   C2A 7930  12.917  11.121   8.891  0.1246  0.1728  0.1411
  509DPPI   C3A 7931  12.858  11.112   8.482  0.0468 -0.0392 -0.0907
  509DPPI   C4A 7932  12.856  10.858   8.148 -0.0634 -0.0345  0.0631
  509DPPI   C1B 7933  13.465  10.725   9.166 -0.0219 -0.1690  0.1183
  509DPPI   C2B 7934  13.326  10.896   8.808  0.4043 -0.1545  0.1770
  509DPPI   C3B 7935  13.283  10.922   8.390  0.0181  0.0869 -0.0723
  509DPPI   C4B 7936  13.106  11.270   8.070  0.1952  0.1799 -0.1371
  510DPPI    C1 7937  12.979   3.488   9.859  0.0124 -0.1068 -0.2257
  510DPPI    C2 7938  13.238   3.673  10.101  0.2151 -0.2435 -0.3362
  510DPPI    C3 7939  12.984   3.888   9.880  0.0898 -0.1151 -0.0717
  510DPPI   PO4 7940  13.063   3.293   9.664  0.0627  0.3415 -0.2901
  510DPPI   GL1 7941  13.141   3.262   9.317  0.1693  0.0663 -0.2547
  510DPPI   GL2 7942  13.404   3.260   9.236  0.2993 -0.3007 -0.0972
  510DPPI   C1A 7943  13.007   2.927   9.126 -0.1671 -0.1328 -0.1289
  510DPPI   C2A 7944  12.999   2.917   8.709  0.1457  0.0914 -0.0831
  510DPPI   C3A 7945  12.888   2.906   8.286  0.1092 -0.0427  0.0283
  510DPPI   C4A 7946  12.926   2.975   7.867  0.1572 -0.0045 -0.2104
  510DPPI   C1B 7947  13.421   3.096   8.808  0.0260  0.0050  0.3820
  510DPPI   C2B 7948  13.448   2.762   8.479  0.2073 -0.1575 -0.0404
  510DPPI   C3B 7949  13.328   2.723   8.072  0.1815 -0.2004  0.0392
  510DPPI   C4B 7950  13.571   2.726   7.774 -0.1144 -0.0042  0.0916
  511DPPI    C1 7951  15.686  14.755   9.989  0.0621  0.0912  0.2483
  511DPPI    C2 7952  15.873  14.496   9.748 -0.3362 -0.0067  0.0346
  511DPPI    C3 7953  15.655  14.362  10.055 -0.2667  0.0940  0.1288
  511DPPI   PO4 7954  15.581  14.901   9.881  0.0369  0.1057  0.2456
  511DPPI   GL1 7955  15.408  15.072   9.496 -0.1479  0.0957  0.0785
  511DPPI   GL2 7956  15.190  15.198   9.462  0.1899  0.2025 -0.0399
  511DPPI   C1A 7957  15.715  15.108   9.192  0.1082 -0.2407 -0.0125
  511DPPI   C2A 7958  15.692  15.281   8.706 -0.0069  0.0485 -0.1392
  511DPPI   C3A 7959  15.828  15.319   8.309  0.0357 -0.1956  0.2258
  511DPPI   C4A 7960  15.914  15.249   7.943 -0.3645 -0.2377 -0.1845
  511DPPI   C1B 7961  15.291  15.221   8.983  0.0922 -0.1568 -0.1132
  511DPPI   C2B 7962  15.163  15.189   8.487 -0.0966  0.1263  0.1005
  511DPPI   C3B 7963  15.178  15.482   8.123  0.3484 -0.1676 -0.5829
  511DPPI   C4B 7964  15.468  15.498   7.871 -0.0676  0.1957  0.0163
  512DPPI    C1 7965  12.745  17.583  10.724 -0.0022  0.1830 -0.1207
  512DPPI    C2 7966  12.446  17.793  10.886 -0.0017  0.0421  0.0651
  512DPPI    C3 7967  12.824  17.866  10.995  0.0024 -0.0204  0.0926
  512DPPI   PO4 7968  12.657  17.572  10.514  0.0297 -0.0718 -0.0222
  512DPPI   GL1 7969  12.501  17.366  10.168 -0.0701 -0.3136  0.1439
  512DPPI   GL2 7970  12.586  16.972  10.053 -0.0699 -0.0989  0.1126
  512DPPI   C1A 7971  12.139  17.349   9.892  0.1842  0.1948 -0.0196
  512DPPI   C2A 7972  11.961  17.005   9.696 -0.0570 -0.4044 -0.2084
  512DPPI   C3A 7973  11.996  16.867   9.272 -0.1417  0.1024  0.1569
  512DPPI   C4A 7974  11.577  16.877   9.100 -0.0622  0.1072 -0.1244
  512DPPI   C1B 7975  12.516  16.836   9.658  0.0325 -0.0477 -0.1545
  512DPPI   C2B 7976  12.467  16.707   9.218  0.0412 -0.0856  0.3285
  512DPPI   C3B 7977  12.278  16.868   8.860  0.2033  0.1578 -0.0655
  512DPPI   C4B 7978  12.510  16.686   8.460  0.0690  0.1768 -0.1289
  513PYPI    C1 7979   5.249  11.532  10.503 -0.1334  0.0015 -0.0717
  513PYPI    C2 7980   5.406  11.899  10.531  0.0669 -0.0934  0.0781
  513PYPI    C3 7981   5.034  11.830  10.661  0.0233  0.0587  0.0361
  513PYPI   PO4 7982   5.328  11.440  10.278 -0.0141 -0.0923 -0.0345
  513PYPI   GL1 7983   5.389  11.327   9.864  0.0668  0.0957 -0.0795
  513PYPI   GL2 7984   5.104  11.143   9.742  0.4101  0.2408 -0.0166
  513PYPI   C1A 7985   5.683  11.399   9.546  0.4075  0.0306 -0.1262
  513PYPI   C2A 7986   5.871  11.648   9.250  0.0956  0.2642  0.2419
  513PYPI   D3A 7987   6.074  11.893   8.942  0.1861  0.0400 -0.1712
  513PYPI   C4A 7988   5.993  11.864   8.496  0.0253  0.0254  0.1552
  513PYPI   C1B 7989   5.373  11.059   9.357 -0.2710 -0.0937  0.0002
  513PYPI   C2B 7990   5.620  11.245   8.969  0.2924 -0.1144  0.1189
  513PYPI   C3B 7991   5.775  11.076   8.552  0.3276 -0.3958  0.0495
  513PYPI   C4B 7992   5.551  11.035   8.382  0.0344 -0.0955  0.0652
  514PYPI    C1 7993   1.677  15.702  10.614  0.0109 -0.1365  0.2704
  514PYPI    C2 7994   1.635  16.090  10.702 -0.1442 -0.0917  0.0094
  514PYPI    C3 7995   1.567  15.813  10.983 -0.1348  0.0649  0.1683
  514PYPI   PO4 7996   1.527  15.672  10.339 -0.1461  0.1959  0.1068
  514PYPI   GL1 7997   1.538  15.662   9.881  0.1147 -0.1632  0.0834
  514PYPI   GL2 7998   1.320  15.910   9.816  0.0949  0.1488 -0.3028
  514PYPI   C1A 7999   1.482  15.364   9.501  0.1382 -0.1121 -0.0908
  514PYPI   C2A 8000   1.589  15.375   9.085  0.2330  0.0739 -0.1600
  514PYPI   D3A 8001   1.850  15.362   8.696 -0.1996  0.1022  0.1188
  514PYPI   C4A 8002   1.662  15.797   8.508  0.3073  0.2018  0.0562
  514PYPI   C1B 8003   1.489  15.825   9.330  0.1999 -0.4200  0.0997
  514PYPI   C2B 8004   1.283  15.839   8.933  0.1948  0.2158  0.2593
  514PYPI   C3B 8005   1.118  15.849   8.480  0.3279 -0.1076 -0.0451
  514PYPI   C4B 8006   1.077  15.584   8.084 -0.5097 -0.0914 -0.4345
  515PYPI    C1 8007   4.573   6.981  10.476  0.1045  0.1981 -0.0389
  515PYPI    C2 8008   4.950   6.978  10.608 -0.0619 -0.2067  0.4592
  515PYPI    C3 8009   4.736   7.315  10.625  0.3610  0.1087 -0.1140
  515PYPI   PO4 8010   4.629   6.873  10.162  0.0032  0.1208 -0.0735
  515PYPI   GL1 8011   4.692   7.019   9.787  0.1555 -0.3358 -0.1855
  515PYPI   GL2 8012   4.444   7.176   9.474 -0.3360  0.3393  0.0761
  515PYPI   C1A 8013   4.914   7.234   9.448  0.2276  0.1216 -0.0584
  515PYPI   C2A 8014   4.891   7.547   9.113  0.0542  0.0643 -0.1418
  515PYPI   D3A 8015   4.899   7.966   8.921 -0.1343  0.1858  0.2595
  515PYPI   C4A 8016   4.988   7.989   8.478 -0.3740  0.1131 -0.0391
  515PYPI   C1B 8017   4.580   6.745   9.250 -0.0652  0.1613  0.2265
  515PYPI   C2B 8018   4.476   6.606   8.777  0.2960 -0.2862  0.1943
  515PYPI   C3B 8019   4.559   6.310   8.643  0.0561  0.0374  0.1441
  515PYPI   C4B 8020   4.668   6.052   8.294  0.2281 -0.1580  0.0119
  516PYPI    C1 8021  17.201   9.811  10.162 -0.0944  0.2382 -0.2043
  516PYPI    C2 8022  17.454  10.067  10.336  0.0016 -0.1169  0.1962
  516PYPI    C3 8023  17.068  10.065  10.442 -0.0223 -0.0625  0.1105
  516PYPI   PO4 8024  17.154   9.894   9.876 -0.1341  0.1291  0.0774
  516PYPI   GL1 8025  17.003  10.192   9.571 -0.1554 -0.4866 -0.1792
  516PYPI   GL2 8026  16.741   9.932   9.545  0.0558 -0.0410 -0.2465
  516PYPI   C1A 8027  16.960  10.524   9.267 -0.1332 -0.2110 -0.0422
  516PYPI   C2A 8028  16.628  10.897   9.261  0.3541  0.1542  0.1790
  516PYPI   D3A 8029  16.503  11.172   8.931  0.5641 -0.0125  0.1587
  516PYPI   C4A 8030  16.253  10.995   8.593 -0.0471 -0.1337 -0.0679
  516PYPI   C1B 8031  17.111   9.873   9.134  0.0290 -0.1529 -0.0643
  516PYPI   C2B 8032  17.385   9.906   8.774  0.0272  0.1822  0.1114
  516PYPI   C3B 8033  17.365   9.705   8.311 -0.0990 -0.0139  0.0197
  516PYPI   C4B 8034  17.065   9.407   8.178  0.0949 -0.1526 -0.2638
  517PYPI    C1 8035  13.521   5.306   9.831 -0.0576  0.0778 -0.4540
  517PYPI    C2 8036  13.799   5.593   9.857 -0.0759  0.0569  0.0995
  517PYPI    C3 8037  13.432   5.656  10.003 -0.2409 -0.0664 -0.2504
  517PYPI   PO4 8038  13.482   5.219   9.516  0.0109 -0.1220 -0.0912
  517PYPI   GL1 8039  13.683   4.858   9.270  0.1120 -0.4686  0.3052
  517PYPI   GL2 8040  13.467   4.732   9.140 -0.1854  0.1537  0.3289
  517PYPI   C1A 8041  13.867   4.982   8.923 -0.0207  0.0150 -0.1552
  517PYPI   C2A 8042  13.880   4.923   8.444 -0.4226  0.2863 -0.0881
  517PYPI   D3A 8043  14.077   4.954   8.071  0.2717 -0.0691  0.2785
  517PYPI   C4A 8044  13.736   4.818   7.795 -0.1192 -0.3250 -0.2286
  517PYPI   C1B 8045  13.464   4.747   8.655 -0.1245 -0.4034  0.0725
  517PYPI   C2B 8046  13.480   4.634   8.348 -0.2338  0.1510 -0.2527
  517PYPI   C3B 8047  13.325   4.790   7.979  0.0674 -0.3095 -0.1566
  517PYPI   C4B 8048  13.139   4.804   7.558  0.0790  0.0409  0.3570
  518PYPI    C1 8049  17.527   7.609   9.673 -0.3330 -0.0694  0.0690
  518PYPI    C2 8050  17.408   7.672  10.049 -0.1671 -0.0723  0.1230
  518PYPI    C3 8051  17.767   7.511   9.978 -0.0901  0.1663 -0.0417
  518PYPI   PO4 8052  17.458   7.817   9.533 -0.2109  0.1769  0.0113
  518PYPI   GL1 8053  17.691   7.924   9.186  0.0984  0.3791 -0.0866
  518PYPI   GL2 8054  17.659   7.605   9.117  0.2540  0.0360  0.0067
  518PYPI   C1A 8055  17.318   8.130   8.894  0.0869 -0.0049  0.0035
  518PYPI   C2A 8056  17.200   7.987   8.445 -0.1594 -0.0256  0.2012
  518PYPI   D3A 8057  17.298   8.021   8.038 -0.1443  0.2195  0.2877
  518PYPI   C4A 8058  16.977   7.990   7.776 -0.2938 -0.0071 -0.1212
  518PYPI   C1B 8059  17.597   7.560   8.673 -0.1244  0.0800  0.0778
  518PYPI   C2B 8060  17.498   7.581   8.240 -0.0376  0.1569 -0.1724
  518PYPI   C3B 8061  17.683   7.664   7.840  0.0245  0.3203  0.1215
  518PYPI   C4B 8062  17.976   7.486   7.600  0.0974  0.1044 -0.2415
  519PYPI    C1 8063   9.576  16.629  10.941  0.0416  0.0480  0.1020
  519PYPI    C2 8064   9.612  16.942  11.188  0.1664  0.1521 -0.0466
  519PYPI    C3 8065   9.533  16.578  11.336  0.1001  0.2387  0.1336
  519PYPI   PO4 8066   9.509  16.705  10.738 -0.3652  0.1207  0.0162
  519PYPI   GL1 8067   9.801  16.948  10.442  0.1134  0.0050  0.1193
  519PYPI   GL2 8068   9.481  17.023  10.319  0.0322  0.0969  0.0858
  519PYPI   C1A 8069  10.047  17.093  10.055  0.1526 -0.1385  0.2509
  519PYPI   C2A 8070  10.160  17.109   9.612  0.0125  0.1491  0.1502
  519PYPI   D3A 8071  10.327  17.271   9.237  0.1334 -0.1868  0.2021
  519PYPI   C4A 8072  10.177  17.016   8.918  0.0180  0.0972 -0.0603
  519PYPI   C1B 8073   9.590  16.764   9.897 -0.3712  0.2845 -0.2201
  519PYPI   C2B 8074   9.737  16.831   9.552  0.1473  0.0428 -0.0469
  519PYPI   C3B 8075   9.748  17.031   9.147  0.1133  0.0299 -0.0641
  519PYPI   C4B 8076   9.713  16.968   8.705 -0.0756 -0.2773  0.0740
  520PYPI    C1 8077  17.522  17.350  10.339  0.0746  0.0171  0.4616
  520PYPI    C2 8078  17.900  17.438  10.436  0.0817  0.1237  0.3403
  520PYPI    C3 8079  17.650  17.295  10.714  0.2541 -0.0967  0.3848
  520PYPI   PO4 8080  17.577  17.227  10.129  0.1542 -0.0651  0.2839
  520PYPI   GL1 8081  17.575  16.927   9.784  0.1472 -0.2922  0.0792
  520PYPI   GL2 8082  17.744  17.235   9.696  0.2464  0.3106  0.0631
  520PYPI   C1A 8083  17.631  16.532   9.705 -0.0467 -0.0969  0.2452
  520PYPI   C2A 8084  17.399  16.432   9.291  0.0699  0.1398 -0.2121
  520PYPI   D3A 8085  17.440  16.565   8.866  0.1710  0.1580  0.0533
  520PYPI   C4A 8086  17.240  16.478   8.433 -0.0838 -0.0008 -0.0390
  520PYPI   C1B 8087  17.796  17.352   9.290  0.1752  0.1167 -0.0333
  520PYPI   C2B 8088  17.846  17.406   8.804  0.1724  0.0393  0.4142
  520PYPI   C3B 8089  17.795  17.620   8.414 -0.1414 -0.1363 -0.0190
  520PYPI   C4B 8090  18.152  17.627   8.161  0.0579  0.1306  0.0922
  521PYPI    C1 8091   6.872   1.897  10.359 -0.0589  0.1411 -0.1419
  521PYPI    C2 8092   6.719   2.241  10.496 -0.0904 -0.0109  0.2161
  521PYPI    C3 8093   7.114   2.205  10.441 -0.1056  0.1433 -0.0103
  521PYPI   PO4 8094   6.735   1.722  10.218  0.1348  0.1441  0.3557
  521PYPI   GL1 8095   6.432   1.713   9.833 -0.2103 -0.1110  0.2230
  521PYPI   GL2 8096   6.070   1.903   9.748 -0.0316  0.2501  0.0977
  521PYPI   C1A 8097   6.072   1.403   9.660  0.0462 -0.1719 -0.0514
  521PYPI   C2A 8098   6.020   1.110   9.271 -0.3864 -0.2925  0.1026
  521PYPI   D3A 8099   5.866   0.715   8.959 -0.1062  0.2270  0.0601
  521PYPI   C4A 8100   5.924   0.310   9.032 -0.1284  0.2584  0.0288
  521PYPI   C1B 8101   6.055   1.802   9.298 -0.1765 -0.0401 -0.2977
  521PYPI   C2B 8102   6.123   1.513   8.920  0.1405 -0.0435 -0.1225
  521PYPI   C3B 8103   5.881   1.402   8.401  0.0968 -0.1857 -0.1009
  521PYPI   C4B 8104   5.528   1.208   8.136 -0.0728  0.1920 -0.0947
  522PYPI    C1 8105   3.544   4.462  10.638 -0.0088 -0.1486 -0.0048
  522PYPI    C2 8106   3.869   4.352  10.844 -0.0649  0.1739  0.2654
  522PYPI    C3 8107   3.522   4.163  10.902  0.1188 -0.3357 -0.2023
  522PYPI   PO4 8108   3.640   4.486  10.425 -0.1208 -0.1879  0.1341
  522PYPI   GL1 8109   3.823   4.427  10.056 -0.2986  0.0740 -0.1952
  522PYPI   GL2 8110   3.720   4.696   9.972  0.0708  0.2448 -0.3384
  522PYPI   C1A 8111   3.781   4.420   9.552 -0.1293 -0.3532  0.1501
  522PYPI   C2A 8112   3.720   4.419   9.116  0.3205 -0.0681  0.1290
  522PYPI   D3A 8113   3.701   4.538   8.748  0.1257  0.3553 -0.2057
  522PYPI   C4A 8114   4.003   4.789   8.510  0.2294  0.0806  0.4111
  522PYPI   C1B 8115   3.743   4.896   9.561 -0.4572  0.0213 -0.2307
  522PYPI   C2B 8116   3.740   4.914   9.154  0.2100  0.0980  0.1418
  522PYPI   C3B 8117   3.582   5.000   8.647  0.2115  0.2939  0.1545
  522PYPI   C4B 8118   3.713   5.038   8.211  0.2147 -0.2474  0.1744
  523PYPI    C1 8119   4.086   6.436  10.407  0.0426 -0.0872 -0.0457
  523PYPI    C2 8120   3.859   6.475  10.735  0.2570 -0.0607  0.1019
  523PYPI    C3 8121   3.745   6.230  10.440  0.0013  0.0085  0.1414
  523PYPI   PO4 8122   4.154   6.706  10.336 -0.3050 -0.2057  0.0851
  523PYPI   GL1 8123   4.093   6.810   9.874 -0.1770 -0.0436 -0.0535
  523PYPI   GL2 8124   4.121   6.407   9.890 -0.2216  0.1706 -0.3658
  523PYPI   C1A 8125   4.098   6.767   9.369  0.0449 -0.0719  0.0340
  523PYPI   C2A 8126   4.037   6.732   8.902  0.1159 -0.1090  0.0859
  523PYPI   D3A 8127   3.988   6.807   8.511 -0.2448 -0.0749  0.2256
  523PYPI   C4A 8128   3.943   6.677   8.068 -0.0253  0.0545  0.1461
  523PYPI   C1B 8129   4.274   6.320   9.523 -0.1533  0.0823  0.2680
  523PYPI   C2B 8130   4.243   6.320   9.164 -0.0785  0.0689  0.1156
  523PYPI   C3B 8131   4.094   6.229   8.862 -0.1562  0.1484 -0.0186
  523PYPI   C4B 8132   4.128   6.297   8.416  0.1186  0.0991  0.0587
  524PYPI    C1 8133  12.280   7.687  10.049 -0.0835  0.1844  0.2639
  524PYPI    C2 8134  12.539   7.926   9.860 -0.1080 -0.0222 -0.0392
  524PYPI    C3 8135  12.641   7.755  10.207 -0.0352  0.3048  0.1043
  524PYPI   PO4 8136  12.171   7.554   9.881  0.0960 -0.0270  0.0277
  524PYPI   GL1 8137  12.097   7.356   9.464 -0.2274  0.1606 -0.1884
  524PYPI   GL2 8138  12.353   7.678   9.450 -0.1696  0.3230  0.0888
  524PYPI   C1A 8139  12.237   7.373   9.041  0.0496 -0.1513  0.2083
  524PYPI   C2A 8140  12.601   7.334   8.679 -0.2471 -0.1016  0.0346
  524PYPI   D3A 8141  12.912   7.499   8.445  0.0170 -0.2484  0.0018
  524PYPI   C4A 8142  12.966   7.839   8.485 -0.1374 -0.0197  0.1036
  524PYPI   C1B 8143  12.439   7.946   9.164 -0.2128 -0.1315 -0.1450
  524PYPI   C2B 8144  12.398   8.334   8.910 -0.1989 -0.0555 -0.0596
  524PYPI   C3B 8145  12.072   8.533   8.659  0.2146 -0.3016  0.3925
  524PYPI   C4B 8146  11.881   8.724   8.242 -0.1653 -0.3191 -0.2367
  525PYPI    C1 8147   0.219   6.758  10.262  0.0172 -0.0311  0.0917
  525PYPI    C2 8148  -0.063   6.633  10.516  0.0432 -0.1447  0.0651
  525PYPI    C3 8149   0.125   6.370  10.281  0.0087 -0.0383 -0.0829
  525PYPI   PO4 8150   0.212   7.087  10.328 -0.0924  0.0408 -0.0599
  525PYPI   GL1 8151   0.115   7.115   9.884 -0.0089 -0.0152 -0.2472
  525PYPI   GL2 8152   0.262   7.318   9.759  0.1090  0.0805  0.0008
  525PYPI   C1A 8153  -0.080   6.908   9.473 -0.0041  0.0712 -0.1188
  525PYPI   C2A 8154   0.013   6.582   9.300  0.3235 -0.2452  0.1178
  525PYPI   D3A 8155   0.187   6.488   8.860  0.0059  0.0227 -0.2760
  525PYPI   C4A 8156  -0.052   6.554   8.517 -0.0913 -0.1178  0.0628
  525PYPI   C1B 8157   0.359   7.157   9.378 -0.3474 -0.2278  0.0242
  525PYPI   C2B 8158   0.348   6.961   8.998 -0.4058  0.1052  0.2258
  525PYPI   C3B 8159   0.331   6.923   8.523 -0.2325  0.2538 -0.0487
  525PYPI   C4B 8160   0.544   7.000   8.163  0.1731 -0.0551 -0.1522
  526PYPI    C1 8161  16.249   0.670  10.480 -0.1989  0.0831 -0.1397
  526PYPI    C2 8162  16.342   0.995  10.695 -0.3014  0.1135 -0.1403
  526PYPI    C3 8163  16.262   0.649  10.880 -0.0494  0.0502 -0.1459
  526PYPI   PO4 8164  15.999   0.782  10.289 -0.3765 -0.2715  0.0921
  526PYPI   GL1 8165  16.008   0.891   9.821 -0.0794 -0.0393 -0.0662
  526PYPI   GL2 8166  15.729   1.061   9.849 -0.0164 -0.0822  0.1686
  526PYPI   C1A 8167  16.147   0.698   9.480 -0.0426  0.0865  0.0703
  526PYPI   C2A 8168  15.987   0.583   9.009  0.0042  0.0364  0.1474
  526PYPI   D3A 8169  16.309   0.410   8.617  0.1623 -0.3676 -0.0597
  526PYPI   C4A 8170  16.387   0.535   8.243  0.0902 -0.1388  0.0416
  526PYPI   C1B 8171  15.447   1.109   9.507  0.0826  0.2808 -0.0397
  526PYPI   C2B 8172  15.238   1.089   9.085  0.1817 -0.0906  0.1449
  526PYPI   C3B 8173  15.203   1.141   8.582 -0.0428  0.1007  0.1716
  526PYPI   C4B 8174  15.171   1.237   8.143 -0.1562  0.0239  0.1105
  527PYPI    C1 8175   4.232  11.251  10.153 -0.0982  0.1291  0.0575
  527PYPI    C2 8176   4.401  11.208  10.513 -0.1361  0.0978  0.0716
  527PYPI    C3 8177   4.192  10.907  10.352 -0.1101  0.1079  0.0187
  527PYPI   PO4 8178   4.350  11.426  10.036  0.1746  0.2171 -0.2054
  527PYPI   GL1 8179   4.505  11.422   9.655  0.0108 -0.0058 -0.0529
  527PYPI   GL2 8180   4.448  11.705   9.616 -0.2200 -0.2034  0.1140
  527PYPI   C1A 8181   4.963  11.412   9.375  0.0356  0.2226  0.4703
  527PYPI   C2A 8182   5.058  11.149   9.008  0.1557 -0.2128  0.0529
  527PYPI   D3A 8183   5.183  11.303   8.597 -0.1877  0.0391  0.0802
  527PYPI   C4A 8184   4.896  11.237   8.343 -0.1214  0.0622  0.0530
  527PYPI   C1B 8185   4.511  11.697   9.167  0.0794  0.0524 -0.1109
  527PYPI   C2B 8186   4.462  11.628   8.756 -0.0096 -0.1916 -0.1470
  527PYPI   C3B 8187   4.507  11.591   8.362  0.0246 -0.0308  0.0397
  527PYPI   C4B 8188   4.632  11.396   7.995 -0.2520 -0.1658  0.1298
  528PYPI    C1 8189  16.843   9.408  10.002  0.0169  0.1611  0.1196
  528PYPI    C2 8190  16.697   9.221  10.324  0.0009  0.2668  0.1743
  528PYPI    C3 8191  17.093   9.266  10.281  0.0199 -0.0206  0.0257
  528PYPI   PO4 8192  16.734   9.367   9.807  0.3093  0.0083 -0.3355
  528PYPI   GL1 8193  16.886   9.329   9.469  0.0025 -0.0860 -0.1629
  528PYPI   GL2 8194  16.893   9.034   9.344  0.4127 -0.1256 -0.0424
  528PYPI   C1A 8195  16.886   9.465   9.070 -0.2682  0.2377  0.1340
  528PYPI   C2A 8196  16.785   9.769   8.760 -0.0977  0.1110 -0.0896
  528PYPI   D3A 8197  16.498   9.956   8.433  0.0359  0.2462  0.1764
  528PYPI   C4A 8198  16.276  10.063   8.102  0.0525 -0.0007  0.0290
  528PYPI   C1B 8199  16.726   8.937   8.991  0.1051  0.2594  0.0498
  528PYPI   C2B 8200  16.480   8.719   8.680 -0.1808 -0.0219  0.1522
  528PYPI   C3B 8201  16.373   8.654   8.317  0.3583 -0.1007 -0.0643
  528PYPI   C4B 8202  16.218   8.749   7.863 -0.2719  0.0921  0.2199
  529PYPI    C1 8203   3.719  13.132  10.240 -0.0583 -0.2011 -0.3851
  529PYPI    C2 8204   4.045  12.909  10.299  0.0860  0.0965 -0.0147
  529PYPI    C3 8205   4.034  13.170   9.996  0.1734  0.0533 -0.0557
  529PYPI   PO4 8206   3.513  12.949  10.189 -0.3756 -0.0999  0.2155
  529PYPI   GL1 8207   3.484  12.589   9.863  0.1968 -0.1991  0.2457
  529PYPI   GL2 8208   3.830  12.724   9.908 -0.1341 -0.0633 -0.2925
  529PYPI   C1A 8209   3.266  12.538   9.419  0.0613  0.1355 -0.0264
  529PYPI   C2A 8210   3.193  12.575   9.030  0.0722 -0.0311  0.1688
  529PYPI   D3A 8211   3.119  12.597   8.539  0.0588  0.2064  0.0230
  529PYPI   C4A 8212   2.840  12.495   8.336  0.2956  0.1338 -0.1176
  529PYPI   C1B 8213   3.840  12.871   9.580 -0.2020 -0.3984 -0.2555
  529PYPI   C2B 8214   3.719  12.720   9.221 -0.0618 -0.1359 -0.0003
  529PYPI   C3B 8215   3.671  12.793   8.766  0.0176 -0.1879 -0.0267
  529PYPI   C4B 8216   3.565  12.794   8.343  0.2924  0.0651 -0.3143
  530PYPI    C1 8217  13.630  18.072  10.600  0.1711  0.0396 -0.2227
  530PYPI    C2 8218  13.812  18.391  10.757 -0.0268  0.0680 -0.0467
  530PYPI    C3 8219  13.501  18.225  10.947 -0.0619 -0.0978 -0.2463
  530PYPI   PO4 8220  13.539  18.149  10.339 -0.1206  0.1632 -0.2863
  530PYPI   GL1 8221  13.393  18.182   9.939 -0.3966 -0.4072  0.3137
  530PYPI   GL2 8222  13.294  18.438   9.687  0.2039  0.1160  0.1834
  530PYPI   C1A 8223  13.404  17.863   9.624 -0.3151 -0.2339 -0.1374
  530PYPI   C2A 8224  13.694  17.488   9.308  0.3600 -0.2318  0.1783
  530PYPI   D3A 8225  14.040  17.519   9.000 -0.1204  0.3293 -0.0115
  530PYPI   C4A 8226  14.444  17.342   9.147 -0.0031 -0.0438  0.0323
  530PYPI   C1B 8227  13.252  18.265   9.338 -0.2551 -0.2939  0.0157
  530PYPI   C2B 8228  13.137  18.346   8.847 -0.2153  0.1728 -0.0547
  530PYPI   C3B 8229  13.144  18.290   8.369  0.1543 -0.0823  0.0690
  530PYPI   C4B 8230  13.002  18.010   8.023  0.1029  0.4130 -0.1423
  531PYPI    C1 8231   6.606   0.988  10.510 -0.1675  0.0906 -0.0720
  531PYPI    C2 8232   6.239   0.830  10.493 -0.0269 -0.2598  0.0658
  531PYPI    C3 8233   6.358   1.025  10.821 -0.1351 -0.0249 -0.0322
  531PYPI   PO4 8234   6.665   1.126  10.235  0.1493  0.2069 -0.1476
  531PYPI   GL1 8235   6.710   1.326   9.806  0.2982  0.1098 -0.1852
  531PYPI   GL2 8236   7.009   1.431   9.911  0.0663  0.1282 -0.3289
  531PYPI   C1A 8237   6.584   1.410   9.398  0.3470  0.1053  0.2184
  531PYPI   C2A 8238   6.504   1.194   8.961 -0.4204 -0.1175 -0.0449
  531PYPI   D3A 8239   6.332   1.195   8.496 -0.1313 -0.0838  0.1411
  531PYPI   C4A 8240   6.080   0.862   8.555  0.2947 -0.0760  0.0465
  531PYPI   C1B 8241   7.014   1.580   9.404 -0.2212 -0.2274 -0.1873
  531PYPI   C2B 8242   7.092   1.601   9.012 -0.1254 -0.0026 -0.2108
  531PYPI   C3B 8243   7.347   1.589   8.629  0.2187 -0.1699 -0.3776
  531PYPI   C4B 8244   7.391   1.320   8.267 -0.1998 -0.1305 -0.3977
  532PYPI    C1 8245  17.739   5.104  10.303 -0.0216 -0.0090 -0.2482
  532PYPI    C2 8246  17.977   5.413  10.393 -0.0839  0.0167 -0.1711
  532PYPI    C3 8247  17.591   5.475  10.307 -0.0919 -0.0376 -0.1747
  532PYPI   PO4 8248  17.917   4.913  10.189  0.3208  0.1094  0.1538
  532PYPI   GL1 8249  17.683   4.991   9.741 -0.1414 -0.0475  0.3801
  532PYPI   GL2 8250  17.366   5.008   9.633 -0.3970 -0.1959 -0.1019
  532PYPI   C1A 8251  17.877   4.660   9.387  0.2889 -0.2568  0.2221
  532PYPI   C2A 8252  17.764   4.610   8.979 -0.1973 -0.1776 -0.1009
  532PYPI   D3A 8253  17.821   4.689   8.625 -0.1924  0.0001 -0.2237
  532PYPI   C4A 8254  17.616   4.356   8.322  0.0593 -0.0444 -0.2831
  532PYPI   C1B 8255  17.336   4.858   9.305  0.0436  0.0539  0.1388
  532PYPI   C2B 8256  16.915   4.776   9.012 -0.1226 -0.3148 -0.2573
  532PYPI   C3B 8257  16.507   4.786   9.128 -0.1725 -0.4277  0.0499
  532PYPI   C4B 8258  16.127   5.070   9.260  0.2727 -0.2779  0.3326
  533PYPI    C1 8259   7.057  15.478  10.255 -0.0168 -0.1069  0.1998
  533PYPI    C2 8260   6.864  15.427  10.602  0.1564 -0.0122  0.3108
  533PYPI    C3 8261   7.181  15.671  10.582  0.2098 -0.0961  0.1089
  533PYPI   PO4 8262   6.820  15.312  10.089  0.0949  0.0302 -0.0555
  533PYPI   GL1 8263   6.709  15.366   9.698  0.2646  0.2214  0.0132
  533PYPI   GL2 8264   6.397  15.471   9.784  0.2722  0.0119 -0.1842
  533PYPI   C1A 8265   6.660  15.114   9.286 -0.2973 -0.1261 -0.3577
  533PYPI   C2A 8266   6.481  15.164   8.861  0.3035 -0.1210 -0.0183
  533PYPI   D3A 8267   6.492  15.235   8.418 -0.0313  0.0894 -0.2285
  533PYPI   C4A 8268   6.611  14.968   8.146  0.0602  0.1127  0.0025
  533PYPI   C1B 8269   6.393  15.480   9.266  0.1965  0.2593 -0.0377
  533PYPI   C2B 8270   6.111  15.484   8.762 -0.2256 -0.2448 -0.2559
  533PYPI   C3B 8271   6.081  15.616   8.276 -0.2731 -0.0187 -0.0086
  533PYPI   C4B 8272   6.440  15.366   7.968 -0.0608 -0.0365 -0.2554
  534PYPI    C1 8273   8.803  10.822   9.940  0.1676  0.0328 -0.1209
  534PYPI    C2 8274   8.852  11.071  10.249  0.1059 -0.0636 -0.0328
  534PYPI    C3 8275   8.784  10.682  10.314 -0.0178 -0.0649 -0.1660
  534PYPI   PO4 8276   8.640  10.947   9.786 -0.0977 -0.1375 -0.3487
  534PYPI   GL1 8277   8.399  10.777   9.466  0.0058  0.0988 -0.3127
  534PYPI   GL2 8278   8.666  10.624   9.431 -0.0204 -0.3704  0.0385
  534PYPI   C1A 8279   8.468  10.957   9.118  0.0101  0.2069 -0.0529
  534PYPI   C2A 8280   8.515  10.968   8.732 -0.5733 -0.1449 -0.0658
  534PYPI   D3A 8281   8.531  11.074   8.366 -0.4253 -0.1163  0.3347
  534PYPI   C4A 8282   8.966  11.004   8.176 -0.3243 -0.0395  0.2212
  534PYPI   C1B 8283   8.732  10.525   8.948 -0.2706 -0.0523 -0.0628
  534PYPI   C2B 8284   8.744  10.606   8.520 -0.1274 -0.0270  0.0814
  534PYPI   C3B 8285   8.632  10.632   8.137  0.1346 -0.1300  0.1363
  534PYPI   C4B 8286   8.544  10.509   7.671 -0.1197  0.1960  0.0993
  535PYPI    C1 8287  13.195  17.830  10.606  0.1726  0.0550 -0.1114
  535PYPI    C2 8288  13.213  17.448  10.724  0.1085  0.0732 -0.0420
  535PYPI    C3 8289  13.408  17.730  10.929 -0.0764  0.1176  0.0756
  535PYPI   PO4 8290  13.186  17.753  10.329  0.2923 -0.1033  0.1408
  535PYPI   GL1 8291  13.007  17.787  10.005 -0.2358 -0.0637  0.1608
  535PYPI   GL2 8292  12.957  17.407  10.011 -0.2314  0.2361 -0.1562
  535PYPI   C1A 8293  12.948  17.729   9.486 -0.0675  0.2616 -0.2887
  535PYPI   C2A 8294  13.023  17.745   9.010  0.1236  0.2936 -0.1624
  535PYPI   D3A 8295  12.905  17.719   8.521  0.0200  0.1568 -0.2340
  535PYPI   C4A 8296  12.551  17.899   8.222  0.3381  0.3740  0.4492
  535PYPI   C1B 8297  12.820  17.216   9.599  0.1599 -0.1242 -0.1507
  535PYPI   C2B 8298  12.678  17.134   9.154  0.0623 -0.2587  0.0714
  535PYPI   C3B 8299  12.711  17.164   8.665  0.3560 -0.1086  0.0182
  535PYPI   C4B 8300  12.528  17.426   8.310 -0.1527 -0.0172 -0.0831
  536PYPI    C1 8301  11.578   5.162  10.053 -0.0846  0.1735 -0.0588
  536PYPI    C2 8302  11.192   5.069  10.099 -0.0141  0.0012  0.2058
  536PYPI    C3 8303  11.366   5.329  10.348  0.0025  0.1997 -0.0106
  536PYPI   PO4 8304  11.598   5.233   9.792 -0.1600 -0.1747  0.1881
  536PYPI   GL1 8305  11.600   5.071   9.353  0.0864  0.0780  0.2145
  536PYPI   GL2 8306  11.902   4.963   9.335  0.2207 -0.1248  0.1796
  536PYPI   C1A 8307  11.486   4.920   8.960 -0.0581 -0.3771  0.2649
  536PYPI   C2A 8308  11.341   4.818   8.607  0.1716  0.0180 -0.1127
  536PYPI   D3A 8309  11.122   4.553   8.348 -0.2143 -0.1554 -0.1044
  536PYPI   C4A 8310  11.246   4.838   7.959  0.2665 -0.1754 -0.0093
  536PYPI   C1B 8311  11.998   4.917   8.960  0.0480  0.4086 -0.1401
  536PYPI   C2B 8312  11.788   4.941   8.510 -0.2438  0.0990 -0.2987
  536PYPI   C3B 8313  11.605   4.611   8.250 -0.0370  0.0436  0.0784
  536PYPI   C4B 8314  11.678   4.216   8.162  0.3711 -0.0856 -0.0545
  537PYPI    C1 8315   4.969  13.551  10.778 -0.0126  0.1845 -0.2180
  537PYPI    C2 8316   5.096  13.201  10.632  0.0830  0.1906 -0.1507
  537PYPI    C3 8317   4.706  13.291  10.626  0.0560  0.0754 -0.1516
  537PYPI   PO4 8318   5.096  13.723  10.604 -0.0404 -0.1122 -0.3320
  537PYPI   GL1 8319   5.148  13.851  10.245 -0.1629  0.2726 -0.2155
  537PYPI   GL2 8320   5.197  13.752   9.975 -0.0234  0.1089 -0.1457
  537PYPI   C1A 8321   5.314  14.251   9.970 -0.3235 -0.1326  0.1632
  537PYPI   C2A 8322   5.480  14.552   9.649  0.3253  0.0195 -0.1907
  537PYPI   D3A 8323   5.734  14.830   9.420  0.1698  0.1224  0.3114
  537PYPI   C4A 8324   5.745  14.685   8.939  0.0624 -0.0193 -0.0196
  537PYPI   C1B 8325   5.091  13.485   9.601  0.0337 -0.1499  0.0004
  537PYPI   C2B 8326   5.144  13.549   9.228  0.0032  0.1135 -0.3792
  537PYPI   C3B 8327   5.205  13.490   8.908 -0.2007 -0.3338  0.3317
  537PYPI   C4B 8328   5.230  13.686   8.522  0.2112 -0.0218  0.0480
  538PYPI    C1 8329   1.273   9.282  10.410 -0.0446  0.0255 -0.1639
  538PYPI    C2 8330   1.498   9.606  10.479 -0.1316  0.0157  0.1833
  538PYPI    C3 8331   1.175   9.534  10.705 -0.3571 -0.0911 -0.1645
  538PYPI   PO4 8332   1.378   9.273  10.103 -0.1036 -0.0209  0.1907
  538PYPI   GL1 8333   1.705   9.184   9.847  0.1966 -0.2908 -0.0932
  538PYPI   GL2 8334   1.968   9.131   9.749  0.1514 -0.1573  0.3195
  538PYPI   C1A 8335   1.802   9.550   9.511 -0.5339  0.1187 -0.4947
  538PYPI   C2A 8336   1.791   9.431   9.133 -0.1019  0.0233  0.1946
  538PYPI   D3A 8337   1.961   9.564   8.661  0.3229 -0.1949 -0.0786
  538PYPI   C4A 8338   1.900   9.286   8.332 -0.1287  0.2274  0.0209
  538PYPI   C1B 8339   2.111   9.069   9.284 -0.0239 -0.0971 -0.1695
  538PYPI   C2B 8340   2.282   9.235   8.897 -0.1225  0.0798  0.0270
  538PYPI   C3B 8341   2.526   9.526   8.798  0.1974 -0.2584 -0.1137
  538PYPI   C4B 8342   2.890   9.704   8.470  0.1036 -0.0710 -0.2180
  539PYPI    C1 8343  17.229  12.274  10.203  0.0870 -0.1064  0.0597
  539PYPI    C2 8344  17.548  12.069  10.331  0.0486 -0.2057 -0.0022
  539PYPI    C3 8345  17.209  12.068  10.545  0.0755 -0.1356  0.0414
  539PYPI   PO4 8346  17.181  12.404   9.869  0.2687 -0.0683 -0.1683
  539PYPI   GL1 8347  17.376  12.226   9.510  0.1611  0.2902 -0.1886
  539PYPI   GL2 8348  17.125  12.051   9.493  0.1036 -0.0582 -0.2452
  539PYPI   C1A 8349  17.199  12.422   9.105 -0.2332 -0.1506  0.0035
  539PYPI   C2A 8350  17.086  12.642   8.726 -0.2524 -0.2247 -0.2789
  539PYPI   D3A 8351  17.222  12.749   8.307 -0.1195  0.1020 -0.0651
  539PYPI   C4A 8352  17.035  12.799   7.909  0.2902 -0.0368  0.0160
  539PYPI   C1B 8353  16.725  12.326   9.365  0.2720 -0.2968 -0.2380
  539PYPI   C2B 8354  16.754  12.741   9.090  0.0555 -0.0154 -0.0124
  539PYPI   C3B 8355  16.334  12.932   9.066 -0.1981 -0.0161 -0.3300
  539PYPI   C4B 8356  16.295  13.238   8.750  0.1757  0.0197  0.0600
  540ERGO   ROH 8357   2.447   7.216   9.705 -0.1276 -0.1289 -0.0205
  540ERGO    R1 8358   2.378   7.259   9.434 -0.0346  0.0333 -0.0196
  540ERGO    R2 8359   2.536   7.407   9.262  0.0989  0.0165  0.0841
  540ERGO    R3 8360   2.523   7.183   9.109  0.0013  0.0899 -0.0161
  540ERGO    R4 8361   2.539   7.403   8.917  0.1530  0.1599  0.0820
  540ERGO    R5 8362   2.388   7.246   8.922  0.0679  0.2415 -0.0117
  540ERGO    C1 8363   2.528   7.190   8.572  0.0929  0.3123 -0.0131
  540ERGO    C2 8364   2.514   7.078   8.211  0.0756 -0.0619 -0.3674
  541ERGO   ROH 8365   0.471  10.825   9.245 -0.0558  0.2431  0.0637
  541ERGO    R1 8366   0.631  10.773   9.017 -0.1647  0.1210  0.0138
  541ERGO    R2 8367   0.522  10.720   8.768 -0.2830  0.2282  0.0407
  541ERGO    R3 8368   0.682  10.926   8.691 -0.1298  0.0984  0.0089
  541ERGO    R4 8369   0.575  10.818   8.441  0.0046 -0.0295  0.0065
  541ERGO    R5 8370   0.785  10.849   8.489 -0.0158 -0.0944  0.1379
  541ERGO    C1 8371   0.757  11.068   8.178  0.3159 -0.3014 -0.0434
  541ERGO    C2 8372   0.592  11.127   7.929 -0.1054  0.0143 -0.2022
  542ERGO   ROH 8373   8.405  12.242   9.224 -0.1591 -0.2374  0.0522
  542ERGO    R1 8374   8.307  12.372   8.992 -0.0062 -0.1655  0.0262
  542ERGO    R2 8375   8.325  12.260   8.740 -0.0480 -0.1920  0.0339
  542ERGO    R3 8376   8.056  12.304   8.737 -0.0129  0.0293 -0.0201
  542ERGO    R4 8377   8.121  12.224   8.463 -0.0607 -0.2622  0.0525
  542ERGO    R5 8378   8.015  12.404   8.524  0.0842 -0.1194 -0.1095
  542ERGO    C1 8379   7.751  12.244   8.299 -0.0351 -0.0952  0.0127
  542ERGO    C2 8380   7.648  12.186   7.965  0.0335 -0.2593  0.1150
  543ERGO   ROH 8381   8.251  15.893  10.266 -0.1636  0.0934  0.0478
  543ERGO    R1 8382   8.277  15.972   9.996  0.0880  0.1537  0.0877
  543ERGO    R2 8383   8.061  16.046   9.841  0.2111  0.0273 -0.1432
  543ERGO    R3 8384   8.208  16.271   9.800  0.1034  0.1377  0.0555
  543ERGO    R4 8385   8.008  16.274   9.586  0.3394  0.0114 -0.1849
  543ERGO    R5 8386   8.224  16.290   9.562  0.3664  0.1673  0.0685
  543ERGO    C1 8387   8.117  16.618   9.400  0.3131  0.1060 -0.0227
  543ERGO    C2 8388   7.985  16.870   9.332 -0.0001 -0.0072 -0.0735
  544ERGO   ROH 8389  14.476   0.641   9.626 -0.1903 -0.0527  0.0535
  544ERGO    R1 8390  14.348   0.606   9.376 -0.1233 -0.2722  0.0476
  544ERGO    R2 8391  14.442   0.723   9.143 -0.3473 -0.0500  0.0661
  544ERGO    R3 8392  14.435   0.467   9.051  0.1592 -0.0591  0.0280
  544ERGO    R4 8393  14.455   0.633   8.810 -0.2408  0.0329  0.0475
  544ERGO    R5 8394  14.306   0.480   8.850  0.0781 -0.2916  0.0613
  544ERGO    C1 8395  14.458   0.340   8.529  0.2967  0.0727  0.0008
  544ERGO    C2 8396  14.311   0.258   8.250 -0.1661  0.1276  0.2991
  545ERGO   ROH 8397   3.585   6.382   9.988  0.2087  0.2346  0.0907
  545ERGO    R1 8398   3.665   6.508   9.747  0.0812  0.1173 -0.0151
  545ERGO    R2 8399   3.782   6.368   9.539  0.1545  0.0472  0.0705
  545ERGO    R3 8400   3.581   6.481   9.394  0.0482 -0.2082  0.0147
  545ERGO    R4 8401   3.742   6.335   9.197  0.2438 -0.0703  0.0711
  545ERGO    R5 8402   3.685   6.546   9.188  0.0081 -0.1344  0.0179
  545ERGO    C1 8403   3.531   6.422   8.862  0.1960 -0.3784  0.0191
  545ERGO    C2 8404   3.656   6.392   8.549 -0.0306 -0.1297  0.0894
  546ERGO   ROH 8405  12.527  12.067   9.646  0.2539  0.0995  0.0899
  546ERGO    R1 8406  12.542  12.086   9.364  0.1098 -0.0233  0.0733
  546ERGO    R2 8407  12.662  12.300   9.236  0.1537 -0.1407 -0.0769
  546ERGO    R3 8408  12.806  12.104   9.114 -0.0166 -0.2659 -0.0833
  546ERGO    R4 8409  12.770  12.309   8.908  0.3127 -0.1338 -0.0255
  546ERGO    R5 8410  12.721  12.098   8.891  0.0715 -0.0773 -0.1279
  546ERGO    C1 8411  12.969  12.131   8.603  0.2453 -0.2474 -0.0015
  546ERGO    C2 8412  13.183  12.144   8.297  0.1347  0.1295 -0.1332
  547ERGO   ROH 8413  15.936  13.050   9.548  0.1875 -0.1371 -0.1418
  547ERGO    R1 8414  15.808  13.039   9.296  0.0229  0.0166 -0.0685
  547ERGO    R2 8415  15.728  13.265   9.160  0.1710  0.1186 -0.0029
  547ERGO    R3 8416  15.876  13.157   8.959 -0.0513 -0.0213 -0.0947
  547ERGO    R4 8417  15.768  13.405   8.847  0.4509  0.2904  0.1069
  547ERGO    R5 8418  15.752  13.206   8.761  0.0424  0.3920 -0.0549
  547ERGO    C1 8419  15.930  13.386   8.476  0.4051  0.2591  0.0846
  547ERGO    C2 8420  15.927  13.487   8.236  0.0106  0.0459  0.0348
  548ERGO   ROH 8421   7.458   1.306   9.791 -0.0658  0.2937  0.1541
  548ERGO    R1 8422   7.417   1.188   9.537 -0.0885  0.2328  0.1861
  548ERGO    R2 8423   7.444   1.329   9.301 -0.0160  0.1518  0.1466
  548ERGO    R3 8424   7.615   1.128   9.238 -0.0858  0.0684  0.2197
  548ERGO    R4 8425   7.529   1.237   8.979  0.2245  0.2411  0.1829
  548ERGO    R5 8426   7.520   1.028   9.042  0.0298  0.2170  0.0841
  548ERGO    C1 8427   7.740   0.994   8.733  0.2990  0.2149  0.2726
  548ERGO    C2 8428   7.658   1.003   8.494 -0.1063 -0.0862 -0.0356
  549ERGO   ROH 8429   1.173  14.477   9.625 -0.1071  0.2145 -0.0463
  549ERGO    R1 8430   1.322  14.348   9.421 -0.1027  0.0814  0.0383
  549ERGO    R2 8431   1.255  14.368   9.153 -0.0122  0.0285  0.0053
  549ERGO    R3 8432   1.513  14.450   9.129  0.0321 -0.0945  0.0659
  549ERGO    R4 8433   1.444  14.346   8.864 -0.0119  0.1237 -0.0007
  549ERGO    R5 8434   1.615  14.287   8.986 -0.0497 -0.0483 -0.0386
  549ERGO    C1 8435   1.795  14.410   8.673  0.0299  0.0637  0.0527
  549ERGO    C2 8436   2.004  14.558   8.390  0.2650 -0.2118  0.2696
  550ERGO   ROH 8437   3.323  16.639   9.894  0.0817  0.0766  0.2606
  550ERGO    R1 8438   3.332  16.563   9.622 -0.1376  0.0395  0.2615
  550ERGO    R2 8439   3.142  16.643   9.438  0.0083  0.4780  0.2895
  550ERGO    R3 8440   3.358  16.733   9.301  0.2057 -0.0253  0.2512
  550ERGO    R4 8441   3.180  16.624   9.095 -0.0218  0.2445  0.2973
  550ERGO    R5 8442   3.389  16.572   9.126 -0.1209 -0.1746  0.3224
  550ERGO    C1 8443   3.406  16.698   8.767  0.1459 -0.3639  0.2660
  550ERGO    C2 8444   3.305  16.586   8.486 -0.2492  0.0470  0.2753
  551ERGO   ROH 8445  14.018  18.116   9.857  0.1724 -0.3860  0.1190
  551ERGO    R1 8446  13.847  18.104   9.632  0.1102 -0.2250  0.1580
  551ERGO    R2 8447  13.922  18.201   9.384  0.1068 -0.2068  0.1698
  551ERGO    R3 8448  13.855  17.950   9.302 -0.0667 -0.1447  0.1136
  551ERGO    R4 8449  13.749  18.127   9.094  0.4148 -0.0368 -0.0650
  551ERGO    R5 8450  13.638  17.976   9.205  0.0853  0.0966 -0.1894
  551ERGO    C1 8451  13.584  17.849   8.849  0.4314  0.1203 -0.2544
  551ERGO    C2 8452  13.360  17.830   8.598  0.0644 -0.1006 -0.0496
  552ERGO   ROH 8453   1.759  10.099   9.665  0.0037 -0.0547  0.1740
  552ERGO    R1 8454   1.864  10.083   9.403  0.0587  0.0467  0.1886
  552ERGO    R2 8455   1.750   9.926   9.206  0.2503 -0.0863  0.1761
  552ERGO    R3 8456   1.749  10.160   9.067  0.0206 -0.0889  0.1712
  552ERGO    R4 8457   1.758   9.951   8.861  0.4227 -0.0805  0.1803
  552ERGO    R5 8458   1.895  10.119   8.881  0.1860  0.1039  0.2589
  552ERGO    C1 8459   1.762  10.184   8.530  0.3075 -0.0795  0.1781
  552ERGO    C2 8460   1.704  10.272   8.228 -0.1834 -0.2484 -0.1669
  553ERGO   ROH 8461   8.929  12.085   9.337  0.0226  0.0928  0.2657
  553ERGO    R1 8462   8.952  12.134   9.059 -0.0441 -0.0434  0.2369
  553ERGO    R2 8463   8.738  12.215   8.904 -0.0499 -0.0006  0.2763
  553ERGO    R3 8464   8.906  12.417   8.836  0.0341 -0.1183  0.1230
  553ERGO    R4 8465   8.716  12.400   8.613 -0.2255  0.0475  0.3174
  553ERGO    R5 8466   8.933  12.394   8.599 -0.2369 -0.1163  0.0846
  553ERGO    C1 8467   8.861  12.698   8.379 -0.2489 -0.0350  0.1974
  553ERGO    C2 8468   8.899  12.776   8.016  0.1324 -0.1430 -0.2772
  554ERGO   ROH 8469   0.327  11.809   9.106 -0.1732  0.2794  0.1092
  554ERGO    R1 8470   0.266  11.838   8.832 -0.0446  0.2810  0.0795
  554ERGO    R2 8471   0.460  11.842   8.635  0.0411  0.1600  0.1579
  554ERGO    R3 8472   0.312  11.641   8.529 -0.0181  0.2237  0.1208
  554ERGO    R4 8473   0.425  11.780   8.297  0.1970  0.1033  0.1519
  554ERGO    R5 8474   0.215  11.736   8.332  0.1505  0.2363  0.0426
  554ERGO    C1 8475   0.265  11.554   8.001  0.2322  0.1299  0.1136
  554ERGO    C2 8476   0.212  11.289   7.693 -0.1820  0.0346 -0.1756
  555ERGO   ROH 8477  14.141   6.900   9.503  0.0747  0.2474  0.0220
  555ERGO    R1 8478  14.013   6.996   9.269  0.1088 -0.0199 -0.1115
  555ERGO    R2 8479  14.104   7.218   9.130 -0.0699  0.0312 -0.1534
  555ERGO    R3 8480  14.102   7.045   8.920  0.2852 -0.0756 -0.0744
  555ERGO    R4 8481  14.131   7.309   8.798 -0.0884 -0.0853 -0.1873
  555ERGO    R5 8482  13.981   7.160   8.749  0.1660 -0.3499 -0.1773
  555ERGO    C1 8483  14.145   7.201   8.408  0.2342 -0.2533 -0.1330
  555ERGO    C2 8484  14.161   7.254   8.097 -0.3753 -0.1827  0.4477
  556ERGO   ROH 8485   1.591  11.780   9.357  0.0510  0.1696 -0.1406
  556ERGO    R1 8486   1.734  11.855   9.124  0.1344  0.0952 -0.1132
  556ERGO    R2 8487   1.872  12.093   9.105  0.0748  0.1223 -0.1665
  556ERGO    R3 8488   2.079  11.930   9.040  0.1525  0.1495  0.0034
  556ERGO    R4 8489   2.138  12.182   8.902  0.1166  0.0929 -0.1257
  556ERGO    R5 8490   2.129  11.984   8.812  0.2134  0.0329 -0.0141
  556ERGO    C1 8491   2.487  12.080   8.723  0.2140  0.1012  0.0575
  556ERGO    C2 8492   2.816  12.212   8.730  0.3331  0.0788  0.2727
  557ERGO   ROH 8493  14.725  15.612   9.483 -0.0566 -0.0909  0.0723
  557ERGO    R1 8494  14.879  15.724   9.274 -0.2564  0.1668  0.0593
  557ERGO    R2 8495  14.976  15.573   9.063  0.1031  0.2902  0.1347
  557ERGO    R3 8496  14.848  15.760   8.913 -0.2763 -0.0296  0.0393
  557ERGO    R4 8497  15.051  15.647   8.734 -0.0644  0.2556  0.0865
  557ERGO    R5 8498  15.022  15.858   8.780 -0.4675  0.2353 -0.0273
  557ERGO    C1 8499  14.975  15.865   8.402 -0.5179 -0.0648 -0.0311
  557ERGO    C2 8500  14.979  15.976   8.114 -0.2579 -0.3402  0.1180
  558ERGO   ROH 8501  13.102   3.770   9.392  0.0288 -0.0597 -0.0491
  558ERGO    R1 8502  13.014   3.698   9.132  0.0703  0.1701 -0.1309
  558ERGO    R2 8503  13.147   3.778   8.903  0.2869  0.1262 -0.0330
  558ERGO    R3 8504  13.149   3.511   8.850 -0.0064  0.1442 -0.1480
  558ERGO    R4 8505  13.253   3.636   8.606  0.4373  0.1121  0.0280
  558ERGO    R5 8506  13.087   3.496   8.619  0.2364  0.3263 -0.2244
  558ERGO    C1 8507  13.317   3.304   8.383  0.2496  0.1207 -0.0444
  558ERGO    C2 8508  13.323   3.183   8.101  0.3087  0.0798  0.2395
  559ERGO   ROH 8509  18.076  18.268  10.067  0.0084 -0.0134 -0.0173
  559ERGO    R1 8510  17.983  18.244   9.801  0.0652 -0.0634 -0.0332
  559ERGO    R2 8511  17.953  18.461   9.633 -0.0482 -0.0747 -0.0305
  559ERGO    R3 8512  18.112  18.315   9.468  0.0730  0.0319 -0.0099
  559ERGO    R4 8513  17.952  18.483   9.288 -0.0489 -0.1081 -0.0321
  559ERGO    R5 8514  17.972  18.266   9.280  0.1193 -0.0939 -0.0113
  559ERGO    C1 8515  18.100  18.357   8.932  0.0641 -0.0276 -0.0138
  559ERGO    C2 8516  18.140  18.576   8.622 -0.2089 -0.0743 -0.1518
  560ERGO   ROH 8517   9.002  16.586   9.957  0.1277 -0.0778  0.0638
  560ERGO    R1 8518   9.150  16.696   9.742  0.0946 -0.0995  0.0282
  560ERGO    R2 8519   9.295  16.539   9.566  0.0683 -0.1204  0.0162
  560ERGO    R3 8520   9.147  16.670   9.379  0.0337 -0.1383  0.0329
  560ERGO    R4 8521   9.399  16.607   9.244  0.1127  0.1095  0.0779
  560ERGO    R5 8522   9.306  16.803   9.260 -0.0306  0.0316  0.1420
  560ERGO    C1 8523   9.321  16.768   8.880  0.1060  0.2263  0.1295
  560ERGO    C2 8524   9.206  16.854   8.563 -0.1009  0.2121  0.0483
  561ERGO   ROH 8525  14.930  12.638   9.601 -0.0962  0.1260  0.0204
  561ERGO    R1 8526  14.856  12.629   9.328 -0.0459  0.0593  0.0106
  561ERGO    R2 8527  14.966  12.797   9.138 -0.0507  0.0427  0.0065
  561ERGO    R3 8528  15.021  12.563   9.011  0.0198  0.0341  0.0472
  561ERGO    R4 8529  14.984  12.756   8.795  0.1416  0.0386  0.0140
  561ERGO    R5 8530  14.882  12.565   8.817  0.1227  0.0337 -0.0349
  561ERGO    C1 8531  15.046  12.513   8.477  0.3196  0.0281  0.0566
  561ERGO    C2 8532  14.978  12.453   8.197 -0.0094 -0.1166  0.0713
  562ERGO   ROH 8533   7.120   6.568   9.554 -0.0641 -0.1601  0.0698
  562ERGO    R1 8534   6.891   6.585   9.389  0.0506 -0.1619 -0.0911
  562ERGO    R2 8535   6.729   6.809   9.382 -0.0969 -0.2681  0.0075
  562ERGO    R3 8536   6.777   6.795   9.114  0.1163  0.0275  0.0232
  562ERGO    R4 8537   6.537   6.962   9.138  0.0278 -0.0914  0.0157
  562ERGO    R5 8538   6.559   6.783   9.016  0.1929  0.0399 -0.1571
  562ERGO    C1 8539   6.470   7.037   8.746  0.3006  0.2891  0.0353
  562ERGO    C2 8540   6.245   7.232   8.546  0.5109  0.3400  0.1943
  563ERGO   ROH 8541  17.820  13.986   9.461 -0.1255 -0.1047 -0.0844
  563ERGO    R1 8542  17.712  14.098   9.225  0.1616 -0.0448 -0.1915
  563ERGO    R2 8543  17.844  14.091   8.982  0.1946 -0.5347 -0.1686
  563ERGO    R3 8544  17.613  13.977   8.896 -0.0553 -0.0920 -0.1105
  563ERGO    R4 8545  17.731  14.094   8.655  0.1288 -0.3424 -0.1451
  563ERGO    R5 8546  17.530  14.128   8.731  0.2041  0.0612 -0.1060
  563ERGO    C1 8547  17.447  13.989   8.385 -0.1440  0.1850 -0.0768
  563ERGO    C2 8548  17.281  14.061   8.146  0.4348  0.4930 -0.1378
  564ERGO   ROH 8549   9.870  12.315   9.374  0.1806 -0.0095  0.1893
  564ERGO    R1 8550   9.876  12.399   9.103  0.1336  0.0280  0.1993
  564ERGO    R2 8551  10.096  12.523   8.990  0.1340  0.0015  0.1633
  564ERGO    R3 8552  10.073  12.323   8.807  0.0496  0.0298  0.1438
  564ERGO    R4 8553  10.175  12.553   8.655  0.0155  0.0358  0.1386
  564ERGO    R5 8554   9.998  12.434   8.608 -0.0103  0.0607  0.1860
  564ERGO    C1 8555  10.199  12.384   8.288 -0.1328  0.0825  0.1060
  564ERGO    C2 8556  10.327  12.242   8.064 -0.1719 -0.3131  0.0488
  565ERGO   ROH 8557   9.578   1.770  10.046  0.0047  0.1031 -0.0156
  565ERGO    R1 8558   9.477   1.622   9.826  0.0413 -0.0081  0.0408
  565ERGO    R2 8559   9.355   1.742   9.610 -0.1044 -0.1313  0.0498
  565ERGO    R3 8560   9.541   1.604   9.468 -0.0477 -0.0308  0.0264
  565ERGO    R4 8561   9.321   1.650   9.279  0.0734  0.1852 -0.0600
  565ERGO    R5 8562   9.412   1.458   9.329  0.0085  0.1226 -0.1882
  565ERGO    C1 8563   9.476   1.466   8.953  0.2300  0.4638 -0.1460
  565ERGO    C2 8564   9.401   1.407   8.677 -0.2473 -0.0775  0.1186
  566ERGO   ROH 8565  14.700   8.052   9.486 -0.0516  0.2740  0.0759
  566ERGO    R1 8566  14.616   8.022   9.217  0.0615 -0.0261  0.0700
  566ERGO    R2 8567  14.481   8.221   9.080 -0.3006 -0.3466 -0.0625
  566ERGO    R3 8568  14.681   8.187   8.900 -0.1866 -0.0519  0.0038
  566ERGO    R4 8569  14.457   8.294   8.743 -0.2033 -0.1361 -0.0250
  566ERGO    R5 8570  14.571   8.112   8.701 -0.0296 -0.0113 -0.0995
  566ERGO    C1 8571  14.632   8.305   8.377 -0.0396  0.2629  0.0591
  566ERGO    C2 8572  14.454   8.538   8.016  0.2160 -0.0707  0.1062
  567ERGO   ROH 8573   0.262  14.277   9.278  0.0163  0.0494  0.0556
  567ERGO    R1 8574   0.357  14.350   9.021  0.0838  0.1124  0.0962
  567ERGO    R2 8575   0.288  14.211   8.793  0.2173  0.1081  0.0489
  567ERGO    R3 8576   0.209  14.456   8.706  0.1551  0.0894  0.0572
  567ERGO    R4 8577   0.346  14.337   8.476  0.3957  0.2378  0.1329
  567ERGO    R5 8578   0.389  14.531   8.566  0.2199  0.2300  0.2203
  567ERGO    C1 8579   0.306  14.640   8.210  0.4412  0.2958  0.1898
  567ERGO    C2 8580   0.366  14.707   7.959  0.0354  0.2821  0.0443
  568ERGO   ROH 8581   6.637   0.851   9.828  0.1588 -0.0352 -0.0391
  568ERGO    R1 8582   6.488   0.771   9.601 -0.0083  0.1332  0.0073
  568ERGO    R2 8583   6.454   0.933   9.380  0.1940  0.1377 -0.0247
  568ERGO    R3 8584   6.554   0.718   9.247 -0.1502 -0.0489  0.0070
  568ERGO    R4 8585   6.309   0.787   9.103 -0.0403  0.3267 -0.0045
  568ERGO    R5 8586   6.361   0.592   9.184 -0.3565  0.2510  0.0233
  568ERGO    C1 8587   6.318   0.501   8.816 -0.4998  0.2617  0.0371
  568ERGO    C2 8588   6.220   0.333   8.537  0.2354 -0.1259 -0.3020
  569ERGO   ROH 8589   2.660   3.490   9.640 -0.2139  0.1303 -0.0964
  569ERGO    R1 8590   2.720   3.481   9.363 -0.0906  0.1179 -0.0710
  569ERGO    R2 8591   2.648   3.682   9.188 -0.1250  0.0559 -0.1378
  569ERGO    R3 8592   2.913   3.680   9.128 -0.0963  0.1855 -0.0158
  569ERGO    R4 8593   2.778   3.706   8.869  0.0212  0.0876 -0.0758
  569ERGO    R5 8594   2.926   3.556   8.923  0.0693  0.1743  0.0065
  569ERGO    C1 8595   3.102   3.718   8.626  0.1334  0.2277  0.0749
  569ERGO    C2 8596   3.168   3.747   8.268 -0.0076  0.0016  0.1478
  570ERGO   ROH 8597  17.649  15.125   9.467  0.1268 -0.1662 -0.1977
  570ERGO    R1 8598  17.613  15.357   9.309  0.1793  0.1145  0.1844
  570ERGO    R2 8599  17.806  15.554   9.287  0.5023 -0.1964  0.0189
  570ERGO    R3 8600  17.776  15.508   9.021 -0.1866  0.1832  0.0116
  570ERGO    R4 8601  17.908  15.769   9.037  0.3588 -0.0983  0.0460
  570ERGO    R5 8602  17.724  15.723   8.929  0.0201  0.3958  0.3893
  570ERGO    C1 8603  17.938  15.852   8.641 -0.3717  0.3150  0.0548
  570ERGO    C2 8604  17.965  15.938   8.292 -0.2590 -0.2118 -0.1204
  571ERGO   ROH 8605   0.630   2.263   9.919 -0.2300  0.0116 -0.0400
  571ERGO    R1 8606   0.567   2.152   9.666 -0.1117  0.0026 -0.0665
  571ERGO    R2 8607   0.560   2.302   9.435 -0.0580  0.0061 -0.0671
  571ERGO    R3 8608   0.734   2.113   9.345  0.0175  0.0454 -0.0048
  571ERGO    R4 8609   0.619   2.231   9.102  0.0399 -0.0186 -0.0447
  571ERGO    R5 8610   0.625   2.019   9.153  0.0897 -0.0099 -0.0182
  571ERGO    C1 8611   0.816   2.012   8.823  0.1678  0.0038  0.0268
  571ERGO    C2 8612   0.944   1.957   8.463 -0.0797 -0.0892  0.1454
  572ERGO   ROH 8613   7.518  15.047   8.298 -0.2069  0.0002  0.0562
  572ERGO    R1 8614   7.640  14.795   8.258 -0.1718  0.0518 -0.1753
  572ERGO    R2 8615   7.595  14.580   8.426  0.2400  0.0320 -0.0808
  572ERGO    R3 8616   7.527  14.455   8.194 -0.1538  0.0030  0.0420
  572ERGO    R4 8617   7.533  14.241   8.394  0.3394  0.0018  0.0409
  572ERGO    R5 8618   7.640  14.244   8.205 -0.0262  0.0566 -0.1760
  572ERGO    C1 8619   7.434  13.927   8.158  0.0275 -0.0431  0.2269
  572ERGO    C2 8620   7.505  13.590   7.988 -0.2497 -0.2779  0.3710
  573ERGO   ROH 8621  16.245   1.399   9.712  0.0201 -0.1088  0.1969
  573ERGO    R1 8622  16.209   1.263   9.467  0.1504  0.1346  0.0386
  573ERGO    R2 8623  15.968   1.151   9.392  0.2916 -0.1542 -0.0092
  573ERGO    R3 8624  16.004   1.303   9.169 -0.0183  0.1858  0.1618
  573ERGO    R4 8625  15.842   1.076   9.079  0.4186 -0.0279 -0.0921
  573ERGO    R5 8626  16.030   1.144   8.992  0.2835  0.4439 -0.0323
  573ERGO    C1 8627  15.802   1.175   8.688  0.2016  0.3649  0.0202
  573ERGO    C2 8628  15.646   1.148   8.316  0.1274  0.1519 -0.2390
  574ERGO   ROH 8629   7.994  15.030  10.021 -0.0827  0.1271  0.0838
  574ERGO    R1 8630   7.838  14.999   9.787  0.1776  0.0925 -0.0898
  574ERGO    R2 8631   7.590  15.118   9.756 -0.0156 -0.3069 -0.1787
  574ERGO    R3 8632   7.702  15.216   9.529  0.0260  0.1311  0.0221
  574ERGO    R4 8633   7.420  15.295   9.513 -0.0995 -0.3420 -0.1452
  574ERGO    R5 8634   7.534  15.186   9.362  0.2294  0.0124 -0.1633
  574ERGO    C1 8635   7.426  15.490   9.158 -0.1093  0.0488  0.0629
  574ERGO    C2 8636   7.387  15.808   9.102 -0.1431 -0.1761 -0.3099
  575ERGO   ROH 8637  12.472  13.323   9.633  0.0808  0.1278  0.0643
  575ERGO    R1 8638  12.592  13.230   9.394 -0.0083  0.1610  0.0058
  575ERGO    R2 8639  12.457  13.226   9.153 -0.0515  0.3346  0.0224
  575ERGO    R3 8640  12.672  13.369   9.068  0.0135  0.2545  0.0518
  575ERGO    R4 8641  12.519  13.313   8.824  0.0837  0.2298  0.0191
  575ERGO    R5 8642  12.730  13.271   8.857  0.0589  0.1842  0.0994
  575ERGO    C1 8643  12.756  13.499   8.553  0.2235  0.0936  0.0448
  575ERGO    C2 8644  12.904  13.654   8.270  0.0144  0.0215  0.1522
  576ERGO   ROH 8645   9.045  10.956   9.475 -0.1408  0.0957  0.0881
  576ERGO    R1 8646   9.142  10.945   9.210 -0.1984  0.0040  0.0718
  576ERGO    R2 8647   8.977  10.968   8.990 -0.2428 -0.0538  0.1025
  576ERGO    R3 8648   9.150  11.166   8.921 -0.2414 -0.0883 -0.0011
  576ERGO    R4 8649   9.077  11.039   8.667 -0.4566 -0.0408  0.0357
  576ERGO    R5 8650   9.279  11.072   8.742 -0.3918 -0.1000 -0.1063
  576ERGO    C1 8651   9.298  11.266   8.414 -0.5797 -0.0657 -0.1004
  576ERGO    C2 8652   9.367  11.280   8.047 -0.2000  0.2641 -0.2655
  577ERGO   ROH 8653   6.013  15.247  10.225 -0.0466 -0.2316 -0.0740
  577ERGO    R1 8654   6.001  15.252   9.942 -0.0928 -0.0178 -0.0703
  577ERGO    R2 8655   5.764  15.284   9.803 -0.1183  0.0592 -0.0069
  577ERGO    R3 8656   5.899  15.488   9.686 -0.1631  0.1659  0.1240
  577ERGO    R4 8657   5.725  15.383   9.475  0.0401  0.0984 -0.0145
  577ERGO    R5 8658   5.941  15.412   9.463  0.0333  0.2333  0.1352
  577ERGO    C1 8659   5.830  15.633   9.173  0.0902  0.2215  0.1039
  577ERGO    C2 8660   5.887  15.896   8.889  0.3045 -0.1617  0.3503
  578ERGO   ROH 8661   2.220   3.034   9.711  0.0209 -0.1822 -0.1700
  578ERGO    R1 8662   2.335   3.072   9.456 -0.0427  0.0137 -0.1709
  578ERGO    R2 8663   2.183   3.129   9.231 -0.1014  0.1427 -0.0964
  578ERGO    R3 8664   2.353   3.341   9.211 -0.1419  0.1863  0.0074
  578ERGO    R4 8665   2.206   3.339   8.957  0.0411  0.1169 -0.1057
  578ERGO    R5 8666   2.422   3.340   8.982  0.0272  0.1774  0.0551
  578ERGO    C1 8667   2.378   3.659   8.779  0.0862  0.1428 -0.0136
  578ERGO    C2 8668   2.298   3.834   8.594 -0.0755  0.0113 -0.1090
  579ERGO   ROH 8669  11.462   5.561   9.411  0.1559 -0.3094  0.0815
  579ERGO    R1 8670  11.633   5.575   9.187  0.1587 -0.2928  0.0856
  579ERGO    R2 8671  11.603   5.413   8.965  0.0244 -0.1214 -0.0203
  579ERGO    R3 8672  11.600   5.649   8.832  0.2049 -0.0290  0.1334
  579ERGO    R4 8673  11.647   5.447   8.624 -0.2849  0.0241 -0.0497
  579ERGO    R5 8674  11.768   5.624   8.663  0.0012 -0.1594 -0.0595
  579ERGO    C1 8675  11.670   5.689   8.300 -0.2957  0.1954  0.0775
  579ERGO    C2 8676  11.515   5.538   7.920  0.2637  0.1342 -0.1555
  580ERGO   ROH 8677   5.186   1.764   9.837 -0.0039  0.0391 -0.0374
  580ERGO    R1 8678   5.095   1.833   9.578 -0.0141  0.0152 -0.0413
  580ERGO    R2 8679   5.200   2.045   9.435 -0.0752  0.0562 -0.0340
  580ERGO    R3 8680   5.238   1.854   9.244 -0.0021  0.0697 -0.0316
  580ERGO    R4 8681   5.147   2.091   9.096 -0.1919 -0.0021 -0.0232
  580ERGO    R5 8682   5.060   1.891   9.088 -0.0639 -0.0564  0.0116
  580ERGO    C1 8683   5.151   1.939   8.721 -0.1911 -0.0235 -0.0146
  580ERGO    C2 8684   4.904   2.023   8.492  0.2459  0.0328  0.0463
  581ERGO   ROH 8685  17.086   4.051   9.604 -0.1174 -0.0505 -0.0011
  581ERGO    R1 8686  16.972   3.948   9.366 -0.0269  0.0230 -0.0748
  581ERGO    R2 8687  16.879   4.111   9.164  0.0920  0.0802 -0.0716
  581ERGO    R3 8688  17.046   3.962   9.010  0.1302  0.0897 -0.0430
  581ERGO    R4 8689  16.819   4.021   8.835 -0.0214 -0.2040  0.0216
  581ERGO    R5 8690  16.901   3.824   8.879  0.1528 -0.1206  0.1331
  581ERGO    C1 8691  16.941   3.830   8.500 -0.0518 -0.3605  0.1028
  581ERGO    C2 8692  17.017   3.763   8.166  0.0534  0.0583 -0.0118
  582ERGO   ROH 8693  17.068   3.558   9.737 -0.1438 -0.1084 -0.0257
  582ERGO    R1 8694  16.884   3.492   9.532 -0.0786  0.0429 -0.1368
  582ERGO    R2 8695  16.942   3.527   9.264  0.1135 -0.0073 -0.1127
  582ERGO    R3 8696  16.876   3.264   9.248 -0.0931  0.0465 -0.1358
  582ERGO    R4 8697  16.807   3.375   8.985  0.0752  0.0894 -0.1457
  582ERGO    R5 8698  16.675   3.262   9.117 -0.0505  0.1980 -0.1927
  582ERGO    C1 8699  16.666   3.039   8.807 -0.1411  0.1962 -0.1867
  582ERGO    C2 8700  16.579   2.957   8.432 -0.0665 -0.1636  0.2223
  583ERGO   ROH 8701  13.054   5.121   9.099 -0.0504 -0.1928  0.0915
  583ERGO    R1 8702  13.112   5.073   8.826  0.0247 -0.1865  0.1059
  583ERGO    R2 8703  12.990   4.872   8.681  0.0669 -0.1863  0.0677
  583ERGO    R3 8704  12.928   5.076   8.512  0.1095 -0.1832  0.0564
  583ERGO    R4 8705  12.956   4.841   8.339  0.0858 -0.1917  0.0665
  583ERGO    R5 8706  13.058   5.032   8.316  0.1157 -0.2089  0.0671
  583ERGO    C1 8707  12.878   5.014   7.981  0.1368 -0.1919  0.0552
  583ERGO    C2 8708  12.772   5.143   7.713 -0.1233 -0.1013 -0.0748
  584ERGO   ROH 8709   9.625  12.799   9.425 -0.2867 -0.0403 -0.0451
  584ERGO    R1 8710   9.612  12.789   9.142 -0.2429 -0.0918 -0.0459
  584ERGO    R2 8711   9.634  13.014   8.984 -0.2763 -0.1115 -0.0825
  584ERGO    R3 8712   9.831  12.871   8.864 -0.2224 -0.0831 -0.0265
  584ERGO    R4 8713   9.688  12.998   8.643 -0.2136 -0.1547 -0.0702
  584ERGO    R5 8714   9.731  12.786   8.664 -0.1665 -0.1392 -0.0294
  584ERGO    C1 8715   9.905  12.855   8.332 -0.1265 -0.1530 -0.0106
  584ERGO    C2 8716   9.823  13.046   8.052  0.1132 -0.1349 -0.1413
  585ERGO   ROH 8717   6.492   7.318   9.406 -0.1620 -0.2277  0.2151
  585ERGO    R1 8718   6.240   7.224   9.315 -0.1145 -0.2059  0.0575
  585ERGO    R2 8719   6.044   7.394   9.220 -0.0481 -0.1866 -0.0498
  585ERGO    R3 8720   6.053   7.230   9.003  0.0733 -0.1726 -0.0558
  585ERGO    R4 8721   5.818   7.400   8.959  0.0475 -0.2309 -0.1342
  585ERGO    R5 8722   5.823   7.182   8.956  0.1036 -0.2284 -0.1443
  585ERGO    C1 8723   5.694   7.249   8.603  0.2171 -0.2435 -0.1890
  585ERGO    C2 8724   5.708   7.361   8.292  0.2007  0.1125 -0.1225
  586ERGO   ROH 8725   9.200   5.043   9.550 -0.0048  0.1022 -0.0293
  586ERGO    R1 8726   9.362   4.961   9.333 -0.0193 -0.0520  0.0153
  586ERGO    R2 8727   9.336   4.714   9.213 -0.1969 -0.0473  0.0279
  586ERGO    R3 8728   9.310   4.862   8.987 -0.0238 -0.0384  0.0138
  586ERGO    R4 8729   9.381   4.593   8.892 -0.1317 -0.0685  0.0456
  586ERGO    R5 8730   9.482   4.780   8.842 -0.0130 -0.1286  0.0841
  586ERGO    C1 8731   9.382   4.662   8.493  0.0688 -0.0724  0.0428
  586ERGO    C2 8732   9.122   4.476   8.346 -0.1427  0.0608  0.0405
  587ERGO   ROH 8733   3.954   0.775   9.967 -0.0145 -0.0898  0.0118
  587ERGO    R1 8734   4.002   0.716   9.694  0.1400  0.0797  0.0015
  587ERGO    R2 8735   3.801   0.718   9.504  0.1966 -0.0816 -0.0539
  587ERGO    R3 8736   3.968   0.890   9.376  0.0309  0.1717  0.0610
  587ERGO    R4 8737   3.791   0.789   9.166  0.2569 -0.0350 -0.0469
  587ERGO    R5 8738   4.009   0.787   9.164  0.2703  0.2586  0.0570
  587ERGO    C1 8739   3.941   0.993   8.849  0.1366  0.2299  0.0650
  587ERGO    C2 8740   3.779   1.065   8.496 -0.1816  0.0766  0.0528
  588ERGO   ROH 8741   8.260   2.586   9.901  0.2820  0.1840  0.0916
  588ERGO    R1 8742   8.160   2.490   9.655  0.2218  0.0271  0.1751
  588ERGO    R2 8743   8.101   2.657   9.443 -0.1239 -0.0706  0.1840
  588ERGO    R3 8744   8.268   2.491   9.307 -0.0172  0.1032  0.1004
  588ERGO    R4 8745   8.101   2.614   9.100 -0.0859  0.1026  0.1621
  588ERGO    R5 8746   8.132   2.400   9.132  0.0466  0.1076  0.0517
  588ERGO    C1 8747   8.257   2.433   8.773  0.0364  0.3665  0.0707
  588ERGO    C2 8748   8.411   2.460   8.575 -0.0706 -0.1219 -0.2107
  589ERGO   ROH 8749   7.234  10.694   9.714 -0.1021  0.1222 -0.1389
  589ERGO    R1 8750   7.303  10.660   9.442 -0.1024  0.0591 -0.1310
  589ERGO    R2 8751   7.272  10.420   9.309 -0.1873  0.0533 -0.0992
  589ERGO    R3 8752   7.131  10.573   9.134 -0.1215  0.0829 -0.1274
  589ERGO    R4 8753   7.299  10.404   8.965 -0.1148  0.0546 -0.0939
  589ERGO    R5 8754   7.285  10.621   8.958 -0.0735  0.0580 -0.0929
  589ERGO    C1 8755   7.182  10.538   8.600 -0.0109  0.0830 -0.1173
  589ERGO    C2 8756   7.142  10.536   8.352 -0.0304 -0.2285  0.0432
  590ERGO   ROH 8757   6.892   8.453   9.896 -0.0848 -0.0132  0.1029
  590ERGO    R1 8758   6.877   8.502   9.618  0.0096 -0.0904  0.0834
  590ERGO    R2 8759   6.971   8.323   9.430  0.0046 -0.1771  0.1628
  590ERGO    R3 8760   6.720   8.344   9.330  0.0394 -0.1246  0.0857
  590ERGO    R4 8761   6.880   8.233   9.110  0.0916 -0.1281  0.1238
  590ERGO    R5 8762   6.752   8.410   9.102  0.1232 -0.1056  0.1026
  590ERGO    C1 8763   6.590   8.199   8.829  0.1749 -0.0502  0.0287
  590ERGO    C2 8764   6.394   8.054   8.693  0.2335 -0.0686 -0.2168
  591ERGO   ROH 8765   4.196  15.090   9.852  0.2675 -0.0655 -0.1126
  591ERGO    R1 8766   4.293  15.024   9.594  0.1228 -0.1976 -0.1340
  591ERGO    R2 8767   4.206  14.801   9.455 -0.1720 -0.1096 -0.0937
  591ERGO    R3 8768   4.152  14.984   9.261 -0.0143 -0.0612 -0.0941
  591ERGO    R4 8769   4.309  14.776   9.127 -0.2148 -0.2169 -0.0997
  591ERGO    R5 8770   4.351  14.990   9.128 -0.0130 -0.2523 -0.1069
  591ERGO    C1 8771   4.318  14.933   8.753 -0.0916 -0.2337 -0.1035
  591ERGO    C2 8772   4.207  14.863   8.345 -0.3695  0.1365  0.1646
  592ERGO   ROH 8773   9.599   6.225   9.434  0.1649  0.0998 -0.1565
  592ERGO    R1 8774   9.684   6.322   9.182  0.0997  0.0145 -0.2104
  592ERGO    R2 8775   9.818   6.163   9.000 -0.0816 -0.0871 -0.2494
  592ERGO    R3 8776   9.619   6.242   8.833 -0.1125  0.0049 -0.1720
  592ERGO    R4 8777   9.860   6.248   8.667 -0.1766 -0.2198 -0.2967
  592ERGO    R5 8778   9.719   6.411   8.696 -0.0515 -0.1040 -0.2722
  592ERGO    C1 8779   9.697   6.371   8.317 -0.2611 -0.2108 -0.2514
  592ERGO    C2 8780   9.573   6.164   8.020 -0.0436 -0.1385  0.0270
  593ERGO   ROH 8781   8.889   6.960   9.790 -0.2171 -0.2466  0.0127
  593ERGO    R1 8782   8.787   6.863   9.544 -0.1252 -0.1497 -0.0645
  593ERGO    R2 8783   8.715   7.031   9.337 -0.1176 -0.0636  0.0031
  593ERGO    R3 8784   8.886   6.875   9.194 -0.0362  0.0579 -0.0341
  593ERGO    R4 8785   8.773   7.061   8.997 -0.1682  0.0176  0.0011
  593ERGO    R5 8786   8.776   6.843   8.983 -0.0382  0.0198 -0.0279
  593ERGO    C1 8787   8.967   6.932   8.666 -0.1213  0.1789 -0.0348
  593ERGO    C2 8788   8.977   7.025   8.379  0.0284 -0.1795 -0.0157
  594ERGO   ROH 8789  15.996  17.245   9.627 -0.0541  0.0678 -0.2704
  594ERGO    R1 8790  15.982  17.290   9.348  0.0409  0.0196 -0.2832
  594ERGO    R2 8791  16.207  17.331   9.193  0.1100 -0.2318 -0.2514
  594ERGO    R3 8792  16.103  17.125   9.048 -0.0618 -0.1660 -0.2250
  594ERGO    R4 8793  16.214  17.308   8.848  0.0117 -0.2368 -0.2537
  594ERGO    R5 8794  16.011  17.230   8.853 -0.0413 -0.1040 -0.2032
  594ERGO    C1 8795  16.122  17.102   8.511 -0.2067 -0.1776 -0.2301
  594ERGO    C2 8796  16.128  16.989   8.126  0.1429 -0.1657  0.0977
  595ERGO   ROH 8797   7.966   7.955   9.461 -0.1054 -0.1228 -0.0366
  595ERGO    R1 8798   7.933   7.851   9.199 -0.2273 -0.0675 -0.0468
  595ERGO    R2 8799   7.801   7.989   9.000 -0.1329  0.0794 -0.0280
  595ERGO    R3 8800   8.031   7.948   8.862 -0.1749 -0.1103 -0.0396
  595ERGO    R4 8801   7.852   8.078   8.670  0.0335  0.2731  0.0496
  595ERGO    R5 8802   7.959   7.890   8.641 -0.2154  0.1647 -0.0903
  595ERGO    C1 8803   8.098   8.091   8.348  0.0910  0.2077  0.0839
  595ERGO    C2 8804   7.890   8.171   8.053  0.1788  0.2093  0.3784
  596ERGO   ROH 8805   8.942  15.036   9.964 -0.0124 -0.0872 -0.0560
  596ERGO    R1 8806   9.024  14.971   9.701  0.0918 -0.1322 -0.0134
  596ERGO    R2 8807   8.955  14.733   9.578 -0.1064 -0.0313 -0.1043
  596ERGO    R3 8808   8.860  14.898   9.384  0.2181  0.1212 -0.1399
  596ERGO    R4 8809   8.934  14.652   9.243 -0.1345 -0.0069 -0.1083
  596ERGO    R5 8810   9.000  14.854   9.195  0.2086 -0.1107 -0.0950
  596ERGO    C1 8811   8.833  14.759   8.865  0.1539  0.1505 -0.1440
  596ERGO    C2 8812   8.572  14.811   8.605 -0.1358 -0.0269  0.2982
  597ERGO   ROH 8813   6.183   5.877   9.595 -0.1200 -0.0237  0.0576
  597ERGO    R1 8814   6.296   5.649   9.471 -0.0721 -0.0487  0.1476
  597ERGO    R2 8815   6.155   5.489   9.296  0.0053 -0.0665  0.1040
  597ERGO    R3 8816   6.365   5.539   9.131  0.0889 -0.1059  0.1973
  597ERGO    R4 8817   6.222   5.318   9.003 -0.1575  0.2110 -0.1021
  597ERGO    R5 8818   6.434   5.323   9.055 -0.1536 -0.0993 -0.0599
  597ERGO    C1 8819   6.459   5.264   8.679 -0.1738  0.3356 -0.1343
  597ERGO    C2 8820   6.773   5.306   8.472  0.2726  0.0664  0.0837
  598ERGO   ROH 8821   4.346  12.878   9.667  0.0502 -0.0277 -0.0430
  598ERGO    R1 8822   4.390  12.826   9.392 -0.0508  0.0350 -0.0716
  598ERGO    R2 8823   4.198  12.871   9.199 -0.0745  0.2125 -0.0088
  598ERGO    R3 8824   4.394  13.019   9.084 -0.0152  0.1338 -0.0094
  598ERGO    R4 8825   4.207  12.962   8.866  0.0266  0.1046 -0.0359
  598ERGO    R5 8826   4.421  12.923   8.866  0.0175  0.0590  0.0280
  598ERGO    C1 8827   4.397  13.154   8.564  0.1411 -0.0321 -0.0523
  598ERGO    C2 8828   4.400  13.152   8.231 -0.3956 -0.3703 -0.2340
  599ERGO   ROH 8829  18.076  16.858   9.565  0.0741 -0.6422 -0.1467
  599ERGO    R1 8830  18.134  16.831   9.289 -0.0268 -0.4063 -0.1927
  599ERGO    R2 8831  17.951  16.728   9.109 -0.0930 -0.2507 -0.2151
  599ERGO    R3 8832  17.999  16.962   8.978 -0.1406 -0.1374 -0.0345
  599ERGO    R4 8833  17.929  16.771   8.767 -0.0056 -0.0144 -0.1932
  599ERGO    R5 8834  18.107  16.895   8.775 -0.0538  0.0483 -0.0511
  599ERGO    C1 8835  17.960  17.016   8.444  0.0005  0.2297 -0.0108
  599ERGO    C2 8836  18.133  17.090   8.264  0.1849 -0.0370 -0.1614
  600ERGO   ROH 8837   7.378  11.639   9.706 -0.1689 -0.2683  0.1028
  600ERGO    R1 8838   7.297  11.545   9.451 -0.3224 -0.1151  0.0945
  600ERGO    R2 8839   7.061  11.623   9.332 -0.1113  0.4351  0.0195
  600ERGO    R3 8840   7.224  11.692   9.126  0.1157  0.0208  0.0479
  600ERGO    R4 8841   7.017  11.523   9.005 -0.3530  0.5674  0.0077
  600ERGO    R5 8842   7.233  11.495   8.990 -0.4004 -0.0163  0.0350
  600ERGO    C1 8843   7.146  11.529   8.620 -0.2806  0.2553  0.0273
  600ERGO    C2 8844   6.876  11.500   8.330  0.1342  0.0267 -0.1669
  601ERGO   ROH 8845   9.275  17.657  10.299 -0.0247  0.1828 -0.0335
  601ERGO    R1 8846   9.222  17.724  10.030 -0.0209  0.1557 -0.0406
  601ERGO    R2 8847   9.371  17.910   9.890  0.0386  0.0731 -0.0847
  601ERGO    R3 8848   9.400  17.706   9.713 -0.0540  0.0317 -0.0532
  601ERGO    R4 8849   9.432  17.949   9.552  0.2554 -0.0053 -0.0563
  601ERGO    R5 8850   9.294  17.786   9.513  0.1234  0.1168 -0.1167
  601ERGO    C1 8851   9.495  17.781   9.189  0.2948 -0.0899 -0.0101
  601ERGO    C2 8852   9.546  17.884   8.749  0.2770  0.2392 -0.1496
  602ERGO   ROH 8853  11.739   6.691   9.613  0.0201 -0.3630 -0.2689
  602ERGO    R1 8854  11.617   6.826   9.395  0.1554 -0.0096 -0.1341
  602ERGO    R2 8855  11.722   7.057   9.285  0.5158 -0.1142 -0.0350
  602ERGO    R3 8856  11.709   6.914   9.055  0.1651  0.0426 -0.1164
  602ERGO    R4 8857  11.669   7.192   8.972  0.2426  0.1125  0.1050
  602ERGO    R5 8858  11.539   7.024   8.927  0.0886  0.2269  0.1420
  602ERGO    C1 8859  11.625   7.136   8.573 -0.2457  0.3916  0.1103
  602ERGO    C2 8860  11.587   7.047   8.325 -0.0942 -0.2106  0.2381
  603ERGO   ROH 8861   8.646  13.751   9.639  0.0901 -0.1574 -0.0228
  603ERGO    R1 8862   8.453  13.684   9.443  0.1677 -0.0672 -0.1311
  603ERGO    R2 8863   8.364  13.866   9.255  0.2498  0.0172 -0.0895
  603ERGO    R3 8864   8.439  13.672   9.079  0.3155  0.0909 -0.1436
  603ERGO    R4 8865   8.300  13.872   8.915 -0.0744 -0.0798 -0.0340
  603ERGO    R5 8866   8.256  13.658   8.925  0.1836 -0.1335  0.0255
  603ERGO    C1 8867   8.334  13.693   8.553 -0.2015 -0.0671 -0.0525
  603ERGO    C2 8868   8.386  13.629   8.309 -0.0481  0.0826 -0.3190
  604ERGO   ROH 8869   4.138   8.696   9.831 -0.1329  0.0080 -0.0944
  604ERGO    R1 8870   4.135   8.924   9.664 -0.2501 -0.0149 -0.1255
  604ERGO    R2 8871   4.361   9.016   9.534 -0.2484  0.1982  0.0187
  604ERGO    R3 8872   4.202   8.997   9.314 -0.0795  0.0048 -0.0895
  604ERGO    R4 8873   4.444   9.133   9.219 -0.1694  0.2817  0.0707
  604ERGO    R5 8874   4.238   9.202   9.196 -0.2368  0.0438 -0.0711
  604ERGO    C1 8875   4.343   9.183   8.830  0.0351  0.1489 -0.0007
  604ERGO    C2 8876   4.515   9.073   8.458  0.0157  0.1955  0.1207
  605ERGO   ROH 8877  15.126  15.875   9.718 -0.0914  0.0621  0.0100
  605ERGO    R1 8878  15.080  16.043   9.495 -0.0084  0.0961  0.0178
  605ERGO    R2 8879  15.284  16.175   9.364  0.0586  0.0003  0.0206
  605ERGO    R3 8880  15.180  16.052   9.145 -0.0065  0.0610  0.0180
  605ERGO    R4 8881  15.373  16.244   9.037  0.0525 -0.0009  0.0193
  605ERGO    R5 8882  15.163  16.226   8.981  0.0421  0.0818  0.0370
  605ERGO    C1 8883  15.326  16.169   8.641 -0.0122  0.0555  0.0160
  605ERGO    C2 8884  15.403  16.363   8.380  0.1452  0.1067  0.2291
  606ERGO   ROH 8885  14.446   6.026   9.477  0.1440 -0.0602  0.0205
  606ERGO    R1 8886  14.532   6.190   9.263 -0.0003  0.0132  0.0174
  606ERGO    R2 8887  14.636   6.087   9.029  0.0882  0.0999  0.0185
  606ERGO    R3 8888  14.442   6.238   8.914 -0.0461 -0.0695  0.0173
  606ERGO    R4 8889  14.606   6.143   8.690  0.1801  0.2578  0.0354
  606ERGO    R5 8890  14.554   6.350   8.734 -0.0953  0.1727  0.1328
  606ERGO    C1 8891  14.406   6.318   8.384  0.1076  0.1906  0.0440
  606ERGO    C2 8892  14.467   6.247   8.057  0.1589  0.2013 -0.0579
  607ERGO   ROH 8893  15.746  16.327   9.517 -0.0752 -0.3059  0.0311
  607ERGO    R1 8894  15.878  16.279   9.271 -0.0349 -0.1499  0.0210
  607ERGO    R2 8895  15.819  16.060   9.111  0.0305 -0.0785 -0.0994
  607ERGO    R3 8896  15.782  16.251   8.921  0.0149  0.0121 -0.0070
  607ERGO    R4 8897  15.863  16.012   8.772  0.1178  0.1093 -0.1164
  607ERGO    R5 8898  15.954  16.209   8.760  0.0635  0.1455  0.0071
  607ERGO    C1 8899  15.853  16.162   8.396  0.1538  0.3039 -0.0397
  607ERGO    C2 8900  15.842  16.324   8.126 -0.0682 -0.1908  0.0036
  608ERGO   ROH 8901  11.121  16.196   9.991  0.0916 -0.1747 -0.1051
  608ERGO    R1 8902  11.076  16.241   9.715  0.0234 -0.1702 -0.0928
  608ERGO    R2 8903  11.235  16.409   9.564 -0.0856 -0.0781 -0.1017
  608ERGO    R3 8904  11.260  16.190   9.405 -0.0034 -0.0494 -0.1300
  608ERGO    R4 8905  11.362  16.412   9.242  0.1461 -0.0260 -0.0127
  608ERGO    R5 8906  11.206  16.269   9.185  0.1638  0.0060 -0.1538
  608ERGO    C1 8907  11.458  16.207   8.906  0.3582  0.0312  0.0126
  608ERGO    C2 8908  11.603  16.273   8.595  0.2411  0.0847  0.2165
  609ERGO   ROH 8909  15.296  11.923   9.620  0.0474 -0.0946  0.0983
  609ERGO    R1 8910  15.474  11.917   9.400 -0.0007  0.0327  0.0553
  609ERGO    R2 8911  15.519  11.689   9.251  0.1216  0.0682  0.0435
  609ERGO    R3 8912  15.452  11.850   9.043 -0.0375  0.0230  0.0579
  609ERGO    R4 8913  15.559  11.607   8.918  0.0535  0.0625  0.0365
  609ERGO    R5 8914  15.624  11.812   8.881 -0.0668  0.1014  0.0021
  609ERGO    C1 8915  15.519  11.711   8.528 -0.1356  0.0167  0.0460
  609ERGO    C2 8916  15.501  11.630   8.261 -0.0963 -0.0237  0.4054
  610ERGO   ROH 8917  14.263  14.880   9.346 -0.1201  0.0711 -0.0216
  610ERGO    R1 8918  14.356  14.739   9.119 -0.1902  0.0875 -0.0612
  610ERGO    R2 8919  14.346  14.844   8.864 -0.1697  0.1496 -0.0376
  610ERGO    R3 8920  14.612  14.786   8.865 -0.1915  0.0498 -0.0690
  610ERGO    R4 8921  14.533  14.768   8.584 -0.2167  0.1397 -0.0659
  610ERGO    R5 8922  14.636  14.615   8.700 -0.2661  0.0770 -0.1068
  610ERGO    C1 8923  14.891  14.669   8.421 -0.2644  0.0402 -0.1119
  610ERGO    C2 8924  15.090  14.487   8.169 -0.0537  0.3545 -0.1596
  611ERGO   ROH 8925   6.099   9.156   9.882 -0.0399  0.0345  0.1289
  611ERGO    R1 8926   6.049   8.971   9.674  0.2130  0.0461  0.0547
  611ERGO    R2 8927   5.842   9.001   9.495  0.0774 -0.2377  0.1607
  611ERGO    R3 8928   6.040   8.977   9.310  0.0509  0.2204  0.0599
  611ERGO    R4 8929   5.795   8.897   9.169  0.1503 -0.3903  0.1973
  611ERGO    R5 8930   5.980   8.782   9.184  0.4501  0.0495  0.1158
  611ERGO    C1 8931   5.953   8.814   8.805  0.1680 -0.0491  0.1238
  611ERGO    C2 8932   5.842   8.750   8.484  0.3050  0.1182  0.1038
  612ERGO   ROH 8933  11.216  18.101  10.188 -0.1276 -0.0735  0.0062
  612ERGO    R1 8934  11.061  18.167   9.960 -0.0404  0.1018 -0.0039
  612ERGO    R2 8935  11.108  18.392   9.808  0.2391  0.0350 -0.0132
  612ERGO    R3 8936  11.120  18.212   9.604  0.0279  0.0097 -0.0061
  612ERGO    R4 8937  11.122  18.475   9.472  0.0520  0.0076 -0.0293
  612ERGO    R5 8938  10.985  18.310   9.431 -0.0497  0.0572  0.0751
  612ERGO    C1 8939  11.142  18.354   9.086 -0.2554 -0.0322 -0.0320
  612ERGO    C2 8940  11.453  18.410   8.874 -0.0610 -0.0365  0.2049
  613ERGO   ROH 8941   0.356  10.353   9.199  0.1616 -0.3197 -0.0595
  613ERGO    R1 8942   0.258  10.300   8.938  0.0218 -0.2527 -0.0222
  613ERGO    R2 8943   0.424  10.277   8.718 -0.1032 -0.0934 -0.1383
  613ERGO    R3 8944   0.299  10.038   8.689 -0.0217 -0.1333 -0.1548
  613ERGO    R4 8945   0.447  10.075   8.439 -0.1103 -0.0256 -0.1876
  613ERGO    R5 8946   0.235  10.032   8.459 -0.0863 -0.1089 -0.1356
  613ERGO    C1 8947   0.343   9.732   8.249 -0.0379 -0.0235 -0.2319
  613ERGO    C2 8948   0.256   9.460   8.136 -0.0777  0.1803  0.3796
  614ERGO   ROH 8949   1.537   3.660   9.964  0.0241 -0.1187  0.1021
  614ERGO    R1 8950   1.669   3.544   9.742 -0.1181 -0.1788  0.0473
  614ERGO    R2 8951   1.533   3.448   9.522 -0.2390  0.1266 -0.0178
  614ERGO    R3 8952   1.700   3.615   9.386  0.0001 -0.0221  0.0876
  614ERGO    R4 8953   1.618   3.414   9.188 -0.2823  0.2077 -0.0370
  614ERGO    R5 8954   1.822   3.470   9.240 -0.2001 -0.1098  0.0027
  614ERGO    C1 8955   1.824   3.551   8.867 -0.0831  0.1154  0.0509
  614ERGO    C2 8956   1.904   3.566   8.507  0.1357  0.0639  0.3081
  615ERGO   ROH 8957  17.387   8.475   9.523 -0.2171 -0.0839 -0.1629
  615ERGO    R1 8958  17.442   8.403   9.255 -0.0774 -0.0153 -0.1540
  615ERGO    R2 8959  17.512   8.588   9.062 -0.1160  0.0528 -0.1054
  615ERGO    R3 8960  17.727   8.426   9.029 -0.0079  0.1838 -0.0490
  615ERGO    R4 8961  17.718   8.587   8.785 -0.2324 -0.0337 -0.1911
  615ERGO    R5 8962  17.724   8.369   8.797 -0.0652 -0.0222 -0.0008
  615ERGO    C1 8963  18.039   8.433   8.592 -0.1984  0.0389 -0.1879
  615ERGO    C2 8964  18.028   8.432   8.258 -0.3360 -0.1564 -0.0406
  616ERGO   ROH 8965  16.474   6.981   9.096  0.1402 -0.0627  0.1477
  616ERGO    R1 8966  16.533   6.871   8.842  0.0584  0.0027  0.1009
  616ERGO    R2 8967  16.402   6.649   8.742  0.1008 -0.0312  0.1337
  616ERGO    R3 8968  16.354   6.813   8.531 -0.0721 -0.0214  0.1784
  616ERGO    R4 8969  16.322   6.543   8.423  0.1095 -0.0297  0.1297
  616ERGO    R5 8970  16.450   6.700   8.343 -0.0248  0.0879  0.1324
  616ERGO    C1 8971  16.230   6.636   8.039 -0.0475 -0.0196  0.1692
  616ERGO    C2 8972  16.061   6.519   7.704 -0.1187 -0.1941 -0.1065
  617ERGO   ROH 8973   9.006  11.498   9.336 -0.0761  0.0190  0.0629
  617ERGO    R1 8974   9.131  11.666   9.145  0.0369  0.0117  0.1267
  617ERGO    R2 8975   9.178  11.587   8.884  0.1840  0.0006  0.1415
  617ERGO    R3 8976   9.043  11.815   8.825  0.2132 -0.0021  0.0751
  617ERGO    R4 8977   9.178  11.742   8.575 -0.0700 -0.2445  0.0159
  617ERGO    R5 8978   9.189  11.934   8.677  0.0985 -0.1729 -0.1645
  617ERGO    C1 8979   9.051  12.046   8.340 -0.1905 -0.3896 -0.1198
  617ERGO    C2 8980   9.055  12.163   8.039  0.2629  0.5231  0.1314
  618ERGO   ROH 8981   4.644  10.433   9.496  0.0996 -0.1692  0.0401
  618ERGO    R1 8982   4.758  10.216   9.355 -0.3026 -0.3077 -0.0829
  618ERGO    R2 8983   4.632  10.096   9.140 -0.3161  0.3928 -0.4917
  618ERGO    R3 8984   4.866  10.151   9.013  0.0926 -0.1017 -0.0047
  618ERGO    R4 8985   4.757   9.920   8.870 -0.4359  0.4698 -0.5992
  618ERGO    R5 8986   4.956   9.936   8.957 -0.4952 -0.3126 -0.2258
  618ERGO    C1 8987   5.049   9.870   8.593 -0.1219  0.0503 -0.2046
  618ERGO    C2 8988   5.060   9.899   8.266 -0.2255  0.1959  0.1067
  619ERGO   ROH 8989   2.401  13.441   9.678  0.1750 -0.0270 -0.0164
  619ERGO    R1 8990   2.488  13.586   9.450  0.0658 -0.0675 -0.0835
  619ERGO    R2 8991   2.554  13.462   9.211  0.0043 -0.1143 -0.0740
  619ERGO    R3 8992   2.371  13.635   9.109 -0.0649 -0.1749 -0.0562
  619ERGO    R4 8993   2.480  13.495   8.875  0.1974  0.0838 -0.1003
  619ERGO    R5 8994   2.470  13.710   8.904  0.0133  0.0593  0.0613
  619ERGO    C1 8995   2.266  13.676   8.583  0.2449  0.1423 -0.0990
  619ERGO    C2 8996   2.153  13.533   8.306  0.2734 -0.0333 -0.0808
  620ERGO   ROH 8997  15.578   7.672   9.530  0.4290  0.0714  0.0714
  620ERGO    R1 8998  15.628   7.730   9.257  0.2842 -0.0668  0.0130
  620ERGO    R2 8999  15.634   7.534   9.062  0.1845 -0.1691  0.1035
  620ERGO    R3 9000  15.449   7.694   8.942  0.1171 -0.2337  0.1275
  620ERGO    R4 9001  15.633   7.618   8.727  0.2573  0.0619  0.1600
  620ERGO    R5 9002  15.575   7.820   8.783  0.0785 -0.0286  0.2670
  620ERGO    C1 9003  15.460   7.817   8.419  0.2364  0.1359  0.2153
  620ERGO    C2 9004  15.352   7.741   8.151 -0.0526  0.1751  0.1275
  621ERGO   ROH 9005   5.499  16.382   9.984 -0.0435  0.0993 -0.0581
  621ERGO    R1 9006   5.344  16.286   9.767  0.0902  0.0823 -0.1454
  621ERGO    R2 9007   5.108  16.405   9.689  0.0384 -0.0467 -0.1708
  621ERGO    R3 9008   5.230  16.416   9.446  0.1049  0.1315 -0.1322
  621ERGO    R4 9009   4.954  16.337   9.387  0.1208  0.1427 -0.2581
  621ERGO    R5 9010   5.135  16.233   9.324  0.1521  0.2010 -0.2814
  621ERGO    C1 9011   4.979  16.308   8.984  0.2313  0.4201 -0.2726
  621ERGO    C2 9012   4.814  16.496   8.702 -0.1638 -0.1230  0.1728
  622ERGO   ROH 9013  15.863   1.560   9.815 -0.0423 -0.0193 -0.0965
  622ERGO    R1 9014  15.768   1.481   9.561 -0.0536 -0.0231 -0.0902
  622ERGO    R2 9015  15.521   1.558   9.464 -0.0312  0.0196 -0.1005
  622ERGO    R3 9016  15.667   1.647   9.253 -0.0121 -0.0333 -0.1111
  622ERGO    R4 9017  15.412   1.561   9.136 -0.0985  0.1439 -0.0780
  622ERGO    R5 9018  15.611   1.497   9.074 -0.1439  0.0276 -0.1275
  622ERGO    C1 9019  15.485   1.648   8.747 -0.1197  0.1667 -0.0747
  622ERGO    C2 9020  15.218   1.680   8.466  0.0548  0.0868 -0.0234
  623ERGO   ROH 9021   4.417  15.951   9.934 -0.1029  0.0069  0.0814
  623ERGO    R1 9022   4.378  16.182   9.775  0.2545  0.0858  0.0992
  623ERGO    R2 9023   4.549  16.253   9.570  0.2477 -0.2894 -0.0457
  623ERGO    R3 9024   4.321  16.255   9.423  0.1214  0.1773  0.1396
  623ERGO    R4 9025   4.530  16.339   9.236  0.2239 -0.6059 -0.1292
  623ERGO    R5 9026   4.345  16.445   9.279  0.5375 -0.0357 -0.0881
  623ERGO    C1 9027   4.305  16.391   8.904  0.0915 -0.3519 -0.0038
  623ERGO    C2 9028   4.142  16.329   8.644  0.1524  0.2017  0.2272
  624ERGO   ROH 9029   7.185   4.289   9.592  0.3706 -0.1316 -0.1282
  624ERGO    R1 9030   7.082   4.403   9.355  0.1219 -0.0671  0.0069
  624ERGO    R2 9031   7.244   4.499   9.153 -0.0841  0.1927 -0.0446
  624ERGO    R3 9032   7.097   4.331   8.998 -0.0471  0.1645 -0.0482
  624ERGO    R4 9033   7.218   4.521   8.809 -0.1584  0.2410 -0.0356
  624ERGO    R5 9034   7.006   4.473   8.828 -0.1336  0.1562 -0.0060
  624ERGO    C1 9035   7.065   4.377   8.463 -0.1669  0.2425 -0.0338
  624ERGO    C2 9036   7.318   4.487   8.199 -0.0150  0.0059  0.1572
  625ERGO   ROH 9037   8.108  18.078  10.085 -0.1382 -0.2576 -0.0339
  625ERGO    R1 9038   7.998  18.049   9.826 -0.1284 -0.1259 -0.0537
  625ERGO    R2 9039   7.781  18.196   9.739 -0.1017 -0.0546 -0.0005
  625ERGO    R3 9040   7.948  18.261   9.535 -0.0806  0.0117  0.0374
  625ERGO    R4 9041   7.679  18.303   9.427 -0.0698 -0.0005  0.0075
  625ERGO    R5 9042   7.836  18.181   9.339 -0.0412  0.0394  0.0038
  625ERGO    C1 9043   7.777  18.426   9.053 -0.0313  0.0932  0.0477
  625ERGO    C2 9044   7.914  18.495   8.745 -0.1453  0.0986  0.1866
  626ERGO   ROH 9045   3.279   4.303  10.091 -0.0534 -0.0556 -0.2322
  626ERGO    R1 9046   3.181   4.439   9.863  0.0782  0.0506 -0.2267
  626ERGO    R2 9047   3.343   4.598   9.704  0.2548 -0.1625 -0.2699
  626ERGO    R3 9048   3.249   4.438   9.505  0.0176 -0.0655 -0.2375
  626ERGO    R4 9049   3.337   4.682   9.369  0.2915 -0.1865 -0.2759
  626ERGO    R5 9050   3.141   4.589   9.354  0.1729  0.0540 -0.2289
  626ERGO    C1 9051   3.245   4.582   8.987  0.0901 -0.1094 -0.2492
  626ERGO    C2 9052   3.163   4.576   8.593 -0.1587 -0.1612 -0.1016
  627ERGO   ROH 9053   0.060   0.688   9.922  0.1119 -0.1523 -0.0304
  627ERGO    R1 9054   0.041   0.829   9.676  0.2030 -0.1718 -0.0486
  627ERGO    R2 9055   0.101   0.712   9.434 -0.1169 -0.3240 -0.0586
  627ERGO    R3 9056  -0.148   0.797   9.367 -0.0232  0.0664  0.0614
  627ERGO    R4 9057   0.002   0.802   9.115 -0.1732 -0.3459 -0.0474
  627ERGO    R5 9058  -0.111   0.967   9.203  0.1642 -0.0919 -0.0660
  627ERGO    C1 9059  -0.290   0.935   8.867 -0.1181  0.0077  0.0716
  627ERGO    C2 9060  -0.330   0.991   8.549  0.1770 -0.0216 -0.0182
  628ERGO   ROH 9061   6.729   5.538   9.362  0.1337 -0.2808 -0.0942
  628ERGO    R1 9062   6.777   5.722   9.152  0.1106 -0.1839 -0.0152
  628ERGO    R2 9063   6.788   5.645   8.887  0.1141 -0.0669 -0.0480
  628ERGO    R3 9064   6.599   5.838   8.856  0.0938 -0.0725  0.0375
  628ERGO    R4 9065   6.723   5.812   8.591 -0.0219 -0.0702 -0.0204
  628ERGO    R5 9066   6.699   5.996   8.706  0.0240 -0.0696 -0.0085
  628ERGO    C1 9067   6.507   6.091   8.391 -0.1202 -0.0775  0.0759
  628ERGO    C2 9068   6.476   6.202   8.047 -0.1105 -0.0952 -0.1504
  629ERGO   ROH 9069   6.167   3.716   9.984  0.1885  0.0520 -0.0367
  629ERGO    R1 9070   6.128   3.823   9.724  0.0279  0.0192 -0.0279
  629ERGO    R2 9071   6.329   3.828   9.534  0.0001  0.2615 -0.0567
  629ERGO    R3 9072   6.144   3.699   9.382  0.1271  0.0486 -0.0337
  629ERGO    R4 9073   6.293   3.865   9.192 -0.0861  0.2187 -0.0524
  629ERGO    R5 9074   6.077   3.861   9.220 -0.0795 -0.0283 -0.0267
  629ERGO    C1 9075   6.099   3.766   8.851 -0.0171 -0.0061 -0.0282
  629ERGO    C2 9076   6.354   3.741   8.720 -0.4204 -0.0808  0.2613
  630ERGO   ROH 9077  11.241  11.040   9.822 -0.0102 -0.1466 -0.0302
  630ERGO    R1 9078  11.422  11.091   9.611 -0.0467  0.0844 -0.0077
  630ERGO    R2 9079  11.497  10.898   9.428  0.1712  0.1950 -0.0371
  630ERGO    R3 9080  11.414  11.083   9.247 -0.0100  0.1431 -0.0105
  630ERGO    R4 9081  11.471  10.843   9.088  0.2092  0.2101 -0.0427
  630ERGO    R5 9082  11.551  11.043   9.055  0.0227  0.2933 -0.0215
  630ERGO    C1 9083  11.378  10.985   8.720  0.0613  0.1702 -0.0210
  630ERGO    C2 9084  11.419  10.707   8.462  0.3165  0.1403 -0.1755
  631ERGO   ROH 9085  17.951  11.439   9.481  0.0229  0.1892  0.1225
  631ERGO    R1 9086  17.967  11.612   9.258 -0.0036  0.1281  0.0738
  631ERGO    R2 9087  17.977  11.519   8.997 -0.1187  0.0595  0.0964
  631ERGO    R3 9088  17.764  11.685   8.964 -0.0827  0.1133  0.1235
  631ERGO    R4 9089  17.815  11.575   8.697 -0.2037  0.0206  0.1339
  631ERGO    R5 9090  17.800  11.786   8.750 -0.1237  0.0429  0.0807
  631ERGO    C1 9091  17.520  11.763   8.492 -0.2195  0.0486  0.1812
  631ERGO    C2 9092  17.327  11.744   8.161  0.3170  0.2473  0.3171
  632ERGO   ROH 9093   1.100   8.983   9.293  0.1316 -0.0924  0.0046
  632ERGO    R1 9094   1.010   8.958   9.025  0.0391 -0.0770  0.0338
  632ERGO    R2 9095   1.159   9.047   8.810 -0.0438 -0.0477 -0.0110
  632ERGO    R3 9096   1.126   8.792   8.722 -0.0549 -0.0430 -0.0211
  632ERGO    R4 9097   1.037   8.959   8.498 -0.1199 -0.0307  0.0136
  632ERGO    R5 9098   0.924   8.799   8.593 -0.0886 -0.0427  0.0310
  632ERGO    C1 9099   0.935   8.668   8.235 -0.1746 -0.0165  0.0182
  632ERGO    C2 9100   0.799   8.489   7.967  0.0602  0.0823  0.0585
  633ERGO   ROH 9101   8.306  17.617   9.988 -0.1583  0.2127  0.0175
  633ERGO    R1 9102   8.355  17.776   9.759 -0.0984  0.2576  0.0618
  633ERGO    R2 9103   8.374  17.669   9.504  0.0570  0.2966  0.0578
  633ERGO    R3 9104   8.182  17.854   9.448  0.0264  0.2441 -0.0127
  633ERGO    R4 9105   8.268  17.754   9.186  0.1311  0.2424  0.0184
  633ERGO    R5 9106   8.260  17.962   9.250  0.0598  0.2477  0.0005
  633ERGO    C1 9107   8.027  17.976   8.948  0.1455  0.1619 -0.0707
  633ERGO    C2 9108   8.043  17.911   8.569  0.2319  0.0416  0.2047
  634ERGO   ROH 9109  16.937   0.625   9.854  0.0811  0.1223  0.1647
  634ERGO    R1 9110  16.954   0.560   9.579  0.0796  0.0331  0.1856
  634ERGO    R2 9111  16.732   0.540   9.416  0.0816  0.0002  0.1899
  634ERGO    R3 9112  16.867   0.720   9.263  0.0986 -0.0604  0.1322
  634ERGO    R4 9113  16.701   0.570   9.073 -0.0042 -0.0299  0.1943
  634ERGO    R5 9114  16.917   0.601   9.062  0.0042 -0.1010  0.1311
  634ERGO    C1 9115  16.810   0.756   8.730 -0.0381 -0.1043  0.1426
  634ERGO    C2 9116  16.745   0.883   8.395 -0.0618 -0.0394 -0.0950
  635ERGO   ROH 9117  12.037   0.013   9.824 -0.0663  0.0142  0.1864
  635ERGO    R1 9118  12.017   0.086   9.551  0.0307  0.0084  0.1770
  635ERGO    R2 9119  11.952   0.342   9.470 -0.1637 -0.0439  0.1522
  635ERGO    R3 9120  12.182   0.319   9.326 -0.0506  0.1782  0.2932
  635ERGO    R4 9121  12.035   0.539   9.199 -0.1976  0.0031  0.1757
  635ERGO    R5 9122  12.115   0.361   9.100  0.0479  0.0759  0.2475
  635ERGO    C1 9123  12.299   0.633   8.906 -0.1115  0.2391  0.3217
  635ERGO    C2 9124  12.273   0.943   8.651 -0.2201 -0.0360 -0.1802
  636ERGO   ROH 9125  15.741   3.342   9.782  0.1639 -0.1347 -0.0011
  636ERGO    R1 9126  15.820   3.265   9.521  0.1116 -0.0213 -0.0504
  636ERGO    R2 9127  15.910   3.011   9.461  0.1990  0.0355 -0.1578
  636ERGO    R3 9128  15.713   3.020   9.274  0.1351  0.0099 -0.0925
  636ERGO    R4 9129  15.878   2.789   9.198 -0.0419 -0.1667  0.0363
  636ERGO    R5 9130  15.822   2.957   9.070  0.0222 -0.2328 -0.0834
  636ERGO    C1 9131  15.675   2.668   8.869 -0.2422 -0.3085  0.2107
  636ERGO    C2 9132  15.530   2.661   8.558  0.0670 -0.1800 -0.0175
  637ERGO   ROH 9133  17.855   9.633   9.194  0.0474  0.0673  0.0616
  637ERGO    R1 9134  17.885   9.650   8.913  0.0413  0.0379  0.0591
  637ERGO    R2 9135  17.979   9.441   8.760  0.0872  0.0400  0.0858
  637ERGO    R3 9136  17.749   9.480   8.622  0.0776 -0.0300  0.0815
  637ERGO    R4 9137  17.926   9.341   8.434  0.1051 -0.0251  0.1026
  637ERGO    R5 9138  17.821   9.529   8.399  0.0661 -0.0518  0.0725
  637ERGO    C1 9139  17.678   9.319   8.114  0.1065 -0.1287  0.1083
  637ERGO    C2 9140  17.764   9.171   7.824 -0.1631 -0.1397 -0.3220
  638ERGO   ROH 9141  16.618   2.324   9.443  0.3235 -0.2759  0.1255
  638ERGO    R1 9142  16.687   2.223   9.187  0.2566 -0.0702  0.0238
  638ERGO    R2 9143  16.594   1.981   9.093  0.3804 -0.0829 -0.0711
  638ERGO    R3 9144  16.511   2.132   8.882  0.1527 -0.0121  0.0667
  638ERGO    R4 9145  16.503   1.857   8.783  0.0042  0.0220 -0.0071
  638ERGO    R5 9146  16.605   2.025   8.691 -0.0839  0.0345 -0.0779
  638ERGO    C1 9147  16.371   1.926   8.406 -0.4293  0.1496  0.1595
  638ERGO    C2 9148  16.164   1.914   8.052 -0.0496  0.0995  0.1130
  639ERGO   ROH 9149  10.447   1.268   9.648  0.0814  0.1979 -0.1074
  639ERGO    R1 9150  10.496   1.362   9.385  0.1491  0.0039 -0.1665
  639ERGO    R2 9151  10.606   1.202   9.189 -0.0749 -0.2347 -0.1077
  639ERGO    R3 9152  10.385   1.277   9.049 -0.0136 -0.0406 -0.1016
  639ERGO    R4 9153  10.586   1.221   8.844 -0.0977 -0.3026 -0.1096
  639ERGO    R5 9154  10.471   1.404   8.865  0.0957 -0.1774 -0.1441
  639ERGO    C1 9155  10.367   1.302   8.513 -0.0535 -0.1599 -0.1048
  639ERGO    C2 9156  10.294   1.151   8.204 -0.2290 -0.0149  0.0933
  640ERGO   ROH 9157  10.276  14.890  10.058 -0.0022 -0.2186 -0.0792
  640ERGO    R1 9158  10.376  15.034   9.836  0.0882 -0.2029 -0.0294
  640ERGO    R2 9159  10.440  14.912   9.597 -0.0631 -0.1507 -0.1007
  640ERGO    R3 9160  10.271  15.098   9.493  0.0827  0.0514  0.0186
  640ERGO    R4 9161  10.416  14.990   9.261 -0.2884 -0.2062 -0.0987
  640ERGO    R5 9162  10.398  15.200   9.317  0.0501 -0.1644 -0.1323
  640ERGO    C1 9163  10.244  15.210   8.968 -0.2827 -0.0488  0.0146
  640ERGO    C2 9164  10.216  15.428   8.731 -0.0526  0.0095 -0.1492
  641ERGO   ROH 9165   2.473   6.766   9.975  0.0541 -0.0770 -0.0317
  641ERGO    R1 9166   2.624   6.777   9.737  0.0596 -0.0566 -0.0271
  641ERGO    R2 9167   2.585   6.602   9.528  0.0811 -0.0543 -0.0333
  641ERGO    R3 9168   2.557   6.830   9.383  0.0644 -0.0524 -0.0272
  641ERGO    R4 9169   2.561   6.614   9.183 -0.1290 -0.0622 -0.0199
  641ERGO    R5 9170   2.689   6.791   9.186 -0.0702 -0.1035 -0.1078
  641ERGO    C1 9171   2.520   6.836   8.846 -0.2670 -0.0650 -0.0064
  641ERGO    C2 9172   2.378   6.648   8.632 -0.1782 -0.1755 -0.2933
  642ERGO   ROH 9173   2.270   0.507  10.155  0.2766  0.1154 -0.0519
  642ERGO    R1 9174   2.134   0.501   9.907  0.2107  0.1009 -0.0160
  642ERGO    R2 9175   1.868   0.572   9.880  0.1665 -0.0208  0.0719
  642ERGO    R3 9176   1.966   0.741   9.691  0.0350  0.0658  0.0800
  642ERGO    R4 9177   1.735   0.611   9.564  0.0273  0.0299  0.1361
  642ERGO    R5 9178   1.938   0.621   9.485 -0.0088  0.1182  0.0564
  642ERGO    C1 9179   1.749   0.792   9.201 -0.1774  0.1407  0.1812
  642ERGO    C2 9180   1.564   0.966   8.948 -0.3858  0.1191  0.0470
  643ERGO   ROH 9181   4.682  13.773  10.166  0.1731 -0.1208 -0.1210
  643ERGO    R1 9182   4.667  13.737   9.886  0.1295 -0.0495 -0.1285
  643ERGO    R2 9183   4.572  13.934   9.715  0.0403 -0.0284 -0.0597
  643ERGO    R3 9184   4.811  13.896   9.591  0.0290  0.0718 -0.1120
  643ERGO    R4 9185   4.635  14.001   9.382 -0.0641 -0.0304 -0.0797
  643ERGO    R5 9186   4.753  13.818   9.372  0.0173  0.0258 -0.0904
  643ERGO    C1 9187   4.895  14.005   9.072 -0.1356  0.0626 -0.1402
  643ERGO    C2 9188   5.059  14.003   8.846  0.2227 -0.2029  0.0286
  644ERGO   ROH 9189  14.051   4.623   9.352 -0.0468  0.1947  0.1217
  644ERGO    R1 9190  14.072   4.476   9.110  0.0531  0.1420  0.1629
  644ERGO    R2 9191  13.852   4.406   8.958  0.1139  0.0501  0.1255
  644ERGO    R3 9192  13.989   4.531   8.760  0.1305  0.0329  0.1252
  644ERGO    R4 9193  13.831   4.327   8.622 -0.0127  0.1365  0.1122
  644ERGO    R5 9194  14.046   4.356   8.607  0.0053  0.0341  0.0690
  644ERGO    C1 9195  13.948   4.399   8.241 -0.0709  0.1706  0.1041
  644ERGO    C2 9196  13.769   4.359   7.996 -0.2110 -0.0600  0.1424
  645ERGO   ROH 9197  10.722   6.394   9.705  0.0430  0.0852 -0.0786
  645ERGO    R1 9198  10.817   6.297   9.456 -0.0712  0.0953 -0.1268
  645ERGO    R2 9199  10.655   6.272   9.233 -0.1418  0.2297 -0.0888
  645ERGO    R3 9200  10.847   6.424   9.117 -0.0958  0.1589 -0.1060
  645ERGO    R4 9201  10.727   6.277   8.896 -0.0858  0.1004 -0.0793
  645ERGO    R5 9202  10.938   6.285   8.945 -0.0901  0.0819 -0.0442
  645ERGO    C1 9203  10.950   6.422   8.590 -0.0100 -0.0413 -0.0899
  645ERGO    C2 9204  10.947   6.420   8.298 -0.1117  0.0491 -0.0349
  646ERGO   ROH 9205  12.622   6.420   9.680 -0.2016 -0.0715  0.0897
  646ERGO    R1 9206  12.648   6.376   9.402 -0.1047 -0.0062  0.0869
  646ERGO    R2 9207  12.434   6.394   9.227 -0.0662 -0.0556  0.0256
  646ERGO    R3 9208  12.596   6.569   9.098 -0.0955  0.0362  0.1142
  646ERGO    R4 9209  12.402   6.488   8.896  0.0676 -0.0646  0.0107
  646ERGO    R5 9210  12.619   6.480   8.878  0.0763  0.0575  0.1268
  646ERGO    C1 9211  12.537   6.706   8.582  0.1178  0.0165  0.0853
  646ERGO    C2 9212  12.765   6.896   8.299 -0.1840 -0.1383 -0.1418
  647ERGO   ROH 9213  18.326   5.196   9.354 -0.2342  0.3113  0.2744
  647ERGO    R1 9214  18.366   5.176   9.075 -0.0234  0.3187  0.3025
  647ERGO    R2 9215  18.188   5.047   8.908  0.2423  0.0758  0.2002
  647ERGO    R3 9216  18.191   5.284   8.774  0.0421  0.0631  0.1690
  647ERGO    R4 9217  18.199   5.078   8.564  0.2697  0.0370  0.1974
  647ERGO    R5 9218  18.339   5.245   8.589  0.1118  0.1740  0.1987
  647ERGO    C1 9219  18.209   5.319   8.238  0.0980  0.0025  0.1664
  647ERGO    C2 9220  18.245   5.169   8.015 -0.1227  0.2821  0.1069
  648ERGO   ROH 9221   0.387   4.196   9.504  0.0722  0.0751 -0.0280
  648ERGO    R1 9222   0.401   4.178   9.222 -0.0150  0.0866 -0.0344
  648ERGO    R2 9223   0.366   4.396   9.057  0.0258  0.1145 -0.0143
  648ERGO    R3 9224   0.607   4.319   8.958 -0.0318  0.0215 -0.0809
  648ERGO    R4 9225   0.477   4.460   8.736 -0.0202  0.0938 -0.0334
  648ERGO    R5 9226   0.562   4.259   8.730 -0.1082  0.0623 -0.0731
  648ERGO    C1 9227   0.768   4.425   8.456 -0.1010 -0.0054 -0.1070
  648ERGO    C2 9228   0.831   4.536   8.123 -0.2686 -0.4429  0.2883
  649ERGO   ROH 9229   0.775  18.173  10.004  0.0625 -0.0300  0.0816
  649ERGO    R1 9230   0.710  18.348   9.792  0.2429  0.0142  0.0599
  649ERGO    R2 9231   0.893  18.421   9.598  0.2854 -0.3132 -0.0359
  649ERGO    R3 9232   0.701  18.330   9.428  0.0761 -0.0763  0.0689
  649ERGO    R4 9233   0.885  18.482   9.258  0.2550 -0.4392 -0.0578
  649ERGO    R5 9234   0.669  18.510   9.273  0.3038 -0.0889  0.0099
  649ERGO    C1 9235   0.700  18.432   8.901  0.0408 -0.2901  0.0277
  649ERGO    C2 9236   0.564  18.288   8.699  0.1088  0.3134 -0.1062
  650ERGO   ROH 9237   7.200   3.056   9.506 -0.1345 -0.0334 -0.0143
  650ERGO    R1 9238   7.329   3.129   9.265 -0.0098  0.1131  0.0950
  650ERGO    R2 9239   7.249   3.034   9.018  0.2761  0.0594  0.0178
  650ERGO    R3 9240   7.236   3.298   8.957  0.0735  0.0561  0.0387
  650ERGO    R4 9241   7.242   3.163   8.697  0.0278  0.0808  0.0294
  650ERGO    R5 9242   7.375   3.322   8.764 -0.0416  0.1614 -0.0306
  650ERGO    C1 9243   7.227   3.487   8.454 -0.3070  0.0901  0.0557
  650ERGO    C2 9244   7.367   3.511   8.072  0.0161 -0.1277  0.2128
  651ERGO   ROH 9245   3.055   8.479   9.674  0.1357  0.2025 -0.0548
  651ERGO    R1 9246   2.926   8.377   9.443  0.1561  0.0135  0.0151
  651ERGO    R2 9247   2.908   8.520   9.208 -0.0917 -0.0529 -0.0106
  651ERGO    R3 9248   3.021   8.297   9.101  0.1125  0.0471 -0.0046
  651ERGO    R4 9249   2.880   8.424   8.877 -0.2675 -0.2462  0.0586
  651ERGO    R5 9250   2.858   8.217   8.943  0.0718 -0.2476  0.1800
  651ERGO    C1 9251   2.971   8.160   8.584 -0.1781 -0.2648  0.1044
  651ERGO    C2 9252   3.084   8.227   8.171  0.2014  0.0936  0.0453
  652ERGO   ROH 9253  14.089  15.895   9.612 -0.2473 -0.2246 -0.1399
  652ERGO    R1 9254  13.935  15.947   9.380 -0.1771  0.0493 -0.1309
  652ERGO    R2 9255  13.951  16.185   9.241  0.0864  0.1081 -0.0224
  652ERGO    R3 9256  14.002  16.021   9.030 -0.0656  0.1462 -0.0876
  652ERGO    R4 9257  13.930  16.276   8.908  0.0926  0.2244  0.0100
  652ERGO    R5 9258  13.840  16.083   8.865 -0.0453  0.3076 -0.0392
  652ERGO    C1 9259  13.964  16.175   8.517 -0.0466  0.3280 -0.0321
  652ERGO    C2 9260  13.928  16.378   8.230  0.2670 -0.0707  0.0990
  653ERGO   ROH 9261  18.027   3.194   9.629 -0.1238 -0.0624  0.1147
  653ERGO    R1 9262  18.008   3.157   9.349  0.0223  0.0145  0.0931
  653ERGO    R2 9263  17.859   2.953   9.235  0.1184  0.0141 -0.0419
  653ERGO    R3 9264  17.744   3.158   9.099  0.1443  0.0316 -0.0359
  653ERGO    R4 9265  17.767   2.942   8.902 -0.0466 -0.0236  0.0051
  653ERGO    R5 9266  17.840   3.146   8.880  0.0327 -0.0632 -0.0788
  653ERGO    C1 9267  17.605   3.127   8.580 -0.1183 -0.0291  0.0380
  653ERGO    C2 9268  17.490   2.962   8.286  0.1789 -0.3429  0.1148
  654ERGO   ROH 9269  10.509   6.745   9.342 -0.2455 -0.2058 -0.0047
  654ERGO    R1 9270  10.587   6.867   9.099 -0.1729 -0.1577  0.0423
  654ERGO    R2 9271  10.641   6.722   8.870 -0.1714 -0.1077  0.0102
  654ERGO    R3 9272  10.457   6.888   8.760 -0.1101 -0.0297  0.0257
  654ERGO    R4 9273  10.621   6.798   8.534 -0.1767 -0.1123  0.0098
  654ERGO    R5 9274  10.578   7.005   8.588 -0.0781 -0.0905  0.0070
  654ERGO    C1 9275  10.437   6.999   8.234 -0.1223 -0.0419  0.0240
  654ERGO    C2 9276  10.202   7.024   7.927 -0.0220 -0.1192 -0.3103
  655ERGO   ROH 9277   8.123   5.543   9.534  0.1320  0.1276  0.2614
  655ERGO    R1 9278   7.994   5.452   9.299  0.1233  0.0848  0.2834
  655ERGO    R2 9279   7.770   5.574   9.195  0.0950  0.0379  0.2955
  655ERGO    R3 9280   7.920   5.586   8.969  0.0678  0.0403  0.2769
  655ERGO    R4 9281   7.643   5.566   8.874  0.0749 -0.3179  0.3085
  655ERGO    R5 9282   7.810   5.437   8.817  0.2096 -0.1848  0.3866
  655ERGO    C1 9283   7.711   5.572   8.474  0.0376 -0.5227  0.2985
  655ERGO    C2 9284   7.539   5.772   8.210  0.1890  0.3718 -0.0267
  656ERGO   ROH 9285   8.990   0.849   9.864 -0.2685  0.3320 -0.0377
  656ERGO    R1 9286   9.099   0.780   9.612 -0.1955  0.0916  0.0594
  656ERGO    R2 9287   8.947   0.665   9.411 -0.2058  0.1879  0.0273
  656ERGO    R3 9288   9.043   0.874   9.265  0.1348  0.0059 -0.0245
  656ERGO    R4 9289   9.011   0.657   9.071 -0.5617  0.0735 -0.0417
  656ERGO    R5 9290   9.192   0.773   9.107 -0.2382 -0.3326 -0.1911
  656ERGO    C1 9291   9.137   0.847   8.737 -0.4492 -0.1640 -0.1306
  656ERGO    C2 9292   9.289   0.949   8.453 -0.1013  0.3694 -0.1623
  657ERGO   ROH 9293   7.382  12.270   9.515 -0.2260  0.1292 -0.0053
  657ERGO    R1 9294   7.244  12.112   9.325 -0.2929  0.1723  0.0083
  657ERGO    R2 9295   7.013  12.199   9.199 -0.1259  0.3577 -0.1702
  657ERGO    R3 9296   7.153  12.142   8.973 -0.0622  0.0705 -0.0623
  657ERGO    R4 9297   6.872  12.120   8.894 -0.0504  0.2904 -0.1887
  657ERGO    R5 9298   7.026  11.969   8.867 -0.1786  0.1187 -0.0086
  657ERGO    C1 9299   6.921  12.020   8.504  0.0534 -0.0182 -0.0981
  657ERGO    C2 9300   6.887  12.046   8.236  0.1051 -0.0972 -0.0884
  658ERGO   ROH 9301   6.449  17.516   9.860  0.0254 -0.1270  0.0779
  658ERGO    R1 9302   6.390  17.412   9.603  0.1186 -0.1110  0.0494
  658ERGO    R2 9303   6.179  17.505   9.451 -0.0004 -0.2955  0.0969
  658ERGO    R3 9304   6.373  17.542   9.264 -0.0548 -0.0178  0.0928
  658ERGO    R4 9305   6.131  17.483   9.109  0.0136 -0.3221  0.0970
  658ERGO    R5 9306   6.323  17.382   9.093  0.1503 -0.0675  0.0776
  658ERGO    C1 9307   6.285  17.506   8.735 -0.0293 -0.0771  0.0931
  658ERGO    C2 9308   6.235  17.727   8.398  0.0524  0.0669 -0.0107
  659ERGO   ROH 9309   8.136   3.533   9.271  0.0428  0.1493  0.1167
  659ERGO    R1 9310   8.187   3.584   8.997  0.1957 -0.0157  0.1120
  659ERGO    R2 9311   8.380   3.449   8.853  0.0412 -0.3531  0.2102
  659ERGO    R3 9312   8.173   3.395   8.686  0.0043 -0.1046  0.1726
  659ERGO    R4 9313   8.379   3.514   8.514  0.2468 -0.4933  0.1808
  659ERGO    R5 9314   8.171   3.579   8.532  0.3363 -0.1625  0.0917
  659ERGO    C1 9315   8.183   3.501   8.159  0.3318 -0.3417  0.1284
  659ERGO    C2 9316   8.084   3.672   7.818  0.0132 -0.0415  0.0167
  660ERGO   ROH 9317  16.630  16.434   9.567 -0.3306  0.1677 -0.0450
  660ERGO    R1 9318  16.700  16.517   9.306 -0.4307  0.0141 -0.1216
  660ERGO    R2 9319  16.904  16.399   9.161 -0.2365  0.1764  0.0238
  660ERGO    R3 9320  16.709  16.368   8.974 -0.1703 -0.3059  0.0223
  660ERGO    R4 9321  16.960  16.354   8.823 -0.1036  0.4366  0.0077
  660ERGO    R5 9322  16.791  16.485   8.782 -0.4873 -0.0038  0.0567
  660ERGO    C1 9323  16.809  16.298   8.451  0.0359  0.1351 -0.0033
  660ERGO    C2 9324  16.846  16.144   8.150 -0.1385  0.3691  0.1251
  661ERGO   ROH 9325  12.853   4.531   9.039 -0.2554  0.1978 -0.0310
  661ERGO    R1 9326  12.715   4.419   8.819 -0.2418  0.2239 -0.0525
  661ERGO    R2 9327  12.556   4.570   8.650  0.0417  0.3081 -0.2491
  661ERGO    R3 9328  12.714   4.461   8.458  0.0455  0.0061 -0.0824
  661ERGO    R4 9329  12.545   4.655   8.316  0.4012  0.1680 -0.3013
  661ERGO    R5 9330  12.571   4.444   8.266  0.1600  0.1064 -0.1802
  661ERGO    C1 9331  12.687   4.602   7.940  0.6141 -0.1971 -0.1751
  661ERGO    C2 9332  12.615   4.639   7.626 -0.4710 -0.0286 -0.3644
  662ERGO   ROH 9333  13.101  16.661  10.196  0.0891 -0.1042 -0.0858
  662ERGO    R1 9334  12.980  16.658   9.940  0.0166 -0.0545 -0.0531
  662ERGO    R2 9335  13.066  16.819   9.733 -0.0137 -0.0447 -0.0612
  662ERGO    R3 9336  13.084  16.583   9.599 -0.0905 -0.0332 -0.0902
  662ERGO    R4 9337  12.997  16.777   9.397 -0.0803  0.0054 -0.0534
  662ERGO    R5 9338  12.900  16.588   9.446 -0.1139  0.0240 -0.0580
  662ERGO    C1 9339  12.973  16.532   9.076 -0.1912  0.0456 -0.0759
  662ERGO    C2 9340  12.869  16.730   8.818  0.0504  0.2744  0.2642
  663ERGO   ROH 9341   6.542  16.304  10.086 -0.1662  0.1293 -0.0066
  663ERGO    R1 9342   6.530  16.434   9.835 -0.1898  0.0642 -0.0422
  663ERGO    R2 9343   6.747  16.451   9.665 -0.1369  0.2102  0.0208
  663ERGO    R3 9344   6.575  16.339   9.486  0.0121  0.0175 -0.0016
  663ERGO    R4 9345   6.768  16.488   9.322 -0.1544  0.2464  0.0260
  663ERGO    R5 9346   6.551  16.506   9.316 -0.1700 -0.0099  0.0047
  663ERGO    C1 9347   6.620  16.405   8.955 -0.0246  0.0863  0.0079
  663ERGO    C2 9348   6.658  16.272   8.579  0.0289 -0.1689  0.0568
  664ERGO   ROH 9349   6.328  13.566   9.819 -0.0785 -0.0697  0.0570
  664ERGO    R1 9350   6.195  13.601   9.572  0.0288  0.0198  0.0103
  664ERGO    R2 9351   6.305  13.743   9.362  0.1895 -0.0360  0.0522
  664ERGO    R3 9352   6.257  13.514   9.224  0.1019 -0.0042  0.0302
  664ERGO    R4 9353   6.258  13.724   9.020  0.0531  0.0249  0.0673
  664ERGO    R5 9354   6.100  13.578   9.055  0.0471  0.0445  0.1022
  664ERGO    C1 9355   6.185  13.498   8.692 -0.1085  0.0902  0.0554
  664ERGO    C2 9356   6.135  13.429   8.339 -0.0150 -0.1799 -0.0897
  665ERGO   ROH 9357  13.905  12.303   9.520 -0.0422  0.1009  0.0035
  665ERGO    R1 9358  14.154  12.323   9.387 -0.0364  0.1446  0.0173
  665ERGO    R2 9359  14.215  12.173   9.164  0.0902 -0.0199  0.1491
  665ERGO    R3 9360  14.271  12.417   9.055 -0.0636 -0.0738 -0.0529
  665ERGO    R4 9361  14.386  12.223   8.867 -0.0601 -0.1424  0.0418
  665ERGO    R5 9362  14.489  12.391   8.961 -0.0988 -0.0338 -0.1282
  665ERGO    C1 9363  14.537  12.481   8.593 -0.2920 -0.2645 -0.2104
  665ERGO    C2 9364  14.495  12.447   8.308 -0.2210 -0.1292  0.0847
  666ERGO   ROH 9365   1.544   6.096   9.793 -0.1707 -0.2243 -0.0501
  666ERGO    R1 9366   1.725   6.048   9.581 -0.1409 -0.0719 -0.0607
  666ERGO    R2 9367   1.722   5.815   9.433  0.0338 -0.0658 -0.0763
  666ERGO    R3 9368   1.701   5.987   9.223 -0.1067 -0.0680 -0.0641
  666ERGO    R4 9369   1.806   5.738   9.106 -0.0259 -0.0231 -0.1009
  666ERGO    R5 9370   1.893   5.937   9.087 -0.1216  0.0201 -0.1204
  666ERGO    C1 9371   1.835   5.854   8.719 -0.1926 -0.0002 -0.1037
  666ERGO    C2 9372   1.921   5.799   8.307 -0.1828 -0.0137 -0.0976
  667ERGO   ROH 9373   0.595   7.642   9.329  0.0429  0.2708 -0.1458
  667ERGO    R1 9374   0.651   7.448   9.130  0.0516  0.1924 -0.0688
  667ERGO    R2 9375   0.570   7.477   8.868 -0.0138  0.0488 -0.0691
  667ERGO    R3 9376   0.834   7.437   8.816 -0.0136  0.0979 -0.1027
  667ERGO    R4 9377   0.694   7.297   8.600 -0.0141 -0.0882  0.0233
  667ERGO    R5 9378   0.845   7.213   8.733  0.0409  0.0483  0.0430
  667ERGO    C1 9379   1.014   7.154   8.396 -0.0142 -0.1219  0.0453
  667ERGO    C2 9380   1.063   7.285   8.020  0.1721 -0.0625  0.2179
  668ERGO   ROH 9381   8.717  13.284   9.495  0.1182 -0.1499 -0.1455
  668ERGO    R1 9382   8.767  13.375   9.232  0.2456 -0.1667 -0.1287
  668ERGO    R2 9383   8.864  13.210   9.033  0.0019 -0.2726 -0.1676
  668ERGO    R3 9384   8.646  13.299   8.898  0.1208  0.0762 -0.1400
  668ERGO    R4 9385   8.790  13.132   8.705 -0.1138 -0.0633 -0.1926
  668ERGO    R5 9386   8.726  13.338   8.675  0.1721  0.0376 -0.1260
  668ERGO    C1 9387   8.543  13.169   8.386 -0.0698  0.3859 -0.1814
  668ERGO    C2 9388   8.408  13.129   8.063 -0.1611 -0.0032  0.1962
  669ERGO   ROH 9389   7.585  16.575  10.292  0.0847  0.0552  0.0796
  669ERGO    R1 9390   7.358  16.634  10.134  0.0556 -0.0540  0.0800
  669ERGO    R2 9391   7.330  16.872   9.996 -0.1143 -0.0131  0.1807
  669ERGO    R3 9392   7.290  16.706   9.784  0.0401  0.0467  0.1035
  669ERGO    R4 9393   7.173  16.961   9.701 -0.2003 -0.0230  0.2234
  669ERGO    R5 9394   7.075  16.767   9.700 -0.0188 -0.1163  0.1338
  669ERGO    C1 9395   7.044  16.858   9.331 -0.1055  0.0274  0.1755
  669ERGO    C2 9396   7.083  16.875   9.005 -0.1353  0.0054 -0.1909
  670ERGO   ROH 9397  14.447  11.530   9.539  0.2762 -0.1530 -0.0458
  670ERGO    R1 9398  14.571  11.374   9.339  0.1010 -0.3424 -0.0104
  670ERGO    R2 9399  14.435  11.183   9.192 -0.1717 -0.0781 -0.1157
  670ERGO    R3 9400  14.533  11.323   8.980  0.1876 -0.2043 -0.0392
  670ERGO    R4 9401  14.551  11.042   8.899 -0.2025 -0.2246 -0.0577
  670ERGO    R5 9402  14.713  11.188   8.898  0.0311 -0.4785  0.0609
  670ERGO    C1 9403  14.711  11.091   8.530  0.1168 -0.4285  0.0477
  670ERGO    C2 9404  14.841  10.857   8.372  0.2351  0.0445  0.0169
  671ERGO   ROH 9405  14.558  13.633   9.486  0.3335 -0.0164  0.0334
  671ERGO    R1 9406  14.443  13.718   9.241  0.2522  0.0828  0.1035
  671ERGO    R2 9407  14.576  13.881   9.063  0.3006 -0.0597  0.0000
  671ERGO    R3 9408  14.519  13.682   8.887 -0.0177 -0.0202  0.0544
  671ERGO    R4 9409  14.601  13.908   8.719  0.3345 -0.1930 -0.0072
  671ERGO    R5 9410  14.416  13.793   8.702  0.1529  0.0917  0.0285
  671ERGO    C1 9411  14.562  13.736   8.354  0.0553 -0.2336  0.0397
  671ERGO    C2 9412  14.641  13.702   8.094  0.2217 -0.1373 -0.5764
  672ERGO   ROH 9413   8.001  16.996  10.331  0.0363  0.1696  0.0581
  672ERGO    R1 9414   8.068  17.145  10.100  0.0822  0.0829  0.0149
  672ERGO    R2 9415   8.326  17.161  10.002  0.0836 -0.0411 -0.0017
  672ERGO    R3 9416   8.210  17.075   9.772  0.0408 -0.0581  0.0261
  672ERGO    R4 9417   8.451  17.216   9.685 -0.0171  0.0097 -0.0333
  672ERGO    R5 9418   8.248  17.252   9.616 -0.0473 -0.0381  0.0253
  672ERGO    C1 9419   8.415  17.166   9.284 -0.1160  0.0233 -0.0257
  672ERGO    C2 9420   8.386  17.245   8.972 -0.2683  0.0850  0.2818
  673ERGO   ROH 9421   0.614   5.588   9.852  0.1085 -0.1234 -0.1095
  673ERGO    R1 9422   0.555   5.680   9.591  0.0316  0.1421  0.0009
  673ERGO    R2 9423   0.725   5.844   9.449  0.1364  0.0140  0.0010
  673ERGO    R3 9424   0.702   5.650   9.260 -0.2612  0.1845 -0.1401
  673ERGO    R4 9425   0.815   5.880   9.117  0.6891 -0.0445  0.1334
  673ERGO    R5 9426   0.636   5.768   9.061  0.3607  0.5512 -0.1645
  673ERGO    C1 9427   0.846   5.719   8.746  0.6377  0.0815  0.0778
  673ERGO    C2 9428   0.853   5.745   8.322 -0.1947  0.1270 -0.2543
  674ERGO   ROH 9429   4.808   6.282   9.476  0.2307  0.1073 -0.1138
  674ERGO    R1 9430   4.813   6.218   9.201  0.0907  0.0658 -0.1081
  674ERGO    R2 9431   4.862   6.407   9.005 -0.0517  0.0474 -0.1681
  674ERGO    R3 9432   5.057   6.232   8.930 -0.0590  0.0718 -0.2428
  674ERGO    R4 9433   5.064   6.442   8.727  0.0180  0.2005 -0.0985
  674ERGO    R5 9434   5.045   6.228   8.691 -0.0024  0.2304 -0.2457
  674ERGO    C1 9435   5.364   6.299   8.495  0.0517  0.3127 -0.1282
  674ERGO    C2 9436   5.556   6.494   8.348 -0.3245 -0.0892  0.0797
  675PSPI    C1 9437   6.419  13.523   5.613 -0.0153 -0.0291  0.1624
  675PSPI    C2 9438   6.221  13.870   5.598 -0.0186 -0.0360  0.0384
  675PSPI    C3 9439   6.547  13.815   5.372  0.0138 -0.0941  0.0988
  675PSPI   PO4 9440   6.275  13.463   5.885 -0.0247  0.0583  0.1444
  675PSPI   GL1 9441   6.395  13.438   6.318 -0.1469  0.2423 -0.0572
  675PSPI   GL2 9442   6.204  13.065   6.444 -0.0686  0.0772 -0.3440
  675PSPI   C1A 9443   6.540  13.423   6.680 -0.0691 -0.0580 -0.0330
  675PSPI   C2A 9444   6.659  13.325   7.110  0.1364 -0.0359  0.1097
  675PSPI   C3A 9445   6.776  13.127   7.353 -0.1589 -0.1579 -0.0951
  675PSPI   C4A 9446   6.829  12.902   7.733  0.0066 -0.0064  0.0750
  675PSPI   C1B 9447   6.272  13.075   6.876  0.1092  0.0826 -0.0437
  675PSPI   C2B 9448   6.165  13.111   7.331  0.2388  0.1740  0.1705
  675PSPI   C3B 9449   6.395  13.243   7.664 -0.2505 -0.0139 -0.2602
  675PSPI   C4B 9450   6.501  13.526   7.946  0.0333  0.3673  0.0445
  676PSPI    C1 9451  17.060   1.139   5.001 -0.1131  0.2653 -0.1132
  676PSPI    C2 9452  17.091   0.741   5.026  0.1004  0.2962  0.1687
  676PSPI    C3 9453  16.895   0.907   4.719  0.0709 -0.0218  0.0101
  676PSPI   PO4 9454  17.090   1.166   5.298  0.2139  0.1640  0.0920
  676PSPI   GL1 9455  17.090   1.174   5.755 -0.1488  0.0856 -0.2735
  676PSPI   GL2 9456  17.121   0.991   6.004 -0.0503  0.2534  0.2877
  676PSPI   C1A 9457  17.221   1.444   6.143 -0.0677  0.0707 -0.1770
  676PSPI   C2A 9458  17.382   1.463   6.486 -0.0955 -0.1402 -0.0420
  676PSPI   C3A 9459  17.403   1.543   6.830  0.0888  0.1808 -0.0089
  676PSPI   C4A 9460  17.416   1.730   7.259 -0.1820 -0.0288 -0.0470
  676PSPI   C1B 9461  16.918   1.067   6.377 -0.0884 -0.0320  0.0634
  676PSPI   C2B 9462  16.747   0.962   6.717  0.1265 -0.3720 -0.0782
  676PSPI   C3B 9463  16.954   0.854   7.179  0.1029  0.0856  0.3062
  676PSPI   C4B 9464  17.264   0.837   7.594  0.0707  0.0286 -0.1314
  677PSPI    C1 9465  14.800  17.745   5.589 -0.2432  0.1175 -0.0080
  677PSPI    C2 9466  14.765  17.415   5.365 -0.1789  0.1388 -0.0496
  677PSPI    C3 9467  15.079  17.658   5.316 -0.2188  0.1990 -0.0092
  677PSPI   PO4 9468  14.552  17.745   5.662  0.2535 -0.3594 -0.0943
  677PSPI   GL1 9469  14.689  17.767   6.097  0.3664 -0.0857 -0.0603
  677PSPI   GL2 9470  14.571  17.494   6.161 -0.1527  0.0380  0.0045
  677PSPI   C1A 9471  14.903  17.944   6.508 -0.3305 -0.2984 -0.0730
  677PSPI   C2A 9472  15.006  17.867   6.879  0.0041  0.2443 -0.3505
  677PSPI   C3A 9473  15.011  17.518   6.990 -0.0441 -0.4079 -0.0074
  677PSPI   C4A 9474  15.137  17.518   7.440 -0.0951 -0.1525 -0.2075
  677PSPI   C1B 9475  14.661  17.501   6.601 -0.2449 -0.1446 -0.3040
  677PSPI   C2B 9476  14.483  17.346   7.027  0.0023  0.0411 -0.1015
  677PSPI   C3B 9477  14.666  17.465   7.337  0.2360  0.1498 -0.2752
  677PSPI   C4B 9478  14.719  17.305   7.639  0.1114  0.1023 -0.0655
  678PSPI    C1 9479   7.763  15.740   5.874  0.1224  0.1812  0.1940
  678PSPI    C2 9480   7.978  15.670   5.545 -0.1309 -0.1859  0.0994
  678PSPI    C3 9481   7.717  15.973   5.553 -0.1244 -0.1761 -0.0381
  678PSPI   PO4 9482   7.776  15.429   5.903  0.0925 -0.2285 -0.1381
  678PSPI   GL1 9483   7.608  15.212   6.184 -0.0277  0.0614 -0.1490
  678PSPI   GL2 9484   7.443  15.349   6.449  0.0457 -0.2095  0.1383
  678PSPI   C1A 9485   7.722  14.936   6.564  0.3812 -0.0579  0.1690
  678PSPI   C2A 9486   7.729  14.860   7.057  0.0535  0.3095 -0.0809
  678PSPI   C3A 9487   7.903  15.043   7.498 -0.1941 -0.1096 -0.1473
  678PSPI   C4A 9488   7.863  15.160   7.919  0.4448 -0.0881 -0.1176
  678PSPI   C1B 9489   7.455  15.264   6.903 -0.0849  0.0623 -0.0194
  678PSPI   C2B 9490   7.405  15.165   7.263  0.1286 -0.0164  0.0224
  678PSPI   C3B 9491   7.430  14.907   7.570 -0.2017  0.0487 -0.2974
  678PSPI   C4B 9492   7.685  14.683   7.787 -0.0966 -0.1489  0.0175
  679PSPI    C1 9493   8.001   2.676   5.311  0.2561 -0.1020  0.0925
  679PSPI    C2 9494   7.849   2.985   5.109  0.1413 -0.0638  0.2354
  679PSPI    C3 9495   7.845   2.620   4.947 -0.1103 -0.0645  0.2397
  679PSPI   PO4 9496   8.068   2.884   5.520 -0.0908  0.0178 -0.2193
  679PSPI   GL1 9497   8.056   2.924   5.937 -0.0483  0.1105  0.1558
  679PSPI   GL2 9498   7.969   2.621   5.897 -0.0376  0.0281 -0.4781
  679PSPI   C1A 9499   8.462   2.859   6.313 -0.0536 -0.0316 -0.1548
  679PSPI   C2A 9500   8.283   2.654   6.651  0.0275 -0.3083 -0.6121
  679PSPI   C3A 9501   8.154   2.311   6.898  0.0905 -0.2552 -0.4681
  679PSPI   C4A 9502   7.836   1.985   6.873  0.2005  0.0184  0.0550
  679PSPI   C1B 9503   7.841   2.685   6.405 -0.4592  0.1295 -0.0390
  679PSPI   C2B 9504   7.693   2.508   6.753  0.0074  0.0317 -0.1163
  679PSPI   C3B 9505   7.809   2.526   7.184  0.1920  0.0350  0.0876
  679PSPI   C4B 9506   7.845   2.343   7.575 -0.0924 -0.1440  0.1174
  680PSPI    C1 9507  10.329  16.082   5.946 -0.0754  0.0836 -0.0614
  680PSPI    C2 9508  10.102  15.764   5.862 -0.0662  0.0618 -0.0031
  680PSPI    C3 9509  10.191  16.027   5.574  0.0856 -0.0904 -0.0966
  680PSPI   PO4 9510  10.308  16.097   6.220 -0.0611 -0.3279 -0.0446
  680PSPI   GL1 9511  10.130  16.170   6.691 -0.1661 -0.1043 -0.0012
  680PSPI   GL2 9512  10.284  16.527   6.652 -0.0887 -0.2799  0.4407
  680PSPI   C1A 9513  10.210  16.260   7.130  0.0641 -0.2049  0.0575
  680PSPI   C2A 9514  10.312  16.315   7.544  0.2868 -0.1869 -0.4033
  680PSPI   C3A 9515  10.363  16.334   8.014  0.4121  0.3224 -0.2660
  680PSPI   C4A 9516  10.551  16.263   8.485  0.1985 -0.2906  0.1956
  680PSPI   C1B 9517  10.419  16.699   7.072  0.1349 -0.0225  0.0878
  680PSPI   C2B 9518  10.514  16.776   7.541 -0.1021  0.0552 -0.1169
  680PSPI   C3B 9519  10.538  16.813   7.963  0.2557  0.2670  0.0655
  680PSPI   C4B 9520  10.285  16.816   8.348 -0.0893 -0.0021 -0.1787
  681PSPI    C1 9521   3.010   2.085   5.637 -0.0104 -0.0502 -0.2008
  681PSPI    C2 9522   2.792   2.019   5.307  0.1249 -0.0909 -0.2830
  681PSPI    C3 9523   3.191   2.037   5.283  0.1259  0.0912 -0.1508
  681PSPI   PO4 9524   2.834   2.002   5.955  0.3186 -0.1340 -0.1353
  681PSPI   GL1 9525   3.093   1.859   6.296  0.1905  0.2710 -0.0721
  681PSPI   GL2 9526   2.946   1.504   6.177  0.4461 -0.2005 -0.2221
  681PSPI   C1A 9527   3.259   2.017   6.659  0.0518 -0.1273 -0.0859
  681PSPI   C2A 9528   3.644   2.319   6.823 -0.0227 -0.5287 -0.0448
  681PSPI   C3A 9529   3.660   2.439   7.199  0.0097 -0.0250  0.1777
  681PSPI   C4A 9530   4.027   2.692   7.359 -0.3668  0.0623 -0.3840
  681PSPI   C1B 9531   2.916   1.255   6.576  0.3683 -0.1519  0.1498
  681PSPI   C2B 9532   3.087   1.220   7.015  0.0943 -0.0684 -0.0757
  681PSPI   C3B 9533   3.047   1.156   7.484 -0.3649  0.1794  0.0403
  681PSPI   C4B 9534   3.083   0.938   7.877 -0.0922 -0.2573  0.1360
  682PSPI    C1 9535  15.435   7.538   5.354  0.0438  0.1885 -0.1412
  682PSPI    C2 9536  15.723   7.269   5.284 -0.0251  0.1057 -0.1088
  682PSPI    C3 9537  15.346   7.191   5.176 -0.0776  0.1106  0.0684
  682PSPI   PO4 9538  15.468   7.558   5.670  0.3818  0.2369  0.1194
  682PSPI   GL1 9539  15.710   7.719   5.997 -0.0746 -0.2384  0.1075
  682PSPI   GL2 9540  15.917   7.945   5.942  0.1308 -0.1604 -0.1577
  682PSPI   C1A 9541  16.149   7.595   6.177 -0.0141 -0.1776  0.3409
  682PSPI   C2A 9542  16.291   7.485   6.638  0.1490 -0.4741  0.3594
  682PSPI   C3A 9543  16.291   7.168   7.032 -0.2406  0.1258  0.2265
  682PSPI   C4A 9544  16.350   6.881   7.360 -0.0094  0.0696  0.0044
  682PSPI   C1B 9545  15.958   7.987   6.403  0.0843  0.1638 -0.1815
  682PSPI   C2B 9546  15.777   8.040   6.860 -0.2374 -0.1655 -0.0513
  682PSPI   C3B 9547  15.800   7.957   7.251  0.2418  0.1516 -0.1389
  682PSPI   C4B 9548  16.133   7.985   7.574  0.1233  0.1555 -0.1578
  683PSPI    C1 9549   6.867  15.292   5.871 -0.3070  0.1339  0.2785
  683PSPI    C2 9550   6.823  15.676   5.767  0.0612  0.1009 -0.0182
  683PSPI    C3 9551   6.986  15.416   5.510  0.0876 -0.1934  0.2895
  683PSPI   PO4 9552   6.595  15.165   5.895 -0.2594 -0.1188 -0.1938
  683PSPI   GL1 9553   6.512  15.128   6.380 -0.2621  0.0309 -0.0085
  683PSPI   GL2 9554   6.205  14.995   6.341 -0.1239  0.1087  0.0023
  683PSPI   C1A 9555   6.466  15.145   6.831 -0.1212 -0.2067  0.0780
  683PSPI   C2A 9556   6.468  14.966   7.314 -0.3817 -0.0875  0.0717
  683PSPI   C3A 9557   6.310  14.900   7.685 -0.0568 -0.4573  0.1264
  683PSPI   C4A 9558   6.089  15.045   8.063  0.0207  0.0226  0.0110
  683PSPI   C1B 9559   6.290  14.621   6.699 -0.0690 -0.0362 -0.0444
  683PSPI   C2B 9560   6.427  14.583   7.074  0.0701 -0.1049 -0.0289
  683PSPI   C3B 9561   6.376  14.462   7.442 -0.1734 -0.1154  0.0114
  683PSPI   C4B 9562   5.968  14.636   7.441 -0.1551 -0.1666 -0.0427
  684PSPI    C1 9563  10.476   6.897   5.312 -0.1115  0.0119 -0.0996
  684PSPI    C2 9564  10.874   6.924   5.274 -0.1057 -0.1529 -0.1657
  684PSPI    C3 9565  10.635   7.119   5.020 -0.0688  0.0821 -0.0236
  684PSPI   PO4 9566  10.360   6.963   5.568 -0.0328  0.0369 -0.0162
  684PSPI   GL1 9567  10.458   6.818   6.048 -0.0311  0.0981 -0.1529
  684PSPI   GL2 9568  10.668   7.186   6.056 -0.3993 -0.1006 -0.2255
  684PSPI   C1A 9569  10.255   6.960   6.335 -0.0906  0.0294 -0.1763
  684PSPI   C2A 9570  10.133   6.794   6.765 -0.0271  0.0426 -0.1168
  684PSPI   C3A 9571  10.079   6.841   7.151 -0.1958 -0.2630  0.2453
  684PSPI   C4A 9572  10.298   7.093   7.449 -0.0352  0.0386 -0.0101
  684PSPI   C1B 9573  10.637   7.151   6.607  0.2255  0.0322  0.3044
  684PSPI   C2B 9574  10.574   7.202   7.006  0.2754 -0.0546 -0.1780
  684PSPI   C3B 9575  10.729   7.062   7.290 -0.1197  0.0354 -0.3543
  684PSPI   C4B 9576  11.039   7.166   7.633 -0.3451 -0.0918 -0.0274
  685PSPI    C1 9577   8.284   8.546   5.657 -0.0739  0.0952 -0.0171
  685PSPI    C2 9578   8.210   8.340   5.322  0.2264 -0.0490  0.0025
  685PSPI    C3 9579   8.434   8.178   5.611  0.0825  0.1279  0.2165
  685PSPI   PO4 9580   7.996   8.576   5.757  0.2749 -0.1056  0.1056
  685PSPI   GL1 9581   7.778   8.510   6.084 -0.3236  0.0255 -0.0415
  685PSPI   GL2 9582   7.460   8.695   6.177  0.2827  0.0504 -0.0945
  685PSPI   C1A 9583   7.656   8.277   6.414 -0.1409 -0.0352  0.1314
  685PSPI   C2A 9584   7.725   8.155   6.849 -0.0413  0.2470  0.0306
  685PSPI   C3A 9585   7.727   8.179   7.280 -0.1224  0.2642  0.1438
  685PSPI   C4A 9586   7.799   8.476   7.644  0.0663  0.1253  0.0266
  685PSPI   C1B 9587   7.464   8.734   6.591  0.0573 -0.1273  0.0724
  685PSPI   C2B 9588   7.399   8.809   6.990  0.1305  0.1311  0.1505
  685PSPI   C3B 9589   7.282   9.109   7.304  0.2030  0.0134  0.0815
  685PSPI   C4B 9590   7.134   9.261   7.659 -0.1636  0.0002  0.1199
  686PSPI    C1 9591  17.883   4.688   5.624  0.1527 -0.1166 -0.1619
  686PSPI    C2 9592  17.532   4.879   5.649  0.2428  0.0310 -0.0042
  686PSPI    C3 9593  17.835   5.043   5.446  0.1465 -0.2130 -0.3551
  686PSPI   PO4 9594  18.000   4.697   5.848 -0.1666  0.1408 -0.0143
  686PSPI   GL1 9595  17.987   4.618   6.263  0.1232 -0.0284 -0.3071
  686PSPI   GL2 9596  17.653   4.826   6.258 -0.0923 -0.0985  0.1268
  686PSPI   C1A 9597  18.005   4.681   6.646 -0.1103 -0.0015  0.0319
  686PSPI   C2A 9598  18.100   4.671   7.136 -0.2642 -0.0528 -0.1926
  686PSPI   C3A 9599  17.961   4.648   7.572  0.0876  0.0295 -0.0269
  686PSPI   C4A 9600  17.979   4.352   7.885 -0.3578  0.2260 -0.0352
  686PSPI   C1B 9601  17.330   4.746   6.502  0.1577 -0.1266  0.0579
  686PSPI   C2B 9602  17.161   4.823   6.855 -0.1394  0.0956 -0.1065
  686PSPI   C3B 9603  17.240   4.777   7.219  0.2402 -0.1520 -0.0071
  686PSPI   C4B 9604  17.505   4.889   7.520  0.0564 -0.0666 -0.2183
  687PSPI    C1 9605   5.500  17.612   5.586  0.1582  0.0536  0.1791
  687PSPI    C2 9606   5.612  17.989   5.659  0.3765  0.0087  0.0847
  687PSPI    C3 9607   5.497  17.882   5.291  0.1765  0.0153  0.1437
  687PSPI   PO4 9608   5.393  17.564   5.820 -0.1744  0.0287 -0.1013
  687PSPI   GL1 9609   5.503  17.700   6.313 -0.0795  0.4014 -0.1706
  687PSPI   GL2 9610   5.254  17.549   6.342 -0.0515  0.1264  0.1129
  687PSPI   C1A 9611   5.384  18.027   6.653 -0.0277 -0.1938  0.0175
  687PSPI   C2A 9612   5.259  17.930   7.042  0.4608 -0.2432  0.0340
  687PSPI   C3A 9613   5.281  17.899   7.483  0.3216  0.0218 -0.0433
  687PSPI   C4A 9614   5.179  17.741   7.818  0.2517  0.0827 -0.0520
  687PSPI   C1B 9615   5.117  17.576   6.661  0.0073 -0.1607 -0.0791
  687PSPI   C2B 9616   4.936  17.532   7.074 -0.1284 -0.0165  0.1822
  687PSPI   C3B 9617   4.778  17.479   7.569 -0.3726  0.3699  0.2053
  687PSPI   C4B 9618   4.643  17.769   7.850 -0.3021 -0.2065  0.4956
  688PSPI    C1 9619  12.185  18.211   5.946  0.0227  0.0700 -0.0031
  688PSPI    C2 9620  11.838  18.120   6.122  0.0212  0.0595 -0.0112
  688PSPI    C3 9621  12.037  17.840   5.918  0.0504  0.0572  0.0206
  688PSPI   PO4 9622  12.008  18.478   5.814  0.0649  0.1976 -0.0855
  688PSPI   GL1 9623  11.982  18.928   5.975  0.0888 -0.1016  0.2611
  688PSPI   GL2 9624  11.785  18.901   6.175  0.1182  0.1087  0.0550
  688PSPI   C1A 9625  12.364  19.010   6.315 -0.1383 -0.3205 -0.1197
  688PSPI   C2A 9626  12.536  19.081   6.666 -0.0440 -0.0353  0.0563
  688PSPI   C3A 9627  12.882  19.251   6.851 -0.0617 -0.1028  0.2124
  688PSPI   C4A 9628  13.035  19.201   7.256 -0.1369 -0.1652  0.1292
  688PSPI   C1B 9629  11.794  18.927   6.540 -0.0526 -0.2281  0.1361
  688PSPI   C2B 9630  11.864  18.949   6.987 -0.0375 -0.0527  0.0619
  688PSPI   C3B 9631  11.923  18.936   7.389 -0.0118 -0.0132  0.1423
  688PSPI   C4B 9632  12.086  19.072   7.838  0.1214  0.4739  0.0841
  689PSPI    C1 9633   8.801   2.826   5.488  0.0690  0.1014 -0.2023
  689PSPI    C2 9634   8.876   2.442   5.404  0.0230  0.0956 -0.2174
  689PSPI    C3 9635   8.513   2.595   5.335 -0.0907  0.0257  0.1987
  689PSPI   PO4 9636   8.941   2.817   5.818 -0.0663 -0.0372  0.1439
  689PSPI   GL1 9637   8.989   2.504   6.154  0.0329 -0.0914 -0.4629
  689PSPI   GL2 9638   9.256   2.411   6.133 -0.0729 -0.0764 -0.1758
  689PSPI   C1A 9639   9.003   2.762   6.516 -0.1754  0.1759 -0.0272
  689PSPI   C2A 9640   8.714   2.747   6.811  0.0521 -0.0457 -0.2655
  689PSPI   C3A 9641   8.406   2.779   7.159  0.1194 -0.3709  0.2571
  689PSPI   C4A 9642   8.294   2.505   7.378  0.2082  0.1195 -0.3671
  689PSPI   C1B 9643   9.333   2.330   6.504 -0.1989  0.1592  0.1650
  689PSPI   C2B 9644   9.178   2.475   6.878  0.0617  0.1091 -0.2048
  689PSPI   C3B 9645   8.861   2.754   7.253 -0.0824 -0.0301 -0.2626
  689PSPI   C4B 9646   8.881   2.825   7.680  0.0555  0.0276  0.3187
  690PSPI    C1 9647  18.185  12.541   4.991 -0.1756 -0.0329  0.0612
  690PSPI    C2 9648  18.007  12.796   4.740  0.2360  0.1103 -0.0932
  690PSPI    C3 9649  18.167  12.457   4.601  0.3817  0.1447 -0.0121
  690PSPI   PO4 9650  18.099  12.629   5.244  0.0937  0.0737 -0.1429
  690PSPI   GL1 9651  18.199  12.515   5.748 -0.0884  0.0158 -0.0506
  690PSPI   GL2 9652  17.933  12.384   5.808 -0.0158  0.0796 -0.0597
  690PSPI   C1A 9653  18.315  12.433   6.189 -0.0125  0.1513 -0.0958
  690PSPI   C2A 9654  18.636  12.327   6.631  0.2468  0.1803  0.3072
  690PSPI   C3A 9655  18.934  12.229   6.917 -0.1593 -0.2684  0.3702
  690PSPI   C4A 9656  18.976  11.840   7.149  0.2253  0.2267  0.0030
  690PSPI   C1B 9657  17.791  12.249   6.110 -0.3192  0.1884 -0.2426
  690PSPI   C2B 9658  17.987  11.822   6.254 -0.3109 -0.3034  0.0299
  690PSPI   C3B 9659  17.860  11.777   6.667  0.3011 -0.2290 -0.0952
  690PSPI   C4B 9660  18.080  11.714   7.115  0.0921  0.2034 -0.1422
  691PSPI    C1 9661   9.329   8.864   5.620  0.0114  0.3928 -0.2393
  691PSPI    C2 9662   9.722   8.921   5.566  0.0899  0.1522  0.0544
  691PSPI    C3 9663   9.523   8.665   5.332  0.1563  0.0999  0.0549
  691PSPI   PO4 9664   9.328   8.844   5.886 -0.0675  0.2190  0.2121
  691PSPI   GL1 9665   9.116   8.863   6.101 -0.0422 -0.1280 -0.2296
  691PSPI   GL2 9666   8.835   8.844   6.240  0.1003  0.2023  0.2058
  691PSPI   C1A 9667   9.452   8.800   6.487 -0.0782  0.1621  0.0633
  691PSPI   C2A 9668   9.507   8.853   6.882 -0.0565  0.2254  0.1829
  691PSPI   C3A 9669   9.426   8.895   7.333 -0.0290 -0.1456  0.5263
  691PSPI   C4A 9670   9.101   8.796   7.571  0.2526  0.0494  0.2771
  691PSPI   C1B 9671   8.982   8.907   6.689 -0.0165  0.1015 -0.0687
  691PSPI   C2B 9672   8.953   8.938   7.075  0.0436  0.1984  0.0974
  691PSPI   C3B 9673   8.717   8.996   7.345 -0.0338  0.1491  0.0313
  691PSPI   C4B 9674   8.632   9.297   7.675 -0.1760 -0.0995 -0.3833
  692PSPI    C1 9675   0.521   4.629   5.731 -0.0711 -0.0816 -0.1324
  692PSPI    C2 9676   0.723   4.524   5.402 -0.1207 -0.1029 -0.1563
  692PSPI    C3 9677   0.378   4.724   5.370 -0.0744 -0.0156 -0.1137
  692PSPI   PO4 9678   0.677   4.553   5.984  0.3670 -0.1803  0.0401
  692PSPI   GL1 9679   0.428   4.266   6.165  0.1129  0.2137 -0.1829
  692PSPI   GL2 9680   0.240   4.717   6.181  0.0195  0.0780 -0.4026
  692PSPI   C1A 9681   0.427   4.357   6.547  0.1150  0.0725  0.1645
  692PSPI   C2A 9682   0.565   4.593   6.919  0.1841  0.2658 -0.3105
  692PSPI   C3A 9683   0.581   4.659   7.424 -0.1093  0.3710 -0.1391
  692PSPI   C4A 9684   0.443   4.512   7.801 -0.0773  0.0997 -0.1269
  692PSPI   C1B 9685   0.540   4.875   6.543 -0.0974 -0.0974  0.2488
  692PSPI   C2B 9686   0.583   5.117   6.893 -0.0415 -0.1880  0.0895
  692PSPI   C3B 9687   0.641   5.225   7.376 -0.1423  0.2447  0.0953
  692PSPI   C4B 9688   1.017   5.195   7.680  0.1618  0.0133 -0.1559
  693PSPI    C1 9689  13.536   0.621   5.669  0.1915 -0.1828  0.2225
  693PSPI    C2 9690  13.802   0.812   5.439  0.1529 -0.1225  0.2275
  693PSPI    C3 9691  13.733   0.421   5.384 -0.2437  0.0012 -0.2226
  693PSPI   PO4 9692  13.602   0.699   5.893 -0.2037 -0.0749  0.1217
  693PSPI   GL1 9693  14.013   0.771   5.940  0.0354 -0.0738 -0.2958
  693PSPI   GL2 9694  14.238   0.518   6.204  0.2612 -0.1289 -0.2344
  693PSPI   C1A 9695  14.016   0.986   6.403  0.0797  0.2091  0.2117
  693PSPI   C2A 9696  14.101   0.894   6.892  0.2275  0.0109  0.3206
  693PSPI   C3A 9697  14.134   0.706   7.296 -0.2618  0.1200 -0.2461
  693PSPI   C4A 9698  13.930   0.585   7.775  0.0905 -0.2368 -0.1659
  693PSPI   C1B 9699  14.108   0.490   6.572 -0.0434 -0.2991 -0.2815
  693PSPI   C2B 9700  13.843   0.430   6.863 -0.1879 -0.0166  0.1463
  693PSPI   C3B 9701  13.810   0.291   7.291  0.0748 -0.1331 -0.3674
  693PSPI   C4B 9702  13.583   0.120   7.704 -0.3599  0.3114 -0.0909
  694PSPI    C1 9703   2.064   8.932   5.970 -0.0906 -0.2498 -0.1101
  694PSPI    C2 9704   2.198   9.148   5.661  0.0082  0.3378  0.3265
  694PSPI    C3 9705   1.815   9.034   5.675  0.0811  0.0038 -0.1704
  694PSPI   PO4 9706   2.238   9.138   6.170 -0.1987 -0.0208 -0.0083
  694PSPI   GL1 9707   2.249   9.169   6.443  0.1578 -0.1616 -0.1596
  694PSPI   GL2 9708   2.541   9.210   6.607 -0.1604 -0.4128  0.1915
  694PSPI   C1A 9709   2.078   9.353   6.803 -0.2786 -0.0089 -0.0484
  694PSPI   C2A 9710   1.736   9.546   7.179  0.2053  0.1827 -0.0525
  694PSPI   C3A 9711   1.644   9.782   7.470  0.0552  0.2175  0.1332
  694PSPI   C4A 9712   1.536   9.995   7.821 -0.1769 -0.2430  0.0705
  694PSPI   C1B 9713   2.538   9.337   7.001 -0.1128  0.4918 -0.0789
  694PSPI   C2B 9714   2.358   9.585   7.292 -0.1038  0.4208  0.3478
  694PSPI   C3B 9715   2.127   9.810   7.565 -0.2792 -0.1698  0.1008
  694PSPI   C4B 9716   2.256  10.054   7.926 -0.1377  0.2084 -0.1115
  695POPI    C1 9717   1.028   0.957   6.075 -0.0950 -0.2050 -0.0543
  695POPI    C2 9718   1.346   0.785   5.905  0.0579 -0.2389  0.2588
  695POPI    C3 9719   1.006   0.825   5.698  0.2827 -0.1439 -0.1017
  695POPI   PO4 9720   1.215   1.206   6.210 -0.0236 -0.0138 -0.2345
  695POPI   GL1 9721   1.264   1.206   6.669 -0.0503 -0.2550 -0.0876
  695POPI   GL2 9722   1.069   1.462   6.758 -0.0395 -0.0111  0.2148
  695POPI   C1A 9723   1.397   1.116   7.095  0.0263  0.0971 -0.0124
  695POPI   D2A 9724   1.457   1.104   7.525 -0.2355 -0.0749 -0.1915
  695POPI   C3A 9725   1.167   1.201   7.907  0.1532 -0.1044  0.1951
  695POPI   C4A 9726   0.899   1.477   8.057  0.0359 -0.0487 -0.0101
  695POPI   C1B 9727   0.936   1.421   7.149  0.1051  0.0537 -0.2106
  695POPI   C2B 9728   1.159   1.599   7.664 -0.2278  0.3004 -0.3755
  695POPI   C3B 9729   1.207   1.889   8.023  0.0375 -0.1568  0.3699
  695POPI   C4B 9730   1.419   1.838   8.318 -0.1961 -0.0073 -0.1256
  696POPI    C1 9731  13.008   2.634   5.680  0.1676 -0.0019 -0.0692
  696POPI    C2 9732  13.108   2.389   5.380 -0.0034  0.1908 -0.2874
  696POPI    C3 9733  12.738   2.379   5.532  0.1423 -0.0534  0.0645
  696POPI   PO4 9734  13.290   2.652   5.809  0.0803 -0.2304  0.1818
  696POPI   GL1 9735  13.424   2.911   6.158  0.4712 -0.0782  0.0263
  696POPI   GL2 9736  13.677   2.699   6.194  0.2730 -0.4522  0.0730
  696POPI   C1A 9737  13.456   3.277   6.334 -0.3361  0.0125 -0.1774
  696POPI   D2A 9738  13.621   3.606   6.576  0.3774 -0.0411  0.3014
  696POPI   C3A 9739  13.549   3.936   6.787  0.1864  0.1753  0.1371
  696POPI   C4A 9740  13.497   4.423   6.887 -0.3232  0.1277  0.1069
  696POPI   C1B 9741  13.518   2.805   6.664 -0.0033 -0.0200 -0.2590
  696POPI   C2B 9742  13.474   2.959   7.014 -0.1685  0.1020  0.0500
  696POPI   C3B 9743  13.773   3.200   7.252  0.1721  0.0258  0.2222
  696POPI   C4B 9744  14.084   3.122   7.580  0.1198 -0.1510 -0.1022
  697POPI    C1 9745   5.561   5.575   5.894 -0.1389  0.0717 -0.2156
  697POPI    C2 9746   5.272   5.839   5.809 -0.2259  0.0259 -0.0650
  697POPI    C3 9747   5.490   5.679   5.514  0.0025  0.4611 -0.1404
  697POPI   PO4 9748   5.443   5.312   5.923 -0.4060  0.2988 -0.2020
  697POPI   GL1 9749   5.543   5.143   6.226 -0.1130 -0.1281  0.0577
  697POPI   GL2 9750   5.345   4.971   6.371  0.0028  0.3340 -0.1227
  697POPI   C1A 9751   5.780   5.040   6.648  0.0003 -0.2631  0.0727
  697POPI   D2A 9752   5.962   5.037   7.027 -0.3090  0.3009 -0.2014
  697POPI   C3A 9753   5.760   5.205   7.384 -0.3844  0.1797 -0.0220
  697POPI   C4A 9754   5.517   5.685   7.495  0.4796  0.1975  0.1633
  697POPI   C1B 9755   5.290   4.858   6.766  0.1723  0.0307 -0.3810
  697POPI   C2B 9756   5.417   4.803   7.137  0.1243 -0.1066 -0.1779
  697POPI   C3B 9757   5.401   4.803   7.514  0.0317 -0.0340  0.2420
  697POPI   C4B 9758   5.585   5.162   7.868  0.3276 -0.2660 -0.2175
  698POPI    C1 9759   3.357   7.766   5.685  0.1738 -0.1270  0.1692
  698POPI    C2 9760   3.752   7.730   5.635  0.2066  0.1878  0.1772
  698POPI    C3 9761   3.534   7.928   5.364  0.0247 -0.1373  0.0805
  698POPI   PO4 9762   3.359   7.725   6.002  0.0441 -0.1993  0.1567
  698POPI   GL1 9763   3.828   7.676   6.185 -0.2859 -0.3687  0.2125
  698POPI   GL2 9764   3.799   7.832   6.471 -0.1440 -0.2186 -0.2677
  698POPI   C1A 9765   3.691   7.285   6.455 -0.3078 -0.1117 -0.1596
  698POPI   D2A 9766   3.739   7.012   6.956 -0.0225 -0.2830 -0.1289
  698POPI   C3A 9767   3.645   6.852   7.350  0.1175  0.0676  0.3271
  698POPI   C4A 9768   3.310   6.921   7.590  0.3948  0.1757 -0.0360
  698POPI   C1B 9769   3.859   7.554   6.811  0.1850  0.1170  0.0293
  698POPI   C2B 9770   3.960   7.387   7.295  0.0522  0.0403  0.0248
  698POPI   C3B 9771   4.076   7.457   7.679 -0.2463  0.1357  0.2362
  698POPI   C4B 9772   3.840   7.629   8.104  0.0954  0.2241 -0.0982
  699POPI    C1 9773   6.065   6.891   5.469 -0.2351 -0.2611  0.0504
  699POPI    C2 9774   6.149   7.080   5.127 -0.2078 -0.1977  0.0919
  699POPI    C3 9775   6.411   6.820   5.282 -0.1988 -0.1896  0.0904
  699POPI   PO4 9776   6.089   7.129   5.649  0.1115  0.1715  0.2121
  699POPI   GL1 9777   6.043   7.132   6.030 -0.3783  0.0747 -0.0034
  699POPI   GL2 9778   5.994   6.927   6.180  0.3269 -0.1017 -0.3469
  699POPI   C1A 9779   6.377   7.347   6.251 -0.3532 -0.1613  0.1254
  699POPI   D2A 9780   6.642   7.341   6.633  0.3806 -0.1181 -0.1080
  699POPI   C3A 9781   6.972   7.075   6.762  0.1327  0.1323 -0.0138
  699POPI   C4A 9782   7.384   6.782   6.748 -0.1501 -0.1476 -0.0005
  699POPI   C1B 9783   6.030   7.062   6.554  0.1491  0.0188 -0.2392
  699POPI   C2B 9784   6.145   7.178   6.932  0.1111  0.2807 -0.0544
  699POPI   C3B 9785   6.118   7.360   7.267  0.2863 -0.2184  0.2530
  699POPI   C4B 9786   6.147   7.276   7.685  0.1002  0.0846 -0.2226
  700POPI    C1 9787  12.739   4.998   5.293 -0.0318  0.1659  0.0859
  700POPI    C2 9788  12.543   4.784   5.017 -0.0547 -0.0873  0.2936
  700POPI    C3 9789  12.917   4.908   4.947 -0.1401  0.0461  0.0604
  700POPI   PO4 9790  12.752   4.836   5.532  0.0868 -0.5535 -0.0869
  700POPI   GL1 9791  12.865   5.077   5.916 -0.3479  0.1475 -0.1231
  700POPI   GL2 9792  12.621   5.436   5.835  0.1361 -0.0366 -0.0485
  700POPI   C1A 9793  12.701   5.122   6.455 -0.1561 -0.0341 -0.0896
  700POPI   D2A 9794  12.778   5.078   6.858 -0.1016 -0.1716 -0.1042
  700POPI   C3A 9795  12.468   4.813   7.124  0.0289 -0.0743 -0.1938
  700POPI   C4A 9796  12.180   4.751   7.477 -0.2019  0.1638 -0.0102
  700POPI   C1B 9797  12.706   5.580   6.255  0.2403 -0.1797  0.0481
  700POPI   C2B 9798  12.882   5.541   6.741 -0.0699  0.2578  0.0942
  700POPI   C3B 9799  12.835   5.607   7.163 -0.1541 -0.0299 -0.2054
  700POPI   C4B 9800  12.743   5.587   7.535  0.5033 -0.2469  0.0695
  701POPI    C1 9801   3.683  16.327   5.783  0.0166 -0.2128 -0.2935
  701POPI    C2 9802   4.082  16.318   5.816  0.0170 -0.0709 -0.2530
  701POPI    C3 9803   3.891  16.669   5.789 -0.1118 -0.1355 -0.1916
  701POPI   PO4 9804   3.700  16.019   5.758 -0.0234 -0.2038 -0.2227
  701POPI   GL1 9805   3.696  15.919   6.146 -0.3293 -0.0055  0.0442
  701POPI   GL2 9806   3.847  15.599   6.312 -0.0258  0.0056  0.1112
  701POPI   C1A 9807   3.862  15.959   6.653  0.2043  0.0630  0.0007
  701POPI   D2A 9808   4.208  16.053   6.850 -0.0899 -0.3698  0.3977
  701POPI   C3A 9809   4.282  16.124   7.255  0.2029 -0.1643 -0.0793
  701POPI   C4A 9810   4.260  16.006   7.601 -0.1283  0.0391  0.0772
  701POPI   C1B 9811   3.567  15.511   6.561 -0.2367  0.0592 -0.3765
  701POPI   C2B 9812   3.124  15.485   6.688  0.2105 -0.2760 -0.1141
  701POPI   C3B 9813   2.957  15.284   7.055 -0.1272 -0.1986  0.0129
  701POPI   C4B 9814   2.902  15.188   7.438  0.1893 -0.0006 -0.1861
  702POPI    C1 9815   9.085  15.858   6.054  0.0537  0.0696 -0.0481
  702POPI    C2 9816   9.284  15.948   5.718 -0.0091 -0.0284 -0.1119
  702POPI    C3 9817   9.136  15.580   5.771 -0.1794  0.0453 -0.0679
  702POPI   PO4 9818   9.244  16.006   6.211 -0.0567 -0.1567 -0.1691
  702POPI   GL1 9819   9.413  15.856   6.532 -0.0991 -0.1449  0.0689
  702POPI   GL2 9820   9.154  15.596   6.535  0.0488 -0.2408  0.0185
  702POPI   C1A 9821   9.535  15.868   6.922 -0.0925 -0.1315 -0.0127
  702POPI   D2A 9822   9.719  16.006   7.291  0.1771  0.0406 -0.0816
  702POPI   C3A 9823   9.666  15.776   7.673 -0.1203  0.2353 -0.0815
  702POPI   C4A 9824   9.828  15.520   8.034 -0.1477  0.0258  0.2907
  702POPI   C1B 9825   9.005  15.464   6.949 -0.3607 -0.0141  0.0706
  702POPI   C2B 9826   8.987  15.324   7.319  0.1245  0.1073 -0.1241
  702POPI   C3B 9827   8.821  15.252   7.727  0.3368  0.1698 -0.1124
  702POPI   C4B 9828   8.816  14.910   7.952 -0.2111  0.1143  0.2148
  703POPI    C1 9829   4.579  14.603   5.614 -0.0384  0.0106 -0.0606
  703POPI    C2 9830   4.464  14.973   5.712 -0.1894 -0.0463 -0.0203
  703POPI    C3 9831   4.853  14.889   5.672 -0.1218 -0.0115  0.4969
  703POPI   PO4 9832   4.304  14.459   5.749  0.0333 -0.0926 -0.0686
  703POPI   GL1 9833   4.017  14.462   6.086  0.0602 -0.0863  0.1270
  703POPI   GL2 9834   3.740  14.237   6.117 -0.1562  0.0812  0.0796
  703POPI   C1A 9835   4.008  14.768   6.408  0.4541 -0.1231  0.4835
  703POPI   D2A 9836   3.948  14.864   6.957 -0.0764 -0.0664  0.2164
  703POPI   C3A 9837   3.821  15.074   7.256  0.0174  0.1387  0.1114
  703POPI   C4A 9838   3.802  15.270   7.660 -0.0374 -0.1078  0.4250
  703POPI   C1B 9839   3.698  14.358   6.611  0.1799  0.0967  0.0200
  703POPI   C2B 9840   3.481  14.094   6.926 -0.3106  0.2149 -0.1486
  703POPI   C3B 9841   3.259  13.849   7.270  0.0511  0.0487 -0.0943
  703POPI   C4B 9842   3.108  13.423   7.255 -0.3429  0.1397  0.2658
  704POPI    C1 9843  17.259   4.062   5.750  0.1493 -0.2036  0.1606
  704POPI    C2 9844  17.602   3.946   5.580  0.0919 -0.0822 -0.0413
  704POPI    C3 9845  17.253   3.803   5.445  0.0520 -0.0697  0.0478
  704POPI   PO4 9846  17.233   4.037   6.090  0.1930  0.2155 -0.1774
  704POPI   GL1 9847  17.024   3.827   6.462  0.1174 -0.1150 -0.1602
  704POPI   GL2 9848  16.607   3.760   6.398 -0.2966  0.1238 -0.0903
  704POPI   C1A 9849  17.084   3.481   6.733  0.1820 -0.2826  0.1999
  704POPI   D2A 9850  17.157   3.110   6.575 -0.2295 -0.3782  0.0850
  704POPI   C3A 9851  16.896   2.812   6.731  0.2339  0.0729 -0.1252
  704POPI   C4A 9852  16.650   2.482   6.989 -0.0316 -0.0190  0.0169
  704POPI   C1B 9853  16.507   4.042   6.736  0.1559  0.2696 -0.0517
  704POPI   C2B 9854  16.504   4.323   7.174  0.0667 -0.2135  0.2017
  704POPI   C3B 9855  16.514   4.259   7.638 -0.2241  0.1671  0.1042
  704POPI   C4B 9856  16.189   4.064   7.947 -0.2620 -0.0100 -0.1369
  705POPI    C1 9857   2.081   5.120   5.873 -0.1333 -0.0447  0.1741
  705POPI    C2 9858   1.997   4.873   5.570  0.1522 -0.2089  0.2252
  705POPI    C3 9859   2.316   5.114   5.549  0.0103 -0.0146  0.2766
  705POPI   PO4 9860   2.054   4.888   6.092  0.2012 -0.0849  0.0122
  705POPI   GL1 9861   1.924   4.852   6.572  0.2210  0.2676  0.2978
  705POPI   GL2 9862   1.701   4.589   6.356 -0.0528  0.2050 -0.1468
  705POPI   C1A 9863   2.066   5.021   6.922 -0.0487  0.2509 -0.1239
  705POPI   D2A 9864   2.006   5.021   7.390  0.0977 -0.2923 -0.0633
  705POPI   C3A 9865   1.816   5.352   7.571 -0.1468  0.0496  0.0523
  705POPI   C4A 9866   2.077   5.466   7.960  0.1581 -0.1827  0.1496
  705POPI   C1B 9867   1.728   4.418   6.781  0.0976  0.2266 -0.0692
  705POPI   C2B 9868   1.728   4.531   7.215  0.0663  0.3401 -0.5391
  705POPI   C3B 9869   1.575   4.440   7.522  0.1100 -0.0807 -0.2687
  705POPI   C4B 9870   1.519   4.176   7.831  0.1214 -0.4053  0.0004
  706POPI    C1 9871  10.027   9.848   5.383 -0.0765  0.1140 -0.1175
  706POPI    C2 9872  10.329   9.587   5.391 -0.0614  0.1367  0.1211
  706POPI    C3 9873  10.235   9.774   5.050  0.2149  0.1550  0.0525
  706POPI   PO4 9874   9.978   9.986   5.508 -0.0490 -0.0911 -0.1204
  706POPI   GL1 9875   9.950  10.011   5.929 -0.0626 -0.0038  0.1499
  706POPI   GL2 9876   9.758   9.752   6.131  0.0450 -0.0841  0.0387
  706POPI   C1A 9877   9.865  10.140   6.372  0.1572  0.0217 -0.0425
  706POPI   D2A 9878   9.576  10.324   6.563  0.1784 -0.0750  0.1169
  706POPI   C3A 9879   9.468  10.158   7.045 -0.3123 -0.0791  0.1608
  706POPI   C4A 9880   9.383   9.852   7.347 -0.1960 -0.0318 -0.0764
  706POPI   C1B 9881   9.906   9.677   6.635  0.1173 -0.0802 -0.0951
  706POPI   C2B 9882   9.795   9.826   7.002 -0.1935  0.1022  0.0285
  706POPI   C3B 9883  10.181   9.728   7.147 -0.0328  0.1623 -0.0884
  706POPI   C4B 9884  10.512   9.390   7.103  0.2305  0.1980  0.0239
  707POPI    C1 9885  10.422  11.907   5.499  0.0022  0.0500  0.0171
  707POPI    C2 9886  10.063  11.959   5.331 -0.0095 -0.1321 -0.0166
  707POPI    C3 9887  10.369  11.826   5.111  0.0826  0.0343  0.0091
  707POPI   PO4 9888  10.481  12.156   5.706 -0.0862  0.0928  0.3545
  707POPI   GL1 9889  10.646  12.418   6.066 -0.1050 -0.1632 -0.0343
  707POPI   GL2 9890  10.477  12.562   6.213  0.2005 -0.2376  0.0030
  707POPI   C1A 9891  11.000  12.316   6.296 -0.1951  0.3685 -0.0694
  707POPI   D2A 9892  11.245  12.303   6.670  0.5593  0.2967 -0.0913
  707POPI   C3A 9893  11.360  12.499   6.980  0.0694 -0.0603 -0.2759
  707POPI   C4A 9894  11.506  12.477   7.391  0.1070 -0.3270 -0.0419
  707POPI   C1B 9895  10.588  12.498   6.606 -0.0108 -0.2465  0.1497
  707POPI   C2B 9896  10.821  12.391   6.991  0.2853 -0.0820  0.0388
  707POPI   C3B 9897  11.007  12.298   7.366 -0.0285  0.0949  0.3232
  707POPI   C4B 9898  11.352  11.982   7.450  0.1751 -0.0005 -0.0579
  708POPI    C1 9899  18.124   4.358   5.395 -0.0364  0.3239 -0.0300
  708POPI    C2 9900  17.876   4.117   5.194  0.1830 -0.0106  0.0896
  708POPI    C3 9901  17.830   4.514   5.174 -0.2074 -0.0595 -0.0822
  708POPI   PO4 9902  18.173   4.281   5.625 -0.0892  0.2063 -0.0338
  708POPI   GL1 9903  18.317   4.251   6.082  0.2810 -0.0050  0.1539
  708POPI   GL2 9904  18.546   3.873   6.183  0.0492  0.0655 -0.0071
  708POPI   C1A 9905  18.434   4.444   6.438 -0.1034 -0.0220 -0.0773
  708POPI   D2A 9906  18.531   4.376   6.888 -0.0640 -0.0045  0.0269
  708POPI   C3A 9907  18.858   4.215   7.162  0.3353 -0.0443 -0.1165
  708POPI   C4A 9908  19.064   4.086   7.542  0.1996 -0.1766 -0.3063
  708POPI   C1B 9909  18.542   3.981   6.590  0.1985 -0.2049  0.1223
  708POPI   C2B 9910  18.426   3.807   6.968 -0.3269 -0.0164  0.0243
  708POPI   C3B 9911  18.471   4.023   7.393 -0.1078 -0.2927  0.2783
  708POPI   C4B 9912  18.241   3.868   7.736  0.3403  0.2377 -0.2655
  709POPI    C1 9913   9.666   7.359   5.597  0.2398  0.1949 -0.2930
  709POPI    C2 9914   9.862   7.046   5.442 -0.1354 -0.2187  0.0412
  709POPI    C3 9915   9.484   7.120   5.333 -0.0948  0.0395  0.0692
  709POPI   PO4 9916   9.674   7.383   5.907 -0.0136 -0.1493 -0.0907
  709POPI   GL1 9917   9.678   7.647   6.336 -0.0673 -0.2334 -0.1462
  709POPI   GL2 9918   9.963   7.519   6.284  0.2808  0.2210  0.0492
  709POPI   C1A 9919   9.651   7.497   6.737 -0.1381  0.1522  0.0289
  709POPI   D2A 9920   9.558   7.666   6.990 -0.1182  0.0113  0.1889
  709POPI   C3A 9921   9.341   7.911   7.145  0.2266 -0.0041 -0.1741
  709POPI   C4A 9922   9.022   7.899   7.366  0.1404 -0.2697  0.0494
  709POPI   C1B 9923   9.800   7.046   6.447  0.0525 -0.2393  0.0235
  709POPI   C2B 9924   9.668   6.962   6.820 -0.2498  0.2041 -0.1752
  709POPI   C3B 9925   9.468   7.137   7.162 -0.1892 -0.0468  0.2574
  709POPI   C4B 9926   9.549   7.434   7.535 -0.0123 -0.0569 -0.0891
  710POPI    C1 9927   2.547   7.408   5.943  0.1499  0.0515 -0.0757
  710POPI    C2 9928   2.588   7.240   5.583 -0.0508  0.0772 -0.1120
  710POPI    C3 9929   2.620   7.636   5.624 -0.1057  0.0820 -0.1147
  710POPI   PO4 9930   2.613   7.088   6.088 -0.2152  0.0009  0.0338
  710POPI   GL1 9931   2.728   6.858   6.485  0.1545  0.0245  0.1316
  710POPI   GL2 9932   3.015   6.929   6.459 -0.2596 -0.0698  0.2491
  710POPI   C1A 9933   2.719   6.788   6.899  0.3107 -0.1626 -0.0098
  710POPI   D2A 9934   2.795   7.042   7.310  0.2197  0.1275  0.0892
  710POPI   C3A 9935   2.739   6.850   7.817 -0.0989  0.0572  0.0318
  710POPI   C4A 9936   2.978   6.552   7.994  0.2736  0.0470  0.2519
  710POPI   C1B 9937   3.258   7.085   6.783 -0.3910  0.0447 -0.2590
  710POPI   C2B 9938   3.308   7.230   7.192 -0.1653  0.0202  0.2610
  710POPI   C3B 9939   3.496   7.365   7.594  0.2336 -0.3043  0.1298
  710POPI   C4B 9940   3.635   7.840   7.696  0.0503  0.5002 -0.1200
  711POPI    C1 9941  18.458  12.282   5.394  0.4179  0.2618 -0.1666
  711POPI    C2 9942  18.577  12.184   5.025 -0.1080 -0.1684 -0.2344
  711POPI    C3 9943  18.567  11.906   5.313  0.0671  0.1088  0.0467
  711POPI   PO4 9944  18.666  12.509   5.430  0.0091 -0.2443  0.2341
  711POPI   GL1 9945  18.605  12.735   5.869 -0.2688 -0.0016  0.3137
  711POPI   GL2 9946  18.441  12.907   6.068  0.0230 -0.2401  0.3943
  711POPI   C1A 9947  18.795  12.398   6.150 -0.0217  0.3304 -0.0567
  711POPI   D2A 9948  19.007  12.178   6.332  0.3036 -0.0866 -0.1586
  711POPI   C3A 9949  18.962  11.844   6.588 -0.1266  0.0946  0.0957
  711POPI   C4A 9950  18.662  11.641   6.747  0.0070 -0.0318 -0.2460
  711POPI   C1B 9951  18.307  12.925   6.489  0.1058 -0.1231 -0.1082
  711POPI   C2B 9952  18.209  12.831   6.964  0.2941 -0.0635  0.2773
  711POPI   C3B 9953  18.469  12.623   7.289 -0.1721  0.1591 -0.3214
  711POPI   C4B 9954  18.791  12.354   7.458 -0.1899  0.2880  0.1260
  712POPI    C1 9955   9.892  13.649   5.666 -0.1947  0.0646  0.0015
  712POPI    C2 9956   9.970  13.888   5.355 -0.3431  0.0961 -0.0124
  712POPI    C3 9957  10.212  13.580   5.437 -0.1648  0.2351 -0.0095
  712POPI   PO4 9958   9.644  13.808   5.713 -0.2310 -0.2711  0.0312
  712POPI   GL1 9959   9.404  13.636   6.041 -0.2683  0.1458  0.0403
  712POPI   GL2 9960   9.645  13.700   6.216 -0.4421  0.1774 -0.5443
  712POPI   C1A 9961   9.064  13.902   6.035 -0.1176  0.0451 -0.1403
  712POPI   D2A 9962   8.967  14.323   6.082 -0.4230  0.1086  0.0673
  712POPI   C3A 9963   8.882  14.479   6.550  0.1942  0.2721 -0.0259
  712POPI   C4A 9964   8.820  14.278   6.920  0.1749  0.0643  0.3261
  712POPI   C1B 9965   9.690  13.823   6.561 -0.1083 -0.0903 -0.0940
  712POPI   C2B 9966   9.551  14.036   6.999 -0.2119  0.3467 -0.0829
  712POPI   C3B 9967   9.230  14.204   7.273  0.0554 -0.0578  0.1933
  712POPI   C4B 9968   9.095  14.432   7.530  0.0078  0.1107 -0.0806
  713POPI    C1 9969  10.901  10.189   5.133 -0.1077  0.2539  0.2108
  713POPI    C2 9970  11.001  10.514   4.923 -0.0053  0.0330 -0.0888
  713POPI    C3 9971  10.654  10.329   4.851 -0.0992  0.1194  0.1354
  713POPI   PO4 9972  10.990  10.261   5.327 -0.1181 -0.1175 -0.0457
  713POPI   GL1 9973  10.811  10.283   5.729 -0.2371  0.3521 -0.3202
  713POPI   GL2 9974  10.904  10.026   6.062 -0.2334 -0.1445 -0.0974
  713POPI   C1A 9975  10.625  10.522   6.120  0.0980 -0.1521  0.0558
  713POPI   D2A 9976  10.523  10.798   6.463 -0.0688 -0.0339 -0.0254
  713POPI   C3A 9977  10.505  10.832   6.804  0.2532  0.0147  0.0499
  713POPI   C4A 9978  10.365  10.793   7.230 -0.0227 -0.0014 -0.1865
  713POPI   C1B 9979  10.872  10.228   6.524  0.4822 -0.1372  0.1483
  713POPI   C2B 9980  10.744  10.385   6.907 -0.0578 -0.2375  0.0662
  713POPI   C3B 9981  10.735  10.415   7.310 -0.0368  0.0007 -0.3143
  713POPI   C4B 9982  10.788  10.340   7.738 -0.1137  0.1742  0.5001
  714POPI    C1 9983  11.066  16.688   5.853  0.0281 -0.1186 -0.1486
  714POPI    C2 9984  11.395  16.600   6.062 -0.0242 -0.1253 -0.0684
  714POPI    C3 9985  11.260  16.345   5.785 -0.0825 -0.2222  0.0486
  714POPI   PO4 9986  10.922  16.769   6.033  0.0985 -0.2862 -0.1560
  714POPI   GL1 9987  11.072  16.561   6.424 -0.3026  0.2988 -0.0564
  714POPI   GL2 9988  10.744  16.653   6.518 -0.1029 -0.0032 -0.2395
  714POPI   C1A 9989  11.386  16.682   6.772  0.0295 -0.3156 -0.1073
  714POPI   D2A 9990  11.498  16.652   7.184  0.2071  0.2764  0.1145
  714POPI   C3A 9991  11.520  16.704   7.559  0.1717 -0.0440 -0.0417
  714POPI   C4A 9992  11.383  16.730   8.027  0.0948 -0.1477 -0.0939
  714POPI   C1B 9993  10.884  16.837   6.931  0.1453  0.2724 -0.0270
  714POPI   C2B 9994  11.029  16.936   7.338  0.0125 -0.1149  0.1990
  714POPI   C3B 9995  10.991  16.848   7.718 -0.1952  0.2162 -0.0239
  714POPI   C4B 9996  10.982  16.928   8.195  0.5956  0.2775  0.1238
  715POPI    C1 9997   4.356   2.094   5.918  0.2465 -0.0161 -0.0960
  715POPI    C2 9998   4.502   2.169   5.553 -0.2503  0.1633 -0.2668
  715POPI    C3 9999   4.107   2.137   5.607 -0.1814  0.1072  0.2539
  715POPI   PO410000   4.502   2.331   6.083 -0.2508 -0.0699  0.1540
  715POPI   GL110001   4.579   2.347   6.540 -0.0511  0.1426 -0.1312
  715POPI   GL210002   4.468   2.666   6.493 -0.1342  0.1204  0.0881
  715POPI   C1A10003   4.868   2.567   6.766  0.4122 -0.0314  0.0591
  715POPI   D2A10004   4.963   2.739   7.133 -0.2214  0.0091 -0.2300
  715POPI   C3A10005   5.102   2.902   7.582 -0.1037  0.0873 -0.3362
  715POPI   C4A10006   5.071   3.090   7.993 -0.0521 -0.0734 -0.0909
  715POPI   C1B10007   4.517   2.859   7.015 -0.3095  0.0957  0.2680
  715POPI   C2B10008   4.594   2.842   7.501 -0.1084 -0.0284 -0.0975
  715POPI   C3B10009   4.597   2.914   7.886 -0.2286  0.0972  0.0095
  715POPI   C4B10010   4.566   2.971   8.218 -0.0250 -0.0678 -0.2947
  716POPI    C110011  12.269  10.872   5.946  0.1532  0.0212 -0.0848
  716POPI    C210012  12.512  10.570   5.846  0.4089  0.0493  0.4185
  716POPI    C310013  12.210  10.508   6.101 -0.1635  0.0026 -0.2407
  716POPI   PO410014  12.411  11.058   5.954  0.2460  0.2232  0.2106
  716POPI   GL110015  12.577  11.248   6.270 -0.3361 -0.1513  0.0867
  716POPI   GL210016  12.345  11.426   6.393 -0.3621  0.1238 -0.0235
  716POPI   C1A10017  12.886  10.999   6.534 -0.0748 -0.0003  0.2484
  716POPI   D2A10018  12.815  10.989   7.060 -0.1754 -0.2751 -0.0984
  716POPI   C3A10019  13.035  11.246   7.325  0.1298 -0.3606  0.0904
  716POPI   C4A10020  13.298  11.442   7.560  0.1210  0.1266 -0.2899
  716POPI   C1B10021  12.382  11.227   6.840 -0.1061 -0.2647 -0.0510
  716POPI   C2B10022  12.363  11.205   7.255  0.1839  0.1429  0.0374
  716POPI   C3B10023  12.167  11.022   7.579 -0.0323  0.1319  0.0539
  716POPI   C4B10024  12.344  10.810   7.918 -0.2306  0.4511  0.0224
  717POPI    C110025  12.385  16.260   5.873 -0.2475 -0.0024 -0.1783
  717POPI    C210026  12.613  16.002   5.670 -0.0083 -0.1172  0.2243
  717POPI    C310027  12.640  16.394   5.596 -0.0025 -0.1645 -0.0346
  717POPI   PO410028  12.280  16.075   6.066 -0.0624  0.0019  0.0664
  717POPI   GL110029  12.290  15.715   6.422 -0.1176 -0.0535 -0.1861
  717POPI   GL210030  12.464  15.594   6.124  0.0390  0.1407 -0.1065
  717POPI   C1A10031  12.146  15.379   6.613  0.1494  0.2454  0.3433
  717POPI   D2A10032  11.951  15.239   6.911  0.0731 -0.0050  0.1283
  717POPI   C3A10033  11.824  14.973   7.362  0.0535  0.1572  0.3419
  717POPI   C4A10034  11.479  14.760   7.531 -0.3018 -0.0891 -0.0381
  717POPI   C1B10035  12.375  15.211   6.249 -0.5617 -0.0133  0.1735
  717POPI   C2B10036  12.359  14.847   6.583  0.4818  0.0213 -0.4729
  717POPI   C3B10037  12.087  14.700   6.980 -0.1018 -0.1467 -0.0051
  717POPI   C4B10038  12.230  14.330   7.200  0.0914  0.0428  0.0572
  718POPI    C110039   7.867  13.523   5.590 -0.3452  0.0990 -0.0205
  718POPI    C210040   7.679  13.605   5.933  0.0914  0.1320  0.2172
  718POPI    C310041   7.707  13.885   5.649 -0.0518  0.1882  0.2577
  718POPI   PO410042   8.157  13.456   5.716 -0.1757  0.0404 -0.0116
  718POPI   GL110043   8.319  13.222   6.076 -0.0815  0.2318  0.1287
  718POPI   GL210044   8.280  13.535   6.283  0.0087 -0.0434  0.1120
  718POPI   C1A10045   8.573  13.175   6.319 -0.1022  0.4122  0.1181
  718POPI   D2A10046   8.440  13.185   6.666  0.1080 -0.0668 -0.1097
  718POPI   C3A10047   8.519  13.151   7.026 -0.0435 -0.0485  0.0629
  718POPI   C4A10048   8.716  13.203   7.486 -0.0760  0.0061 -0.0926
  718POPI   C1B10049   8.152  13.582   6.721  0.1609  0.0340 -0.0485
  718POPI   C2B10050   7.905  13.846   6.972 -0.0785  0.0372 -0.1962
  718POPI   C3B10051   7.544  13.861   7.212 -0.1204  0.0499 -0.1693
  718POPI   C4B10052   7.272  13.810   7.610  0.2236 -0.0209  0.2996
  719POPI    C110053  10.009  18.480   5.872 -0.1403  0.0209  0.0186
  719POPI    C210054  10.183  18.306   5.556 -0.0319 -0.0127  0.0964
  719POPI    C310055   9.858  18.534   5.505  0.2084  0.2975 -0.0895
  719POPI   PO410056  10.232  18.576   6.015  0.0694  0.0907  0.1701
  719POPI   GL110057  10.452  18.657   6.515  0.1615 -0.2450  0.1007
  719POPI   GL210058  10.451  18.983   6.675 -0.1279  0.0313  0.0734
  719POPI   C1A10059  10.350  18.533   6.957  0.1551 -0.3488 -0.1088
  719POPI   D2A10060  10.454  18.494   7.406  0.3250 -0.2315  0.2047
  719POPI   C3A10061  10.364  18.346   7.783  0.2603 -0.1603  0.0856
  719POPI   C4A10062  10.048  18.425   8.282  0.0951 -0.2311 -0.1216
  719POPI   C1B10063  10.771  18.960   7.007  0.6110  0.1122  0.1125
  719POPI   C2B10064  10.862  18.796   7.387 -0.1081  0.1965 -0.4241
  719POPI   C3B10065  10.869  18.560   7.751 -0.0457 -0.3293  0.0399
  719POPI   C4B10066  11.161  18.383   8.067  0.0497  0.0813  0.2687
  720POPI    C110067  16.409   9.407   5.212 -0.0412  0.0042  0.1400
  720POPI    C210068  16.424   9.761   5.026  0.0720 -0.0569  0.0313
  720POPI    C310069  16.086   9.546   5.021  0.0513 -0.0230 -0.0384
  720POPI   PO410070  16.540   9.467   5.532 -0.1126 -0.4038  0.0916
  720POPI   GL110071  16.650   9.218   5.940 -0.2519  0.4908 -0.1869
  720POPI   GL210072  16.934   9.060   5.963  0.1076  0.0338 -0.0281
  720POPI   C1A10073  16.375   9.558   6.145 -0.2466 -0.1447  0.0404
  720POPI   D2A10074  15.983   9.697   6.297  0.1945 -0.0225 -0.2142
  720POPI   C3A10075  16.031  10.056   6.495  0.0901  0.0855  0.1418
  720POPI   C4A10076  16.074  10.466   6.777 -0.1082 -0.2841  0.1943
  720POPI   C1B10077  16.787   9.109   6.493 -0.3876  0.1637 -0.0311
  720POPI   C2B10078  16.698   9.334   6.933 -0.0070 -0.0619 -0.1566
  720POPI   C3B10079  16.455   9.492   7.260 -0.1708  0.0159 -0.3813
  720POPI   C4B10080  16.483   9.790   7.494 -0.0716 -0.0973  0.1245
  721POPI    C110081   9.529   1.690   5.807 -0.0240 -0.1166 -0.1175
  721POPI    C210082   9.379   1.888   5.494 -0.0565  0.1392  0.0568
  721POPI    C310083   9.531   1.521   5.445  0.0852  0.2401 -0.2869
  721POPI   PO410084   9.343   1.853   6.038  0.1399 -0.0696 -0.2510
  721POPI   GL110085   9.218   1.683   6.357 -0.0458  0.2826 -0.2124
  721POPI   GL210086   9.020   1.449   6.332  0.1137 -0.0116  0.0944
  721POPI   C1A10087   9.223   1.926   6.742  0.2655 -0.2109 -0.0285
  721POPI   D2A10088   9.200   1.954   7.261  0.4887  0.1090  0.1900
  721POPI   C3A10089   9.206   2.358   7.366  0.2490 -0.0063 -0.1484
  721POPI   C4A10090   9.284   2.538   7.723 -0.1083  0.1671  0.5815
  721POPI   C1B10091   8.809   1.625   6.656 -0.0927 -0.3754  0.2130
  721POPI   C2B10092   8.859   1.661   7.019  0.1581 -0.0576 -0.1675
  721POPI   C3B10093   8.823   1.690   7.549 -0.2316  0.0502  0.0591
  721POPI   C4B10094   8.875   1.481   7.963 -0.0047  0.3878  0.0480
  722POPI    C110095   3.772   6.742   5.733  0.0389 -0.0452  0.2851
  722POPI    C210096   3.767   6.342   5.725 -0.0704 -0.0413  0.1268
  722POPI    C310097   4.022   6.544   5.492 -0.2141 -0.0143 -0.0091
  722POPI   PO410098   3.721   6.873   5.991  0.2007 -0.0202 -0.4789
  722POPI   GL110099   3.654   6.662   6.408  0.2256 -0.0173  0.0163
  722POPI   GL210100   3.892   6.783   6.530 -0.1637 -0.1688  0.0823
  722POPI   C1A10101   3.333   6.528   6.770 -0.0031 -0.0676  0.0278
  722POPI   D2A10102   3.152   6.677   7.213 -0.2685  0.0373  0.0535
  722POPI   C3A10103   2.916   6.303   7.400  0.0948  0.4947  0.0293
  722POPI   C4A10104   2.515   6.218   7.637  0.4244  0.0756  0.1170
  722POPI   C1B10105   3.824   6.359   6.834  0.1293 -0.0166 -0.0160
  722POPI   C2B10106   3.818   6.359   7.189 -0.1906 -0.0573  0.0368
  722POPI   C3B10107   3.910   6.375   7.626  0.1406  0.0103  0.0084
  722POPI   C4B10108   3.819   6.128   8.023 -0.3388 -0.0971 -0.1338
  723POPI    C110109   7.786  11.104   5.550  0.0924 -0.0158 -0.1987
  723POPI    C210110   7.965  10.806   5.747  0.0336  0.0184 -0.0928
  723POPI    C310111   7.781  10.734   5.399 -0.1547 -0.1093  0.0313
  723POPI   PO410112   7.936  11.336   5.721 -0.1767 -0.0019  0.2071
  723POPI   GL110113   8.098  11.351   6.047 -0.1182  0.2045  0.0852
  723POPI   GL210114   8.211  11.038   6.049  0.1419 -0.0976 -0.1655
  723POPI   C1A10115   8.075  11.368   6.501 -0.5046 -0.1612  0.0790
  723POPI   D2A10116   8.257  11.331   6.808  0.3623 -0.0670  0.1115
  723POPI   C3A10117   8.290  11.542   7.216  0.1570 -0.1150  0.5426
  723POPI   C4A10118   8.151  11.727   7.511  0.0576 -0.0738  0.1266
  723POPI   C1B10119   8.322  10.907   6.463 -0.1416  0.1071  0.5213
  723POPI   C2B10120   8.299  10.798   6.897 -0.3285  0.0293  0.0134
  723POPI   C3B10121   8.515  11.057   7.267  0.3785 -0.2122  0.2204
  723POPI   C4B10122   8.578  10.990   7.696  0.1476 -0.0583  0.1433
  724POPI    C110123  15.615   3.417   5.572  0.2031 -0.1399 -0.1596
  724POPI    C210124  15.986   3.541   5.658  0.1416 -0.1904  0.1961
  724POPI    C310125  15.699   3.808   5.577  0.2808 -0.1558 -0.2042
  724POPI   PO410126  15.541   3.186   5.721  0.0079 -0.3019 -0.0054
  724POPI   GL110127  15.584   3.059   6.117 -0.0479  0.0244  0.0589
  724POPI   GL210128  15.696   2.700   6.183  0.0387  0.1395  0.0200
  724POPI   C1A10129  15.761   2.994   6.534  0.1471  0.5061 -0.0937
  724POPI   D2A10130  15.508   2.770   6.840  0.0013  0.1356 -0.0547
  724POPI   C3A10131  15.589   2.937   7.235  0.1392 -0.0413  0.3072
  724POPI   C4A10132  15.822   3.028   7.547  0.3640  0.1287 -0.0694
  724POPI   C1B10133  15.426   2.357   6.300 -0.0623  0.1420 -0.3434
  724POPI   C2B10134  15.491   2.276   6.742  0.1609 -0.1400  0.4032
  724POPI   C3B10135  15.499   2.450   7.182  0.2814  0.1461 -0.0601
  724POPI   C4B10136  15.535   2.574   7.631  0.1242 -0.0433 -0.1015
  725POPI    C110137  16.150  11.117   5.383 -0.0448 -0.0533 -0.1729
  725POPI    C210138  16.348  10.769   5.384  0.0716  0.0089  0.1936
  725POPI    C310139  16.188  10.908   5.044  0.1299 -0.3400  0.0188
  725POPI   PO410140  16.304  11.269   5.554  0.0477 -0.1173 -0.0977
  725POPI   GL110141  16.525  11.373   5.950  0.1237 -0.1177  0.1193
  725POPI   GL210142  16.819  11.366   5.897  0.1865 -0.2478 -0.0085
  725POPI   C1A10143  16.588  11.315   6.392  0.0080 -0.0048  0.0961
  725POPI   D2A10144  16.670  11.298   6.813 -0.0549 -0.0202 -0.2091
  725POPI   C3A10145  16.422  11.265   7.160 -0.0365 -0.2762  0.0221
  725POPI   C4A10146  16.400  10.995   7.510 -0.0436 -0.1310 -0.4993
  725POPI   C1B10147  17.013  11.588   6.262 -0.0928  0.0936  0.0184
  725POPI   C2B10148  17.013  11.957   6.539 -0.1933  0.0623  0.2152
  725POPI   C3B10149  17.091  12.368   6.789 -0.0698 -0.0751  0.1178
  725POPI   C4B10150  17.317  12.407   7.197 -0.2533  0.2627  0.0782
  726POPI    C110151   4.345  12.565   5.644  0.1335  0.1435  0.0961
  726POPI    C210152   4.454  12.779   5.964  0.2329  0.0182  0.1471
  726POPI    C310153   4.321  12.964   5.635  0.2082  0.1516  0.2315
  726POPI   PO410154   4.458  12.304   5.655  0.0299  0.2114 -0.3793
  726POPI   GL110155   4.488  12.105   6.078 -0.0391 -0.2365 -0.1990
  726POPI   GL210156   4.660  12.437   6.237 -0.2691  0.0538 -0.0292
  726POPI   C1A10157   4.129  11.862   6.059  0.1490  0.0626 -0.0206
  726POPI   D2A10158   3.715  11.940   6.207 -0.3147  0.0189  0.0943
  726POPI   C3A10159   3.617  12.011   6.585 -0.0804 -0.0723 -0.1657
  726POPI   C4A10160   3.514  11.832   7.037  0.0213 -0.1621  0.3028
  726POPI   C1B10161   4.794  12.309   6.608  0.3229  0.5461 -0.1044
  726POPI   C2B10162   4.637  12.169   6.936 -0.1069  0.0834  0.1584
  726POPI   C3B10163   4.664  12.231   7.387  0.3794 -0.1511 -0.1087
  726POPI   C4B10164   4.700  12.390   7.845  0.0427 -0.4727 -0.1688
  727POPI    C110165   6.297  16.120   6.269 -0.2438 -0.4843 -0.0134
  727POPI    C210166   6.181  16.058   5.891  0.0739 -0.0672 -0.1881
  727POPI    C310167   6.571  16.064   5.982  0.0081  0.1184  0.0934
  727POPI   PO410168   6.164  15.936   6.368  0.1029  0.0732 -0.2931
  727POPI   GL110169   6.277  15.732   6.744  0.1812 -0.2052  0.1820
  727POPI   GL210170   6.493  15.911   6.794  0.0477  0.0271 -0.2180
  727POPI   C1A10171   6.283  15.480   7.123  0.1525 -0.0913 -0.2346
  727POPI   D2A10172   6.477  15.397   7.499  0.2063 -0.1155  0.0030
  727POPI   C3A10173   6.812  15.659   7.573 -0.1120 -0.3133 -0.1202
  727POPI   C4A10174   7.177  15.779   7.376 -0.0676  0.1490  0.1098
  727POPI   C1B10175   6.715  15.910   7.106  0.0721 -0.1275 -0.0253
  727POPI   C2B10176   6.794  16.162   7.537 -0.2365 -0.0189 -0.2566
  727POPI   C3B10177   6.930  16.211   7.907 -0.0405  0.0734 -0.1640
  727POPI   C4B10178   7.017  16.080   8.292 -0.2415 -0.1229 -0.0759
  728POPI    C110179   4.060   4.539   5.417  0.0220  0.0694  0.0003
  728POPI    C210180   4.434   4.646   5.324 -0.0380 -0.0283 -0.3672
  728POPI    C310181   4.252   4.355   5.118 -0.1897 -0.2328  0.0451
  728POPI   PO410182   4.034   4.462   5.644 -0.1509  0.1647  0.0058
  728POPI   GL110183   4.063   4.506   6.058  0.0549  0.1412 -0.0413
  728POPI   GL210184   4.273   4.511   6.253 -0.1616 -0.0764  0.1271
  728POPI   C1A10185   3.824   4.690   6.412  0.2488 -0.3434  0.1537
  728POPI   D2A10186   3.725   4.748   6.769 -0.0791  0.2221  0.2111
  728POPI   C3A10187   3.904   4.528   7.020 -0.1014 -0.3123  0.0666
  728POPI   C4A10188   4.206   4.333   7.260  0.0389  0.1569 -0.2336
  728POPI   C1B10189   4.297   4.676   6.639 -0.1358 -0.1108 -0.1066
  728POPI   C2B10190   4.252   5.047   6.929  0.0182  0.1378  0.0808
  728POPI   C3B10191   4.473   5.171   7.223 -0.1084 -0.2898  0.4284
  728POPI   C4B10192   4.768   5.502   7.393  0.3097 -0.0925 -0.2054
  729POPI    C110193   6.108  11.125   5.478 -0.0326 -0.2715 -0.1681
  729POPI    C210194   6.344  10.929   5.734 -0.0227 -0.0626 -0.0150
  729POPI    C310195   6.286  10.785   5.366  0.1031 -0.2728  0.0456
  729POPI   PO410196   6.135  11.374   5.558  0.0454  0.4092  0.1556
  729POPI   GL110197   6.128  11.601   5.994  0.2499  0.2580  0.3111
  729POPI   GL210198   6.245  11.268   6.128  0.2803  0.2302 -0.1625
  729POPI   C1A10199   6.155  11.846   6.393  0.2762  0.1445  0.2539
  729POPI   D2A10200   6.308  12.140   6.765  0.1857  0.0384 -0.0882
  729POPI   C3A10201   6.161  11.983   7.169 -0.3608 -0.3241 -0.1802
  729POPI   C4A10202   5.999  11.688   7.379 -0.1478  0.0640 -0.0128
  729POPI   C1B10203   6.407  11.411   6.549 -0.2211  0.1512  0.0192
  729POPI   C2B10204   6.535  11.676   6.890  0.1896 -0.0685 -0.0270
  729POPI   C3B10205   6.536  11.628   7.381 -0.1138  0.1602 -0.3853
  729POPI   C4B10206   6.274  11.664   7.820  0.2611 -0.4924  0.0767
  730POPI    C110207   2.634   2.850   5.853  0.0600  0.0033  0.1158
  730POPI    C210208   2.770   2.481   5.926  0.2183  0.0608  0.1128
  730POPI    C310209   3.025   2.773   5.826  0.0578  0.0927 -0.2152
  730POPI   PO410210   2.363   2.748   6.000 -0.0290  0.1030 -0.0500
  730POPI   GL110211   2.473   2.462   6.358 -0.2827  0.2617 -0.0367
  730POPI   GL210212   2.739   2.253   6.403 -0.3089  0.0779  0.1019
  730POPI   C1A10213   2.490   2.614   6.746 -0.1064 -0.1856  0.0967
  730POPI   D2A10214   2.726   2.727   7.019 -0.0649 -0.1565 -0.1124
  730POPI   C3A10215   2.692   2.571   7.388  0.0993  0.0243  0.2140
  730POPI   C4A10216   2.695   2.530   7.887  0.0169 -0.0206  0.1376
  730POPI   C1B10217   2.916   2.420   6.706 -0.3230  0.1692  0.3948
  730POPI   C2B10218   3.163   2.285   7.028  0.1201  0.0241 -0.2594
  730POPI   C3B10219   3.025   2.217   7.459 -0.0837  0.0591 -0.0925
  730POPI   C4B10220   3.156   2.309   7.921 -0.2234  0.0281  0.1798
  731POPI    C110221   3.612  14.639   5.630  0.1424  0.3752  0.1436
  731POPI    C210222   3.801  14.290   5.582 -0.1091  0.2437  0.0946
  731POPI    C310223   3.879  14.595   5.335  0.1022  0.2192  0.1294
  731POPI   PO410224   3.552  14.658   5.839 -0.0050  0.1790 -0.5393
  731POPI   GL110225   3.545  14.719   6.272 -0.0006 -0.1169  0.0021
  731POPI   GL210226   3.191  14.822   6.218  0.0399  0.0584 -0.1141
  731POPI   C1A10227   3.592  14.991   6.606 -0.0793  0.0580 -0.0308
  731POPI   D2A10228   3.423  15.152   6.975 -0.1776  0.0897  0.1378
  731POPI   C3A10229   3.419  15.385   7.370 -0.0435  0.3651 -0.1265
  731POPI   C4A10230   3.373  15.442   7.772 -0.0020  0.1479  0.1189
  731POPI   C1B10231   3.174  14.548   6.562 -0.0129 -0.4717  0.0943
  731POPI   C2B10232   3.387  14.570   6.913 -0.1561  0.1952 -0.0143
  731POPI   C3B10233   3.661  14.520   7.183 -0.1419  0.0926  0.2327
  731POPI   C4B10234   3.826  14.673   7.652 -0.5128 -0.1057 -0.1262
  732POPI    C110235  12.149  13.174   5.701 -0.1253 -0.0143  0.0676
  732POPI    C210236  12.405  13.213   5.396 -0.1181  0.2469  0.1051
  732POPI    C310237  12.240  12.857   5.474  0.0315  0.1349 -0.0808
  732POPI   PO410238  12.258  13.435   5.862 -0.0529 -0.0227 -0.1223
  732POPI   GL110239  12.529  13.354   6.315 -0.0611 -0.1341  0.0503
  732POPI   GL210240  12.387  13.081   6.281 -0.2907  0.1182 -0.0237
  732POPI   C1A10241  12.583  13.437   6.710 -0.0806 -0.0834 -0.2257
  732POPI   D2A10242  12.593  13.260   7.101 -0.2866 -0.0547 -0.1009
  732POPI   C3A10243  12.321  13.224   7.492  0.0173  0.2097 -0.2689
  732POPI   C4A10244  12.179  12.908   7.897  0.1107 -0.2826  0.1848
  732POPI   C1B10245  12.328  13.014   6.704  0.2318 -0.2204 -0.1490
  732POPI   C2B10246  12.190  12.881   7.099  0.1968 -0.3234  0.0409
  732POPI   C3B10247  11.985  12.713   7.428 -0.0434  0.0399 -0.2383
  732POPI   C4B10248  12.108  12.485   7.708 -0.4132  0.1038 -0.6756
  733POPI    C110249   2.576   1.263   5.684  0.0319  0.3051 -0.2089
  733POPI    C210250   2.575   0.933   5.458  0.0604  0.0729  0.1220
  733POPI    C310251   2.853   1.214   5.399 -0.1126  0.1592 -0.3262
  733POPI   PO410252   2.591   1.193   5.896  0.1754  0.0905 -0.0725
  733POPI   GL110253   2.597   1.020   6.252 -0.2243 -0.1772 -0.0059
  733POPI   GL210254   2.304   0.888   6.257  0.1024 -0.1715 -0.2398
  733POPI   C1A10255   2.658   0.819   6.585  0.3124 -0.0670 -0.0313
  733POPI   D2A10256   2.716   0.921   7.009 -0.0498 -0.0589  0.1953
  733POPI   C3A10257   2.713   0.652   7.335 -0.1322 -0.1668 -0.0158
  733POPI   C4A10258   2.656   0.666   7.747 -0.2030  0.2372  0.1774
  733POPI   C1B10259   2.160   0.871   6.650  0.1963 -0.4195 -0.0048
  733POPI   C2B10260   2.246   0.899   7.052  0.2102 -0.2997  0.2389
  733POPI   C3B10261   2.309   0.894   7.477  0.1105 -0.0499  0.0485
  733POPI   C4B10262   2.552   1.107   7.836 -0.4727 -0.0585  0.2450
  734POPI    C110263  13.057   0.740   5.660 -0.0332  0.0196  0.2492
  734POPI    C210264  12.945   1.017   5.395  0.0358 -0.1876 -0.0009
  734POPI    C310265  12.763   0.661   5.401  0.0139 -0.1740  0.2525
  734POPI   PO410266  13.116   0.964   5.890  0.2536 -0.1273  0.0456
  734POPI   GL110267  13.414   1.308   6.019 -0.4156 -0.1887 -0.2039
  734POPI   GL210268  13.303   1.716   6.004  0.0448  0.0685  0.0856
  734POPI   C1A10269  13.771   1.427   6.296 -0.0401  0.0695 -0.0768
  734POPI   D2A10270  13.871   1.348   6.669  0.1681 -0.0142  0.0411
  734POPI   C3A10271  13.863   1.355   7.068  0.1100  0.1361 -0.0652
  734POPI   C4A10272  14.011   1.175   7.410  0.0546 -0.0981 -0.0609
  734POPI   C1B10273  13.495   1.770   6.496 -0.0690 -0.1302 -0.1185
  734POPI   C2B10274  13.573   1.843   6.858 -0.0809  0.0546  0.0867
  734POPI   C3B10275  13.683   1.861   7.290 -0.1527 -0.1382  0.1838
  734POPI   C4B10276  13.683   1.674   7.707 -0.0518 -0.1116  0.2506
  735POPI    C110277  12.155   7.194   5.469 -0.1354 -0.1046 -0.0089
  735POPI    C210278  12.554   7.226   5.473 -0.1574  0.1790  0.1487
  735POPI    C310279  12.356   7.242   5.126 -0.0318  0.0232  0.0687
  735POPI   PO410280  12.082   7.040   5.762  0.0164 -0.1473 -0.0062
  735POPI   GL110281  12.082   6.860   6.161 -0.3877  0.0257 -0.0884
  735POPI   GL210282  11.908   6.560   5.948 -0.2926  0.1423 -0.2155
  735POPI   C1A10283  12.130   6.797   6.642 -0.1344  0.0477 -0.2055
  735POPI   D2A10284  12.312   7.063   6.984 -0.4894 -0.1304  0.2001
  735POPI   C3A10285  12.129   7.050   7.375 -0.0807 -0.1061  0.0124
  735POPI   C4A10286  11.960   7.326   7.647  0.1175  0.1221 -0.1047
  735POPI   C1B10287  11.842   6.396   6.357  0.0242  0.2284 -0.1342
  735POPI   C2B10288  11.857   6.398   6.741  0.1597  0.2208  0.0481
  735POPI   C3B10289  11.847   6.604   7.166  0.0062 -0.0057 -0.1248
  735POPI   C4B10290  11.588   6.805   7.395 -0.2272 -0.0519  0.0774
  736POPI    C110291  14.347   5.863   5.277 -0.0918 -0.0870  0.0158
  736POPI    C210292  14.508   6.004   4.939  0.0212  0.1398  0.1612
  736POPI    C310293  14.115   5.931   4.958 -0.0038  0.2316  0.0160
  736POPI   PO410294  14.483   6.008   5.493 -0.1280 -0.1540  0.0965
  736POPI   GL110295  14.625   5.987   5.934 -0.3169 -0.2681  0.0987
  736POPI   GL210296  14.540   5.802   5.981 -0.0636  0.1012  0.3105
  736POPI   C1A10297  14.554   6.257   6.310  0.0209  0.0603  0.1373
  736POPI   D2A10298  14.389   6.007   6.699  0.3449  0.3543  0.2594
  736POPI   C3A10299  14.720   6.039   6.977  0.0975  0.0387 -0.1738
  736POPI   C4A10300  14.679   5.929   7.373  0.2730 -0.1993  0.0789
  736POPI   C1B10301  14.589   5.694   6.359  0.0354 -0.2768 -0.0790
  736POPI   C2B10302  14.696   5.598   6.781 -0.1153 -0.2340 -0.1336
  736POPI   C3B10303  14.529   5.491   7.056 -0.0113 -0.1233 -0.4746
  736POPI   C4B10304  14.580   5.415   7.488  0.2999  0.0629 -0.0565
  737POPI    C110305  10.444   8.634   5.301  0.1763  0.0691  0.0299
  737POPI    C210306  10.044   8.643   5.280  0.1569 -0.2025  0.2246
  737POPI    C310307  10.249   8.366   5.077  0.2511 -0.0371  0.0909
  737POPI   PO410308  10.488   8.662   5.526 -0.3007 -0.1554  0.0438
  737POPI   GL110309  10.150   8.580   5.839 -0.2881 -0.0642 -0.1968
  737POPI   GL210310  10.219   8.362   6.037  0.1717  0.0925 -0.2868
  737POPI   C1A10311  10.268   8.866   6.284  0.2981  0.0700  0.2040
  737POPI   D2A10312  10.507   8.955   6.642  0.1142  0.1069 -0.1921
  737POPI   C3A10313  10.370   8.900   7.089 -0.1343 -0.2649 -0.2005
  737POPI   C4A10314  10.603   8.635   7.312 -0.1892 -0.3002  0.0159
  737POPI   C1B10315  10.339   8.411   6.425 -0.1575  0.0384 -0.1577
  737POPI   C2B10316  10.400   8.416   6.896  0.2096 -0.1183 -0.0948
  737POPI   C3B10317  10.220   8.268   7.330 -0.2139  0.1644 -0.1561
  737POPI   C4B10318  10.012   8.424   7.634 -0.2558 -0.1443  0.2672
  738POPI    C110319  16.749   7.168   5.530  0.2247  0.3483 -0.1919
  738POPI    C210320  17.024   7.011   5.285 -0.0300 -0.2610 -0.1067
  738POPI    C310321  16.653   7.080   5.151 -0.1042 -0.3708  0.0395
  738POPI   PO410322  16.929   7.309   5.703 -0.2014  0.0847  0.0673
  738POPI   GL110323  17.002   7.562   6.074 -0.0447  0.0576 -0.0390
  738POPI   GL210324  17.238   7.555   6.225  0.0884  0.2166 -0.0089
  738POPI   C1A10325  16.770   7.627   6.485 -0.2013  0.2780 -0.1794
  738POPI   D2A10326  16.738   7.730   6.923 -0.5424  0.0577 -0.2735
  738POPI   C3A10327  17.059   7.716   7.185  0.0847  0.1407  0.2898
  738POPI   C4A10328  17.461   7.550   7.429  0.0254 -0.0732 -0.2123
  738POPI   C1B10329  17.165   7.419   6.715 -0.2083  0.1348 -0.0396
  738POPI   C2B10330  17.149   7.205   7.169  0.1407 -0.2432  0.1690
  738POPI   C3B10331  17.168   6.944   7.566  0.1233 -0.3498 -0.1649
  738POPI   C4B10332  17.124   6.567   7.775 -0.1097  0.1857 -0.1583
  739POPI    C110333  14.947  12.159   5.378  0.3200  0.0380 -0.2822
  739POPI    C210334  14.918  12.552   5.308 -0.4512  0.1073  0.2852
  739POPI    C310335  14.683  12.295   5.110 -0.1017 -0.0553  0.0721
  739POPI   PO410336  14.891  12.204   5.703  0.0407  0.0145  0.3934
  739POPI   GL110337  15.136  12.135   6.028  0.0213  0.0886 -0.1572
  739POPI   GL210338  15.197  11.771   5.981  0.0936 -0.1720 -0.1256
  739POPI   C1A10339  14.953  11.983   6.436 -0.0460 -0.0982 -0.1541
  739POPI   D2A10340  14.865  11.627   6.666 -0.0216 -0.1266 -0.2479
  739POPI   C3A10341  15.216  11.287   6.881 -0.3961 -0.0838 -0.0682
  739POPI   C4A10342  15.394  11.251   7.262 -0.1728 -0.1370  0.0994
  739POPI   C1B10343  15.331  11.638   6.452  0.0175 -0.0246  0.1442
  739POPI   C2B10344  15.276  11.775   6.884  0.0064 -0.0754 -0.1644
  739POPI   C3B10345  15.175  11.708   7.277 -0.0299  0.2021 -0.2937
  739POPI   C4B10346  15.307  11.637   7.698 -0.1832 -0.2221  0.0587
  740POPI    C110347   0.197   2.674   6.006  0.0402  0.0141  0.0981
  740POPI    C210348   0.327   2.654   5.628 -0.0365  0.2580  0.0572
  740POPI    C310349   0.361   2.336   5.868  0.2272  0.1768 -0.0844
  740POPI   PO410350  -0.093   2.698   5.974  0.0232  0.0207 -0.4513
  740POPI   GL110351  -0.491   2.514   6.192 -0.2788 -0.1869 -0.0398
  740POPI   GL210352  -0.517   2.677   6.474 -0.1496  0.0222  0.3110
  740POPI   C1A10353  -0.471   2.140   6.463  0.1462 -0.1323  0.1151
  740POPI   D2A10354  -0.273   1.698   6.537 -0.2798 -0.3049 -0.1717
  740POPI   C3A10355  -0.173   1.555   6.891  0.0240  0.0925  0.2564
  740POPI   C4A10356  -0.265   1.285   7.241 -0.2993  0.1512  0.2396
  740POPI   C1B10357  -0.343   2.384   6.857 -0.0214 -0.0191 -0.1853
  740POPI   C2B10358  -0.283   2.006   7.187 -0.1063 -0.2381 -0.1229
  740POPI   C3B10359  -0.247   1.757   7.458 -0.0310  0.0161  0.0749
  740POPI   C4B10360  -0.249   1.667   7.860 -0.1651  0.0538 -0.3042
  741POPI    C110361   7.663  10.149   5.590 -0.0965 -0.0404 -0.0373
  741POPI    C210362   7.937  10.024   5.854 -0.0340 -0.0986 -0.1293
  741POPI    C310363   7.979   9.938   5.465 -0.2299 -0.1862 -0.1323
  741POPI   PO410364   7.499  10.325   5.695  0.2858 -0.2927  0.0278
  741POPI   GL110365   7.630  10.566   5.993  0.1466  0.0255  0.3835
  741POPI   GL210366   7.243  10.626   6.053  0.0409 -0.0071 -0.4100
  741POPI   C1A10367   7.737  10.583   6.436 -0.1070  0.0608  0.0637
  741POPI   D2A10368   8.089  10.404   6.636  0.2231 -0.0281  0.1869
  741POPI   C3A10369   8.127  10.003   6.587 -0.0052  0.0720  0.0934
  741POPI   C4A10370   7.923   9.702   6.245  0.1202  0.1846  0.0712
  741POPI   C1B10371   6.864  10.462   6.178  0.0887 -0.2047  0.2498
  741POPI   C2B10372   6.394  10.389   6.207  0.2898 -0.0832 -0.0452
  741POPI   C3B10373   6.148   9.998   6.300 -0.0231 -0.0601  0.0158
  741POPI   C4B10374   5.907   9.604   6.228  0.1799 -0.3748  0.1572
  742POPS   CNO10375  15.587   4.061   5.092 -0.0887  0.0750 -0.1230
  742POPS   PO410376  15.798   4.410   5.275  0.1121  0.0784 -0.0610
  742POPS   GL110377  15.491   4.358   5.628 -0.2479 -0.1293 -0.0071
  742POPS   GL210378  15.410   4.781   5.661  0.0278  0.0737  0.2434
  742POPS   C1A10379  15.482   4.463   6.023  0.0669 -0.2185 -0.1829
  742POPS   D2A10380  15.200   4.483   6.379 -0.2865  0.1616 -0.2495
  742POPS   C3A10381  15.084   4.586   6.840  0.0144 -0.0359  0.1154
  742POPS   C4A10382  15.231   4.596   7.260  0.0486  0.1309 -0.1437
  742POPS   C1B10383  15.287   5.019   6.060 -0.2090 -0.1371  0.0023
  742POPS   C2B10384  15.181   5.001   6.469  0.0150  0.0348 -0.0863
  742POPS   C3B10385  15.286   5.320   6.827 -0.1001  0.0272 -0.2298
  742POPS   C4B10386  15.550   5.536   7.069 -0.2014 -0.2277 -0.1045
  743POPS   CNO10387   5.708   8.536   5.167 -0.0349 -0.0991 -0.0292
  743POPS   PO410388   5.558   8.525   5.517 -0.1369  0.1636  0.1975
  743POPS   GL110389   5.305   8.366   5.943 -0.1392  0.0300  0.0649
  743POPS   GL210390   5.078   8.154   6.158  0.1573 -0.0472  0.1653
  743POPS   C1A10391   5.408   8.532   6.324 -0.2720  0.3614  0.1341
  743POPS   D2A10392   5.262   8.351   6.708  0.0944 -0.1433 -0.2415
  743POPS   C3A10393   5.416   8.404   7.142  0.0030  0.1668 -0.1114
  743POPS   C4A10394   5.518   8.559   7.530  0.2312  0.1244 -0.2683
  743POPS   C1B10395   5.167   7.897   6.626  0.1815 -0.0210 -0.0968
  743POPS   C2B10396   5.163   7.947   7.030 -0.0082 -0.1331 -0.3541
  743POPS   C3B10397   5.179   8.115   7.458 -0.1162  0.3193  0.3418
  743POPS   C4B10398   5.201   8.480   7.869 -0.1033 -0.0786  0.0379
  744POPS   CNO10399  11.088   9.341   5.219  0.1221 -0.1047 -0.0561
  744POPS   PO410400  11.270   8.969   5.449  0.0594 -0.1075  0.2781
  744POPS   GL110401  11.177   8.972   5.866  0.1720  0.0800  0.0467
  744POPS   GL210402  11.403   8.779   5.897 -0.2395  0.1744 -0.1745
  744POPS   C1A10403  11.100   9.010   6.237 -0.0245 -0.0004 -0.0881
  744POPS   D2A10404  11.434   8.807   6.448  0.2818  0.0813  0.1403
  744POPS   C3A10405  11.347   8.728   6.869  0.2365 -0.1166 -0.1035
  744POPS   C4A10406  11.486   8.807   7.266 -0.3615  0.4596  0.0020
  744POPS   C1B10407  11.098   8.542   6.160  0.0498  0.2495 -0.0586
  744POPS   C2B10408  10.859   8.555   6.507 -0.0599 -0.2319  0.1104
  744POPS   C3B10409  10.830   8.655   6.863 -0.1351 -0.1041 -0.0873
  744POPS   C4B10410  10.929   8.981   7.045  0.0968 -0.1386 -0.0976
  745POPS   CNO10411   2.163  18.385   5.688 -0.0899 -0.0458  0.1911
  745POPS   PO410412   1.956  18.194   6.041 -0.0526 -0.2517  0.2438
  745POPS   GL110413   1.975  18.269   6.522 -0.0410  0.0635  0.0928
  745POPS   GL210414   2.257  18.374   6.558 -0.0024  0.1184  0.1149
  745POPS   C1A10415   1.787  18.497   6.914 -0.1446  0.1100 -0.1843
  745POPS   D2A10416   1.973  18.563   7.219  0.1918  0.0763  0.1621
  745POPS   C3A10417   1.798  18.665   7.559  0.2619 -0.2008 -0.1369
  745POPS   C4A10418   1.498  18.636   7.870 -0.1142  0.1117  0.0572
  745POPS   C1B10419   2.171  18.098   6.935 -0.1748  0.0181  0.2332
  745POPS   C2B10420   2.036  18.155   7.443 -0.1177 -0.2544  0.1879
  745POPS   C3B10421   2.232  18.046   7.814  0.1380 -0.0099 -0.3624
  745POPS   C4B10422   2.570  17.926   8.086 -0.0393  0.2508 -0.0077
  746POPS   CNO10423  13.788  12.870   5.267  0.0212  0.1386 -0.1307
  746POPS   PO410424  14.169  12.936   5.560 -0.0998 -0.1210  0.0054
  746POPS   GL110425  14.233  12.856   5.912  0.2317  0.0930  0.0787
  746POPS   GL210426  14.148  12.495   5.946 -0.2158 -0.0268 -0.0591
  746POPS   C1A10427  14.555  12.862   6.239  0.0693 -0.0782  0.0087
  746POPS   D2A10428  14.801  12.965   6.576  0.2102 -0.0576 -0.1855
  746POPS   C3A10429  14.704  12.924   7.041 -0.1042 -0.1657  0.2928
  746POPS   C4A10430  14.600  13.049   7.534  0.0765 -0.0495  0.0530
  746POPS   C1B10431  14.135  12.668   6.340  0.2389  0.2203  0.0643
  746POPS   C2B10432  14.250  12.902   6.655  0.1199  0.2552  0.0232
  746POPS   C3B10433  14.160  13.062   7.082 -0.1157  0.2569  0.1509
  746POPS   C4B10434  14.078  13.010   7.546  0.1237 -0.1832  0.1166
  747POPS   CNO10435   7.008  10.369   5.657  0.0218 -0.2485 -0.1414
  747POPS   PO410436   6.815  10.769   5.561  0.0286 -0.2284 -0.0695
  747POPS   GL110437   6.809  10.965   6.025  0.1207  0.1925  0.0897
  747POPS   GL210438   6.560  10.877   6.188  0.2828 -0.1978 -0.2356
  747POPS   C1A10439   6.818  11.384   6.242  0.2249  0.1801  0.0980
  747POPS   D2A10440   6.925  11.669   6.583  0.2722 -0.2749 -0.2365
  747POPS   C3A10441   7.013  11.576   7.027 -0.0317  0.2083 -0.0406
  747POPS   C4A10442   7.194  11.532   7.464  0.1300 -0.0610 -0.0343
  747POPS   C1B10443   6.764  10.958   6.517  0.1268 -0.0612  0.1041
  747POPS   C2B10444   6.960  11.106   6.883  0.0704 -0.0027  0.0780
  747POPS   C3B10445   6.784  11.192   7.211 -0.0100  0.2584  0.2692
  747POPS   C4B10446   6.853  11.172   7.582  0.1312  0.0055  0.0016
  748POPS   CNO10447   8.199   5.103   5.152  0.2870 -0.0070  0.0157
  748POPS   PO410448   8.552   4.956   5.368  0.3722  0.0114  0.0037
  748POPS   GL110449   8.569   4.911   5.862 -0.1571  0.1608  0.0294
  748POPS   GL210450   8.655   4.614   6.099  0.0290  0.0850 -0.0844
  748POPS   C1A10451   8.491   5.049   6.323  0.0013  0.3001  0.0378
  748POPS   D2A10452   8.313   5.183   6.572  0.2704  0.2968 -0.1331
  748POPS   C3A10453   8.369   5.204   7.036  0.0831 -0.1392  0.1924
  748POPS   C4A10454   8.572   5.185   7.426 -0.0156  0.2183 -0.1140
  748POPS   C1B10455   8.996   4.580   6.279 -0.0498  0.3322  0.2671
  748POPS   C2B10456   9.142   4.181   6.606 -0.1985  0.1893  0.1023
  748POPS   C3B10457   9.249   4.015   7.010 -0.1415 -0.3973  0.1323
  748POPS   C4B10458   9.420   4.048   7.321  0.0998  0.2393  0.0828
  749POPS   CNO10459   5.291  12.788   5.612  0.0041  0.0039  0.1520
  749POPS   PO410460   5.515  12.610   5.883 -0.0739 -0.3691 -0.1792
  749POPS   GL110461   5.440  12.806   6.185 -0.2687  0.1615 -0.0422
  749POPS   GL210462   5.213  12.897   6.447 -0.0938 -0.0043  0.0517
  749POPS   C1A10463   5.670  12.971   6.551  0.1036 -0.3282 -0.0233
  749POPS   D2A10464   5.642  13.002   7.047  0.1576  0.1781  0.3750
  749POPS   C3A10465   5.718  13.227   7.405  0.0479 -0.3055 -0.1386
  749POPS   C4A10466   5.877  13.248   7.784  0.0025  0.1946  0.1516
  749POPS   C1B10467   4.849  12.785   6.652  0.2513  0.1028 -0.0601
  749POPS   C2B10468   4.804  12.742   7.027  0.2362  0.0149 -0.2077
  749POPS   C3B10469   4.712  12.753   7.435 -0.0003 -0.0178 -0.1446
  749POPS   C4B10470   4.790  13.122   7.819 -0.2920  0.0605  0.1227
  750POPS   CNO10471   6.066  18.231   5.624  0.0262 -0.4096 -0.0309
  750POPS   PO410472   6.502  18.309   5.632  0.1531 -0.2230  0.1566
  750POPS   GL110473   6.466  18.205   6.066  0.1415 -0.2593 -0.1738
  750POPS   GL210474   6.295  17.967   6.195  0.1433 -0.1315 -0.2502
  750POPS   C1A10475   6.525  18.263   6.585  0.1979  0.2218 -0.0024
  750POPS   D2A10476   6.424  18.156   6.952  0.0872 -0.0548 -0.2462
  750POPS   C3A10477   6.237  18.064   7.364 -0.0624 -0.0675  0.1043
  750POPS   C4A10478   6.065  18.079   7.833  0.1941  0.2718  0.2143
  750POPS   C1B10479   6.008  18.073   6.605 -0.0509 -0.2344 -0.1338
  750POPS   C2B10480   5.763  18.217   6.892  0.1951  0.0151  0.3074
  750POPS   C3B10481   5.665  18.205   7.367 -0.2135 -0.1694  0.1427
  750POPS   C4B10482   5.597  18.152   7.795  0.0153 -0.0614 -0.0989
  751POPS   CNO10483  12.307   7.695   5.434  0.0140 -0.0409  0.1003
  751POPS   PO410484  12.035   7.850   5.685  0.5312  0.0859  0.1994
  751POPS   GL110485  11.835   7.866   5.974 -0.0777  0.0987 -0.0596
  751POPS   GL210486  12.119   7.899   6.202  0.3284 -0.1629 -0.0456
  751POPS   C1A10487  11.617   7.828   6.322  0.0064  0.1304 -0.0887
  751POPS   D2A10488  11.460   7.548   6.657 -0.5031 -0.1247 -0.2201
  751POPS   C3A10489  11.569   7.713   7.087 -0.2007  0.0209 -0.0174
  751POPS   C4A10490  11.845   7.761   7.454 -0.2319 -0.1393  0.1396
  751POPS   C1B10491  12.326   8.131   6.602 -0.2432  0.0281  0.0023
  751POPS   C2B10492  12.204   8.360   6.966  0.1007 -0.1464  0.1475
  751POPS   C3B10493  12.046   8.526   7.343 -0.1826  0.1195  0.0345
  751POPS   C4B10494  12.042   8.714   7.681  0.1305 -0.1955 -0.1332
  752POPS   CNO10495   0.026  16.126   5.776 -0.2706 -0.4436  0.1100
  752POPS   PO410496  -0.054  15.761   5.559  0.2645 -0.0726 -0.1447
  752POPS   GL110497  -0.148  15.660   6.047  0.2006 -0.1230  0.0984
  752POPS   GL210498  -0.465  15.703   6.041  0.3151  0.1937 -0.3290
  752POPS   C1A10499  -0.141  15.763   6.543  0.0879  0.0553 -0.2495
  752POPS   D2A10500  -0.024  15.896   6.923  0.1537 -0.4190 -0.1492
  752POPS   C3A10501  -0.117  15.648   7.295 -0.4110 -0.0853  0.0683
  752POPS   C4A10502  -0.331  15.474   7.641 -0.0701 -0.1407  0.3312
  752POPS   C1B10503  -0.570  15.508   6.470 -0.0537  0.2264 -0.1435
  752POPS   C2B10504  -0.546  15.673   6.979  0.1942 -0.2555 -0.1167
  752POPS   C3B10505  -0.474  15.912   7.356 -0.2022  0.1339  0.0365
  752POPS   C4B10506  -0.383  15.937   7.824 -0.1458  0.1382  0.2974
  753POPS   CNO10507   6.167  10.418   4.907 -0.1390  0.2746 -0.1476
  753POPS   PO410508   6.097  10.280   5.395 -0.0850  0.0217  0.0068
  753POPS   GL110509   5.939  10.584   5.667  0.0272 -0.0763  0.1958
  753POPS   GL210510   5.595  10.484   5.835  0.0105  0.2908  0.0759
  753POPS   C1A10511   6.097  10.797   6.107  0.1306 -0.1193 -0.1110
  753POPS   D2A10512   6.156  10.786   6.508  0.0618  0.1230 -0.0339
  753POPS   C3A10513   6.385  10.944   6.820  0.0146  0.2801  0.0306
  753POPS   C4A10514   6.405  10.840   7.333 -0.3059 -0.2278 -0.0106
  753POPS   C1B10515   5.835  10.423   6.295  0.0790 -0.1774  0.1029
  753POPS   C2B10516   5.974  10.407   6.725 -0.0097  0.0341  0.0680
  753POPS   C3B10517   6.349  10.235   7.023 -0.0561  0.0499 -0.0301
  753POPS   C4B10518   6.429  10.362   7.506 -0.1018  0.1154  0.0156
  754POPS   CNO10519  12.323   6.053   5.314 -0.0036 -0.3992 -0.3281
  754POPS   PO410520  12.612   6.299   5.339  0.1074  0.0576 -0.0134
  754POPS   GL110521  12.410   6.323   5.722  0.2924 -0.1885  0.0177
  754POPS   GL210522  12.569   6.570   5.934  0.0238 -0.1073 -0.2141
  754POPS   C1A10523  12.214   6.188   6.078 -0.0430  0.2966 -0.1038
  754POPS   D2A10524  12.232   5.811   6.371 -0.1638  0.1965 -0.1098
  754POPS   C3A10525  12.407   5.808   6.903  0.3843 -0.1126 -0.1149
  754POPS   C4A10526  12.536   6.046   7.260  0.0617 -0.1932 -0.0918
  754POPS   C1B10527  12.518   6.557   6.314  0.0373  0.0708 -0.0824
  754POPS   C2B10528  12.316   6.274   6.601  0.0634 -0.2153 -0.2013
  754POPS   C3B10529  12.053   6.129   7.073 -0.0126 -0.3412 -0.0477
  754POPS   C4B10530  12.131   6.219   7.487  0.0316 -0.4723 -0.2911
  755POPS   CNO10531  14.557  15.028   5.509  0.2093  0.0309  0.0041
  755POPS   PO410532  14.961  15.203   5.496 -0.2513 -0.3162 -0.3200
  755POPS   GL110533  14.844  15.233   5.924  0.4137 -0.0758 -0.0052
  755POPS   GL210534  14.820  14.990   6.042 -0.1862 -0.2129  0.1308
  755POPS   C1A10535  14.862  15.470   6.304 -0.3830  0.0068  0.1053
  755POPS   D2A10536  14.893  15.358   6.703 -0.0106 -0.3704 -0.0123
  755POPS   C3A10537  14.805  15.519   6.967 -0.0836 -0.2846 -0.2428
  755POPS   C4A10538  14.561  15.684   7.287  0.2616  0.0926 -0.0830
  755POPS   C1B10539  14.738  14.977   6.460 -0.0609  0.4827 -0.0915
  755POPS   C2B10540  14.841  15.004   7.002 -0.2351 -0.1293  0.2852
  755POPS   C3B10541  14.912  14.829   7.476 -0.0019 -0.0416  0.3428
  755POPS   C4B10542  15.202  14.562   7.606  0.1277  0.0220  0.1259
  756POPS   CNO10543  10.712  14.344   5.675  0.0992  0.1481  0.0342
  756POPS   PO410544  10.572  14.797   5.675 -0.0657  0.0463  0.0241
  756POPS   GL110545  10.701  14.793   6.170  0.0889  0.1090  0.0589
  756POPS   GL210546  10.784  14.547   6.383  0.0183 -0.2048  0.1199
  756POPS   C1A10547  10.709  15.028   6.639 -0.2811  0.1581  0.3151
  756POPS   D2A10548  10.640  14.948   7.067 -0.4192 -0.1201 -0.0407
  756POPS   C3A10549  10.216  15.081   7.255 -0.3227  0.1522 -0.0031
  756POPS   C4A10550   9.872  15.040   7.146  0.2835  0.1554  0.2578
  756POPS   C1B10551  10.954  14.561   6.794 -0.1260  0.0216  0.2245
  756POPS   C2B10552  10.960  14.369   7.061  0.0670  0.2739  0.3477
  756POPS   C3B10553  10.979  14.401   7.519  0.1417  0.2799 -0.3011
  756POPS   C4B10554  10.930  14.714   7.875  0.0467  0.1494 -0.2963
  757POPS   CNO10555  15.092   7.797   5.952 -0.1875 -0.3396  0.2082
  757POPS   PO410556  15.088   8.039   5.613  0.0579 -0.0679 -0.0496
  757POPS   GL110557  14.822   8.224   5.937 -0.1293 -0.1529 -0.1131
  757POPS   GL210558  14.985   8.392   6.175  0.0546  0.1509 -0.0070
  757POPS   C1A10559  14.713   8.000   6.295  0.0908  0.0455 -0.0668
  757POPS   D2A10560  14.873   8.066   6.720 -0.4995 -0.1081  0.0567
  757POPS   C3A10561  14.820   7.978   7.093 -0.0249  0.1550 -0.0096
  757POPS   C4A10562  15.063   7.842   7.391  0.2495 -0.0571  0.3270
  757POPS   C1B10563  15.024   8.557   6.574  0.3729 -0.0476 -0.0320
  757POPS   C2B10564  15.126   8.435   6.955 -0.1735  0.2886  0.2433
  757POPS   C3B10565  15.085   8.511   7.436 -0.4613  0.2658 -0.1893
  757POPS   C4B10566  14.876   8.591   7.788  0.0794 -0.2059 -0.1079
  758POPS   CNO10567   6.425  16.585   6.089  0.2610 -0.1189  0.0567
  758POPS   PO410568   6.833  16.490   6.125  0.0247 -0.1149  0.0746
  758POPS   GL110569   6.604  16.411   6.575 -0.1861 -0.0939 -0.0861
  758POPS   GL210570   6.405  16.578   6.600  0.0429  0.3862 -0.0032
  758POPS   C1A10571   6.545  16.361   7.057  0.0138  0.0182 -0.0226
  758POPS   D2A10572   6.449  16.510   7.424 -0.3912 -0.3359  0.2280
  758POPS   C3A10573   6.314  16.332   7.876 -0.0350 -0.1143  0.0173
  758POPS   C4A10574   6.141  16.128   8.182 -0.5426 -0.0849 -0.2088
  758POPS   C1B10575   6.429  16.875   6.799 -0.2200  0.0995 -0.1563
  758POPS   C2B10576   6.423  16.923   7.223  0.1973 -0.0689  0.1024
  758POPS   C3B10577   6.349  16.963   7.610  0.2437 -0.1668  0.1246
  758POPS   C4B10578   6.485  17.094   8.006  0.3432  0.1274 -0.0729
  759POPS   CNO10579   5.201   5.321   5.327  0.1285 -0.0728  0.2370
  759POPS   PO410580   4.999   5.432   5.724  0.1620 -0.1045  0.3296
  759POPS   GL110581   5.044   5.397   6.195  0.1823  0.1835 -0.0948
  759POPS   GL210582   5.067   5.697   6.303 -0.0731  0.3946 -0.2513
  759POPS   C1A10583   5.299   5.366   6.569 -0.1964 -0.0717  0.0065
  759POPS   D2A10584   5.484   5.248   6.991  0.0704  0.0861 -0.0644
  759POPS   C3A10585   5.217   5.269   7.374  0.0210 -0.1058  0.0134
  759POPS   C4A10586   5.103   5.402   7.711  0.1393 -0.1695 -0.1627
  759POPS   C1B10587   4.873   5.901   6.671 -0.1219  0.1117 -0.0198
  759POPS   C2B10588   4.569   5.715   6.976 -0.1385  0.0288 -0.0384
  759POPS   C3B10589   4.273   5.761   7.302  0.2963 -0.0536  0.0511
  759POPS   C4B10590   4.223   5.846   7.840 -0.4363  0.1276 -0.0288
  760POPS   CNO10591   7.911   5.962   5.080  0.0585 -0.1356  0.0172
  760POPS   PO410592   7.937   5.840   5.468 -0.1621 -0.3792 -0.1545
  760POPS   GL110593   7.911   5.662   5.977  0.3838  0.1076  0.0642
  760POPS   GL210594   7.524   5.637   6.094 -0.0312  0.0769  0.1571
  760POPS   C1A10595   8.080   5.625   6.372 -0.0282 -0.0016  0.2930
  760POPS   D2A10596   8.384   5.694   6.803 -0.1374 -0.0450  0.0623
  760POPS   C3A10597   8.532   5.660   7.256  0.0812 -0.5193 -0.3251
  760POPS   C4A10598   8.411   5.783   7.645 -0.0457 -0.0049 -0.3827
  760POPS   C1B10599   7.623   5.829   6.542  0.2996  0.2337 -0.1239
  760POPS   C2B10600   7.734   5.996   6.958 -0.3187 -0.0012 -0.0348
  760POPS   C3B10601   8.009   5.832   7.230  0.1200  0.1639  0.0744
  760POPS   C4B10602   8.020   5.428   7.345 -0.3017 -0.2181  0.0244
  761POPS   CNO10603  14.076   3.839   5.032  0.0199 -0.0157  0.0038
  761POPS   PO410604  13.644   3.857   4.985  0.4566 -0.3170 -0.1244
  761POPS   GL110605  13.858   4.008   5.442 -0.1197  0.2885  0.0603
  761POPS   GL210606  14.209   4.106   5.441 -0.0024  0.1977  0.1644
  761POPS   C1A10607  13.696   4.001   5.860  0.1242  0.2571 -0.0284
  761POPS   D2A10608  13.494   3.895   6.216  0.0334  0.1167 -0.1275
  761POPS   C3A10609  13.116   3.692   6.513  0.1034  0.2530  0.1458
  761POPS   C4A10610  12.813   3.513   6.703  0.1210 -0.0406  0.1237
  761POPS   C1B10611  14.274   3.959   5.828 -0.1997 -0.1400  0.0586
  761POPS   C2B10612  14.039   4.157   6.237 -0.3136 -0.2816  0.1970
  761POPS   C3B10613  13.725   4.312   6.455 -0.1760 -0.3635 -0.0081
  761POPS   C4B10614  13.563   4.402   6.241 -0.0925 -0.1638  0.4215
  762POPS   CNO10615   8.772  11.178   5.439 -0.1385  0.1375 -0.0818
  762POPS   PO410616   8.907  10.859   5.576  0.1330  0.0425  0.0145
  762POPS   GL110617   8.625  10.820   5.881 -0.0354 -0.3531 -0.0174
  762POPS   GL210618   8.796  10.965   6.114 -0.1185 -0.3195 -0.2458
  762POPS   C1A10619   8.639  10.514   6.174  0.1176 -0.1265 -0.0063
  762POPS   D2A10620   8.528  10.274   6.448  0.0195  0.1265  0.0722
  762POPS   C3A10621   8.544  10.305   6.880  0.0795 -0.2227  0.1768
  762POPS   C4A10622   8.667  10.593   7.174 -0.3509  0.5400  0.0300
  762POPS   C1B10623   9.164  11.054   6.216  0.1274 -0.1039 -0.1130
  762POPS   C2B10624   9.497  11.203   6.641  0.0768 -0.1363  0.1404
  762POPS   C3B10625   9.651  11.239   7.104  0.0827 -0.2209  0.2749
  762POPS   C4B10626   9.993  10.929   7.450  0.1670  0.1712 -0.0321
  763POPS   CNO10627   4.913  17.589   5.845 -0.1354 -0.0424  0.0597
  763POPS   PO410628   4.492  17.714   6.021 -0.5455 -0.3242  0.0161
  763POPS   GL110629   4.385  17.967   6.335 -0.0468  0.2596  0.1565
  763POPS   GL210630   4.555  17.847   6.530 -0.0482 -0.1089  0.3324
  763POPS   C1A10631   4.035  18.259   6.496  0.0278 -0.1373  0.4231
  763POPS   D2A10632   3.628  18.243   6.358 -0.2608 -0.0815  0.1668
  763POPS   C3A10633   3.458  17.976   6.624  0.1576 -0.0387 -0.0155
  763POPS   C4A10634   3.418  17.699   6.872 -0.2879 -0.1342  0.0890
  763POPS   C1B10635   4.869  18.022   6.824 -0.2203  0.1771  0.1803
  763POPS   C2B10636   4.738  17.930   7.254  0.1139 -0.0698 -0.0097
  763POPS   C3B10637   4.728  18.167   7.655 -0.0016 -0.0453 -0.2004
  763POPS   C4B10638   4.462  18.234   7.961 -0.1864  0.1022  0.1299
  764POPS   CNO10639  17.320  17.148   5.058 -0.0102 -0.0869 -0.2340
  764POPS   PO410640  17.072  17.155   5.408  0.1273  0.2363  0.1360
  764POPS   GL110641  16.926  17.220   5.860 -0.1753 -0.0161  0.1745
  764POPS   GL210642  17.041  17.002   6.034 -0.0466  0.2705 -0.0904
  764POPS   C1A10643  16.557  17.067   6.098  0.1663 -0.1864  0.0329
  764POPS   D2A10644  16.370  16.964   6.528 -0.2271  0.1373 -0.1097
  764POPS   C3A10645  16.413  17.017   6.845  0.1807 -0.1608  0.0457
  764POPS   C4A10646  16.425  16.888   7.310  0.2028  0.0968  0.0398
  764POPS   C1B10647  16.935  17.155   6.473 -0.0455 -0.3492  0.2465
  764POPS   C2B10648  16.932  17.203   6.875 -0.0955 -0.2852 -0.0978
  764POPS   C3B10649  17.150  17.215   7.358  0.0563 -0.2192 -0.0153
  764POPS   C4B10650  17.189  16.997   7.859 -0.0669  0.1656  0.0966
  765POPS   CNO10651   2.526   8.151   5.713 -0.1005 -0.2743  0.0033
  765POPS   PO410652   2.319   7.872   5.955 -0.0472 -0.0050 -0.1245
  765POPS   GL110653   2.483   7.724   6.374  0.0851  0.2352 -0.1366
  765POPS   GL210654   2.385   7.417   6.420  0.0258 -0.0804  0.1604
  765POPS   C1A10655   2.539   7.827   6.793  0.1959 -0.0256  0.1674
  765POPS   D2A10656   2.357   7.702   7.298  0.3478  0.1132  0.2810
  765POPS   C3A10657   2.510   7.621   7.584 -0.1822  0.1203 -0.2362
  765POPS   C4A10658   2.788   7.879   7.872  0.0747 -0.0117 -0.2159
  765POPS   C1B10659   2.410   7.238   6.849 -0.1393 -0.2840  0.0471
  765POPS   C2B10660   2.261   7.022   7.118  0.0565  0.1258  0.1060
  765POPS   C3B10661   1.977   6.915   7.409 -0.0405 -0.1917  0.0453
  765POPS   C4B10662   1.744   6.793   7.698  0.1963  0.0999  0.0480
  766POPS   CNO10663   2.447   5.379   6.012 -0.0223  0.1654  0.0614
  766POPS   PO410664   2.446   5.811   6.079  0.0817  0.2551  0.0812
  766POPS   GL110665   2.643   5.565   6.462 -0.0554  0.0353 -0.0572
  766POPS   GL210666   2.776   5.825   6.466 -0.0942  0.0238 -0.0764
  766POPS   C1A10667   2.844   5.383   6.956 -0.1769  0.0364  0.1640
  766POPS   D2A10668   3.123   4.973   7.109 -0.6963 -0.3521  0.3559
  766POPS   C3A10669   3.309   5.069   7.474  0.1836 -0.2082  0.0523
  766POPS   C4A10670   3.508   4.799   7.803 -0.1667 -0.2016 -0.2406
  766POPS   C1B10671   2.922   5.832   6.868 -0.2094 -0.1617 -0.1626
  766POPS   C2B10672   3.175   5.740   7.211 -0.0812  0.0999 -0.4323
  766POPS   C3B10673   3.370   5.625   7.543 -0.0708 -0.0623  0.1123
  766POPS   C4B10674   3.441   5.837   7.895  0.1243 -0.1161 -0.1144
  767POPS   CNO10675  16.483  15.940   5.282  0.2118  0.0795 -0.2596
  767POPS   PO410676  16.583  16.073   5.649  0.0832 -0.0835 -0.2119
  767POPS   GL110677  16.368  16.239   6.031  0.1114 -0.1643  0.1556
  767POPS   GL210678  16.421  16.599   6.067 -0.0959 -0.3508  0.0441
  767POPS   C1A10679  16.431  16.260   6.444 -0.2297  0.4868 -0.1187
  767POPS   D2A10680  16.266  16.408   6.883 -0.0160 -0.1394  0.1229
  767POPS   C3A10681  16.484  16.384   7.296 -0.1208 -0.1580 -0.0827
  767POPS   C4A10682  16.631  16.294   7.733 -0.2646  0.2391 -0.0145
  767POPS   C1B10683  16.053  16.645   6.348  0.0571  0.0568  0.0161
  767POPS   C2B10684  15.932  16.774   6.818  0.1374 -0.1425  0.0454
  767POPS   C3B10685  15.873  16.675   7.248  0.2034  0.1459  0.3618
  767POPS   C4B10686  15.903  16.903   7.718 -0.2643 -0.3885 -0.2002
  768POPS   CNO10687   9.782   8.257   5.158 -0.0813  0.1171 -0.0352
  768POPS   PO410688   9.659   8.291   5.589 -0.2636  0.1197 -0.3200
  768POPS   GL110689   9.687   8.409   6.016 -0.0359  0.0272 -0.0151
  768POPS   GL210690   9.579   8.152   6.186 -0.1472  0.1874  0.1809
  768POPS   C1A10691   9.849   8.505   6.374 -0.0810 -0.0542  0.2128
  768POPS   D2A10692   9.987   8.677   6.800 -0.0101 -0.0558  0.1517
  768POPS   C3A10693   9.884   8.757   7.222 -0.0276  0.1918 -0.0137
  768POPS   C4A10694   9.820   8.913   7.540 -0.3151  0.1117 -0.0360
  768POPS   C1B10695   9.535   8.049   6.613  0.1540 -0.1273 -0.2627
  768POPS   C2B10696   9.653   8.308   6.924 -0.0514 -0.2047  0.1565
  768POPS   C3B10697   9.547   8.404   7.421  0.2681 -0.2094  0.0638
  768POPS   C4B10698   9.604   8.548   7.852  0.5174 -0.0689  0.0721
  769POPS   CNO10699   4.388   6.297   5.740  0.2792 -0.0054 -0.0510
  769POPS   PO410700   4.142   5.985   6.044 -0.1307  0.0206  0.0086
  769POPS   GL110701   4.224   6.270   6.471 -0.1983 -0.0423 -0.1290
  769POPS   GL210702   4.290   6.001   6.635 -0.0338 -0.1101 -0.1321
  769POPS   C1A10703   4.643   6.365   6.734  0.2836  0.3364  0.2782
  769POPS   D2A10704   4.671   6.521   7.186 -0.2065  0.1615  0.1940
  769POPS   C3A10705   4.790   6.837   7.346 -0.0813  0.0030  0.2214
  769POPS   C4A10706   5.119   7.181   7.511  0.0813  0.2176 -0.1124
  769POPS   C1B10707   4.330   6.200   7.051 -0.1896 -0.1132  0.3739
  769POPS   C2B10708   4.375   6.181   7.487  0.0337  0.2044  0.0200
  769POPS   C3B10709   4.374   6.331   7.906  0.1350 -0.1134 -0.1293
  769POPS   C4B10710   4.411   6.698   8.257  0.0375  0.0388 -0.0724
  770POPS   CNO10711   9.114   0.293   5.658 -0.1676 -0.2612  0.0560
  770POPS   PO410712   9.482   0.090   5.858 -0.0028  0.2994 -0.0722
  770POPS   GL110713   9.582   0.076   6.252 -0.0990 -0.0255 -0.0035
  770POPS   GL210714   9.898   0.079   6.394 -0.1945  0.0474  0.3188
  770POPS   C1A10715   9.544  -0.083   6.653  0.2100 -0.0176  0.0003
  770POPS   D2A10716   9.597  -0.126   7.054  0.1023  0.2024  0.1670
  770POPS   C3A10717   9.926  -0.157   7.375 -0.0124 -0.0280  0.0299
  770POPS   C4A10718   9.813  -0.254   7.824  0.1407 -0.1785  0.0025
  770POPS   C1B10719   9.971   0.346   6.665 -0.0610  0.0766 -0.2480
  770POPS   C2B10720   9.935   0.272   7.170  0.0749 -0.2310 -0.1413
  770POPS   C3B10721   9.968   0.213   7.700 -0.2540  0.0317  0.2313
  770POPS   C4B10722   9.611   0.169   7.987 -0.2601  0.0860 -0.4504
  771POPS   CNO10723  16.529   6.242   5.402  0.0104 -0.3219 -0.0394
  771POPS   PO410724  16.740   5.876   5.376 -0.0476 -0.1536 -0.2548
  771POPS   GL110725  16.643   5.935   5.772  0.2562 -0.0760 -0.0297
  771POPS   GL210726  16.820   6.232   5.849  0.2594 -0.1476  0.3265
  771POPS   C1A10727  16.267   5.983   6.088 -0.1637 -0.1338 -0.1097
  771POPS   D2A10728  16.165   5.833   6.492 -0.1006  0.1308  0.4464
  771POPS   C3A10729  16.545   5.580   6.599  0.0598 -0.2140  0.1917
  771POPS   C4A10730  16.699   5.131   6.916 -0.0406 -0.1580 -0.2834
  771POPS   C1B10731  16.863   6.481   6.194 -0.0994 -0.2613 -0.1517
  771POPS   C2B10732  16.833   6.613   6.657 -0.1818 -0.1268 -0.0746
  771POPS   C3B10733  17.051   6.778   6.963  0.0794 -0.2741  0.2554
  771POPS   C4B10734  17.293   6.576   7.285  0.0288 -0.0649 -0.0173
  772POPS   CNO10735  12.965   1.847   5.233 -0.2093  0.0925  0.1394
  772POPS   PO410736  12.775   1.901   5.560 -0.0401  0.0650  0.1070
  772POPS   GL110737  12.644   1.879   5.965  0.0274 -0.0628 -0.0641
  772POPS   GL210738  12.698   2.152   6.104 -0.1134 -0.0945 -0.2463
  772POPS   C1A10739  12.338   1.781   6.210 -0.1472 -0.2147 -0.1091
  772POPS   D2A10740  12.170   1.956   6.444  0.1424 -0.1621  0.2839
  772POPS   C3A10741  12.280   1.953   6.748 -0.1371  0.0433  0.1702
  772POPS   C4A10742  12.343   1.822   7.156 -0.2505 -0.1522  0.0264
  772POPS   C1B10743  12.745   2.142   6.524  0.1883 -0.0716  0.0564
  772POPS   C2B10744  12.724   2.166   6.941 -0.1517 -0.1457  0.2169
  772POPS   C3B10745  12.695   2.208   7.371 -0.0970  0.1525 -0.0822
  772POPS   C4B10746  12.292   1.973   7.607 -0.5131 -0.0140 -0.2858
  773POPS   CNO10747  11.412  12.121   6.169  0.3478 -0.0196  0.2093
  773POPS   PO410748  11.463  12.352   5.688 -0.0488 -0.1808 -0.2260
  773POPS   GL110749  11.655  12.642   6.007  0.1426  0.3894 -0.0510
  773POPS   GL210750  11.848  12.939   6.047  0.0090  0.2730 -0.1013
  773POPS   C1A10751  11.397  12.643   6.323  0.1450 -0.2258 -0.1404
  773POPS   D2A10752  11.514  12.943   6.659 -0.1164 -0.0789 -0.0844
  773POPS   C3A10753  11.598  12.918   7.096  0.0995  0.0962 -0.1793
  773POPS   C4A10754  11.610  12.977   7.512 -0.1690 -0.0605 -0.1126
  773POPS   C1B10755  12.036  12.782   6.393  0.5429  0.1870  0.0138
  773POPS   C2B10756  11.869  12.596   6.779 -0.0720 -0.0885  0.0091
  773POPS   C3B10757  11.838  12.335   7.124  0.0453 -0.1200 -0.0408
  773POPS   C4B10758  11.880  12.107   7.473  0.1977 -0.1725  0.1581
  774POPS   CNO10759  18.209   9.164   5.267 -0.0988 -0.4609 -0.1989
  774POPS   PO410760  18.031   9.467   5.073 -0.0844 -0.0118  0.1117
  774POPS   GL110761  17.851   9.431   5.576  0.0741 -0.0389  0.3068
  774POPS   GL210762  17.581   9.660   5.757 -0.2390  0.0738  0.0360
  774POPS   C1A10763  17.873   9.410   6.055 -0.1737  0.0820 -0.0092
  774POPS   D2A10764  17.851   9.531   6.442  0.3037  0.0901 -0.0916
  774POPS   C3A10765  17.768   9.382   6.877 -0.0139 -0.0203 -0.0019
  774POPS   C4A10766  17.806   9.394   7.329 -0.0591  0.0116 -0.1850
  774POPS   C1B10767  17.476   9.737   6.178 -0.0942  0.3240  0.2168
  774POPS   C2B10768  17.492   9.796   6.680 -0.0832 -0.2312  0.1249
  774POPS   C3B10769  17.779   9.927   6.935  0.0836  0.2775 -0.3336
  774POPS   C4B10770  18.041   9.872   7.250  0.1020 -0.1272  0.0837
  775POPS   CNO10771  18.178   5.284   5.203  0.2109  0.1537  0.2059
  775POPS   PO410772  18.283   5.095   5.708  0.1400 -0.0075 -0.1295
  775POPS   GL110773  18.315   4.978   6.124 -0.0576  0.2064 -0.0342
  775POPS   GL210774  18.084   5.173   6.447 -0.0587  0.0868  0.2251
  775POPS   C1A10775  18.519   4.954   6.584 -0.0139 -0.1873 -0.0975
  775POPS   D2A10776  18.342   5.138   6.973 -0.2060 -0.1221  0.0200
  775POPS   C3A10777  18.721   5.403   7.177  0.0879  0.0620  0.0981
  775POPS   C4A10778  19.146   5.571   6.991  0.3392 -0.4863  0.0194
  775POPS   C1B10779  18.013   5.507   6.623  0.1084  0.0113 -0.2583
  775POPS   C2B10780  17.954   5.625   7.019  0.0713  0.1884 -0.1153
  775POPS   C3B10781  17.695   5.581   7.422  0.1932 -0.1633  0.2807
  775POPS   C4B10782  17.802   5.444   7.809  0.0008  0.0477 -0.2679
  776POPS   CNO10783  12.385   0.428   5.698 -0.0058  0.1797  0.0226
  776POPS   PO410784  12.485   0.025   5.756  0.0427 -0.4395  0.2111
  776POPS   GL110785  12.623  -0.045   6.234 -0.1751 -0.0528  0.2356
  776POPS   GL210786  12.697   0.208   6.418 -0.1882  0.2921 -0.0368
  776POPS   C1A10787  12.624  -0.220   6.678  0.0750 -0.0689  0.0502
  776POPS   D2A10788  12.350  -0.469   6.855  0.2607  0.2028 -0.0096
  776POPS   C3A10789  11.982  -0.414   7.112 -0.1447 -0.1144  0.2869
  776POPS   C4A10790  11.841  -0.394   7.584 -0.0697  0.2359 -0.1386
  776POPS   C1B10791  12.771   0.259   6.931  0.1515  0.1161  0.0514
  776POPS   C2B10792  12.695   0.172   7.335  0.3330 -0.0033 -0.0348
  776POPS   C3B10793  12.612  -0.241   7.686  0.0883 -0.0311  0.0497
  776POPS   C4B10794  12.191  -0.267   7.965 -0.0803  0.0407 -0.0637
  777POPS   CNO10795  12.638   7.074   5.962  0.0226 -0.1746 -0.2482
  777POPS   PO410796  13.037   6.771   5.923  0.1866 -0.2458  0.0857
  777POPS   GL110797  12.998   6.499   6.213  0.1874  0.1937  0.1917
  777POPS   GL210798  13.194   6.283   6.173 -0.2089  0.3127 -0.3372
  777POPS   C1A10799  13.175   6.608   6.694 -0.0950  0.0801 -0.1805
  777POPS   D2A10800  13.104   6.891   6.990 -0.0283  0.0120 -0.2453
  777POPS   C3A10801  12.732   6.911   7.292  0.1178  0.0408 -0.1302
  777POPS   C4A10802  12.462   6.767   7.572 -0.0919 -0.0760 -0.0477
  777POPS   C1B10803  13.446   6.241   6.510 -0.0650  0.1065 -0.0580
  777POPS   C2B10804  13.453   6.235   6.927  0.1280  0.2949 -0.1272
  777POPS   C3B10805  13.200   6.060   7.366 -0.2661 -0.3474  0.0229
  777POPS   C4B10806  13.230   5.801   7.580 -0.2765 -0.2100 -0.1339
  778POPS   CNO10807  17.090  11.803   5.081  0.1084 -0.0794  0.0864
  778POPS   PO410808  17.425  12.102   5.265 -0.0672  0.0964  0.3465
  778POPS   GL110809  17.181  11.797   5.581  0.3017 -0.1110 -0.0043
  778POPS   GL210810  16.895  12.008   5.555 -0.3506 -0.0081  0.0499
  778POPS   C1A10811  17.335  11.581   5.829 -0.2874  0.1976  0.0267
  778POPS   D2A10812  17.489  11.710   6.322 -0.0436  0.0387 -0.2205
  778POPS   C3A10813  17.412  11.476   6.687 -0.2751  0.1426  0.0472
  778POPS   C4A10814  17.617  11.471   7.142 -0.1555  0.2678 -0.2460
  778POPS   C1B10815  17.059  12.045   5.969 -0.1478  0.1547  0.0009
  778POPS   C2B10816  17.311  12.176   6.153 -0.0657  0.1939  0.0318
  778POPS   C3B10817  17.589  12.173   6.532  0.0148 -0.0788  0.2102
  778POPS   C4B10818  17.700  12.098   7.012  0.0029  0.0132  0.1803
  779POPS   CNO10819  15.264  11.324   5.726 -0.1359 -0.1518  0.2743
  779POPS   PO410820  14.819  11.150   5.667 -0.0535  0.4509 -0.2497
  779POPS   GL110821  14.774  10.937   6.022  0.1392  0.4142  0.0896
  779POPS   GL210822  14.569  10.724   6.077 -0.0129 -0.0624  0.2156
  779POPS   C1A10823  14.601  11.050   6.423 -0.0360  0.2232  0.1447
  779POPS   D2A10824  14.774  10.924   6.838 -0.0648 -0.0569 -0.0343
  779POPS   C3A10825  14.878  11.225   7.186  0.1028 -0.1161  0.0783
  779POPS   C4A10826  14.952  11.241   7.596 -0.2165 -0.0249 -0.0289
  779POPS   C1B10827  14.760  10.573   6.403  0.0138 -0.4462  0.1681
  779POPS   C2B10828  14.914  10.503   6.746 -0.4621 -0.1247 -0.0070
  779POPS   C3B10829  14.846  10.551   7.218 -0.1446  0.0203  0.1840
  779POPS   C4B10830  14.781  10.394   7.663  0.0643  0.3350 -0.0303
  780POPS   CNO10831   9.627  12.291   5.830 -0.5202  0.1154  0.0498
  780POPS   PO410832   9.669  12.789   5.821 -0.1882 -0.1775 -0.0916
  780POPS   GL110833   9.436  12.651   6.151  0.0457 -0.2298 -0.1730
  780POPS   GL210834   9.239  12.478   6.004  0.1221  0.0136  0.0573
  780POPS   C1A10835   9.474  12.649   6.622 -0.1357  0.1186  0.0206
  780POPS   D2A10836   9.486  12.701   7.053  0.0607 -0.1243 -0.1430
  780POPS   C3A10837   9.732  12.923   7.372 -0.1441 -0.0250 -0.2479
  780POPS   C4A10838   9.866  13.294   7.625  0.0741  0.3376 -0.2164
  780POPS   C1B10839   9.062  12.306   6.350 -0.0325  0.0294  0.0629
  780POPS   C2B10840   9.234  12.166   6.732  0.0368  0.0181  0.1495
  780POPS   C3B10841   9.436  12.243   7.128 -0.1314 -0.0251 -0.0491
  780POPS   C4B10842   9.484  12.196   7.482  0.0392 -0.0606  0.2791
  781POPS   CNO10843   7.642   5.000   5.452 -0.1013  0.2557  0.0473
  781POPS   PO410844   7.598   5.141   5.907 -0.1122 -0.3556 -0.1787
  781POPS   GL110845   7.354   4.970   6.225  0.2808 -0.1162 -0.1659
  781POPS   GL210846   7.135   5.191   6.217 -0.1145 -0.3057  0.0436
  781POPS   C1A10847   7.344   4.882   6.640  0.1792  0.2315 -0.1632
  781POPS   D2A10848   7.507   5.081   7.000 -0.2167 -0.1448  0.1511
  781POPS   C3A10849   7.762   4.951   7.294 -0.0029 -0.0105 -0.0732
  781POPS   C4A10850   8.185   4.902   7.440  0.0336  0.3094 -0.2495
  781POPS   C1B10851   7.307   5.439   6.507 -0.1379  0.1362 -0.1286
  781POPS   C2B10852   7.370   5.551   6.936 -0.3322  0.0377  0.1503
  781POPS   C3B10853   7.475   5.391   7.363 -0.0155  0.0885  0.1954
  781POPS   C4B10854   7.390   5.240   7.808  0.0249  0.1869  0.0628
  782POPS   CNO10855  12.235   2.485   5.174  0.1268 -0.1859  0.3394
  782POPS   PO410856  12.372   2.714   5.523  0.0891  0.3841 -0.1259
  782POPS   GL110857  12.492   2.774   5.941  0.0619 -0.1779 -0.1763
  782POPS   GL210858  12.783   2.964   6.082  0.0543  0.1616 -0.1504
  782POPS   C1A10859  12.549   2.582   6.322  0.1012  0.1227  0.5374
  782POPS   D2A10860  12.452   2.545   6.735 -0.0085 -0.3400 -0.3317
  782POPS   C3A10861  12.539   2.630   7.099 -0.1054 -0.0524  0.0881
  782POPS   C4A10862  12.667   2.999   7.347  0.2950  0.3638 -0.1976
  782POPS   C1B10863  12.958   3.177   6.355 -0.1269  0.3627 -0.2727
  782POPS   C2B10864  13.209   3.253   6.727  0.2732 -0.1861  0.0107
  782POPS   C3B10865  13.429   3.424   6.994  0.0761  0.2020  0.0389
  782POPS   C4B10866  13.899   3.614   7.021  0.0262  0.2231  0.0860
  783POPS   CNO10867  13.274   5.684   5.403 -0.1130  0.1525  0.3489
  783POPS   PO410868  13.676   5.375   5.313 -0.0021  0.0516 -0.0668
  783POPS   GL110869  13.602   5.302   5.640  0.0679  0.2121 -0.2384
  783POPS   GL210870  13.634   5.578   5.816 -0.0374 -0.2295 -0.1274
  783POPS   C1A10871  13.390   4.986   5.973 -0.2847 -0.0567 -0.0385
  783POPS   D2A10872  13.066   4.719   6.282  0.0434  0.0622  0.0720
  783POPS   C3A10873  13.127   4.766   6.561 -0.0515 -0.0286 -0.0541
  783POPS   C4A10874  13.103   4.749   7.045  0.0088  0.0654 -0.3025
  783POPS   C1B10875  13.572   5.469   6.161 -0.0730  0.1028  0.3756
  783POPS   C2B10876  13.627   5.511   6.512  0.1757  0.1326 -0.1660
  783POPS   C3B10877  13.843   5.903   6.629 -0.0568  0.0812 -0.1744
  783POPS   C4B10878  13.946   6.255   6.935 -0.3092  0.2952  0.0352
  784POPS   CNO10879   2.028  15.283   6.102  0.2112 -0.6330  0.0287
  784POPS   PO410880   1.931  15.649   5.895  0.1996 -0.0186 -0.1927
  784POPS   GL110881   1.645  15.608   6.339 -0.0101 -0.1489  0.1084
  784POPS   GL210882   1.686  15.841   6.583  0.3255 -0.0758 -0.3002
  784POPS   C1A10883   1.356  15.388   6.569 -0.0814  0.0314  0.1306
  784POPS   D2A10884   1.179  15.297   6.969  0.0238 -0.0704  0.3964
  784POPS   C3A10885   0.758  15.204   7.186 -0.2083  0.0769  0.1611
  784POPS   C4A10886   0.650  14.812   7.278 -0.1254  0.2884  0.1694
  784POPS   C1B10887   1.666  15.561   6.941  0.0020 -0.0229 -0.1311
  784POPS   C2B10888   1.493  15.276   7.326 -0.3491  0.0656  0.0655
  784POPS   C3B10889   1.458  15.152   7.761  0.0770 -0.0467 -0.0369
  784POPS   C4B10890   1.203  15.084   8.068 -0.0464  0.2488  0.2068
  785POPS   CNO10891   9.939   6.956   5.940  0.0792 -0.1209 -0.1490
  785POPS   PO410892   9.508   6.878   5.782 -0.3223  0.1420 -0.1584
  785POPS   GL110893   9.341   6.936   6.268 -0.2313 -0.1302  0.1246
  785POPS   GL210894   9.291   7.282   6.394  0.1996 -0.0579  0.0864
  785POPS   C1A10895   9.298   6.673   6.575 -0.2017  0.2862  0.1955
  785POPS   D2A10896   9.272   6.666   7.004  0.1291 -0.0374  0.0013
  785POPS   C3A10897   9.618   6.656   7.203 -0.1846 -0.2554 -0.3483
  785POPS   C4A10898   9.692   6.510   7.665 -0.0754 -0.2959 -0.2474
  785POPS   C1B10899   9.199   7.175   6.713  0.0314 -0.4424 -0.1418
  785POPS   C2B10900   8.884   7.058   7.005 -0.0661 -0.0175  0.0532
  785POPS   C3B10901   9.119   6.894   7.501 -0.2571 -0.0361 -0.0032
  785POPS   C4B10902   9.236   7.054   7.841  0.0267  0.1664  0.0714
  786POPS   CNO10903   4.470   1.123   5.622  0.3291 -0.1736  0.1063
  786POPS   PO410904   4.228   1.253   5.967 -0.1310  0.1076  0.3209
  786POPS   GL110905   4.295   1.213   6.361  0.2207  0.0529 -0.0121
  786POPS   GL210906   4.452   1.024   6.458 -0.1080 -0.0335  0.1571
  786POPS   C1A10907   4.272   1.238   6.812 -0.1121  0.1999 -0.0767
  786POPS   D2A10908   4.214   1.131   7.156  0.1058 -0.4358  0.2291
  786POPS   C3A10909   4.022   1.440   7.346  0.2653 -0.4705  0.1001
  786POPS   C4A10910   4.168   1.307   7.742 -0.2319 -0.0293  0.2968
  786POPS   C1B10911   4.638   0.837   6.740 -0.2348 -0.0091 -0.0355
  786POPS   C2B10912   4.696   0.768   7.109 -0.2082  0.0711  0.0372
  786POPS   C3B10913   4.639   0.828   7.485 -0.1651 -0.0285  0.1954
  786POPS   C4B10914   4.207   0.856   7.636  0.4007 -0.0296 -0.0527
  787POPS   CNO10915  15.604  15.103   5.451  0.2784 -0.1215  0.0694
  787POPS   PO410916  15.797  15.468   5.634  0.2795 -0.0582 -0.3805
  787POPS   GL110917  15.845  15.580   6.032  0.1862 -0.0134 -0.0141
  787POPS   GL210918  16.071  15.469   6.232  0.1437 -0.1399  0.0015
  787POPS   C1A10919  15.769  15.687   6.524  0.0609 -0.1865  0.1898
  787POPS   D2A10920  15.772  15.576   6.988  0.1777  0.1368  0.3641
  787POPS   C3A10921  15.637  15.702   7.438 -0.1089 -0.1719 -0.0427
  787POPS   C4A10922  15.862  15.787   7.759 -0.1880  0.0511 -0.1550
  787POPS   C1B10923  16.236  15.810   6.391 -0.0068 -0.3161 -0.0741
  787POPS   C2B10924  16.183  15.934   6.819  0.4313 -0.1220  0.1026
  787POPS   C3B10925  16.019  15.965   7.179  0.1746  0.1332 -0.2136
  787POPS   C4B10926  16.154  16.170   7.600  0.1643 -0.3022  0.2615
  788POPS   CNO10927  15.139   1.532   5.398 -0.4570 -0.0821 -0.0963
  788POPS   PO410928  14.868   1.147   5.539 -0.0930 -0.0304 -0.0226
  788POPS   GL110929  15.167   1.209   5.826  0.2010  0.2095  0.0456
  788POPS   GL210930  15.065   1.430   6.015 -0.2330 -0.0281  0.2773
  788POPS   C1A10931  15.239   0.952   6.213  0.1510 -0.0073 -0.0716
  788POPS   D2A10932  15.237   0.862   6.615  0.2695  0.1579 -0.1115
  788POPS   C3A10933  15.442   0.424   6.840  0.1591  0.0594 -0.0956
  788POPS   C4A10934  15.573   0.021   6.742  0.4748 -0.1731 -0.2167
  788POPS   C1B10935  14.875   1.306   6.425  0.1623 -0.0112  0.1588
  788POPS   C2B10936  14.847   1.297   6.892  0.2364 -0.0556 -0.0049
  788POPS   C3B10937  15.071   0.844   7.083  0.0706 -0.0553 -0.0216
  788POPS   C4B10938  15.374   0.589   7.294  0.1072 -0.1402 -0.3279
  789POPS   CNO10939  13.772   1.651   5.693 -0.1672  0.1126 -0.2516
  789POPS   PO410940  13.632   2.150   5.846  0.2060  0.0650  0.0602
  789POPS   GL110941  13.513   2.190   6.216 -0.0763 -0.0949  0.2637
  789POPS   GL210942  13.168   2.103   6.325 -0.0808  0.2291  0.0785
  789POPS   C1A10943  13.578   2.338   6.590  0.1795  0.2761 -0.1959
  789POPS   D2A10944  13.695   2.298   7.065  0.1228  0.2175 -0.0154
  789POPS   C3A10945  13.444   2.574   7.286 -0.0234  0.2507 -0.1492
  789POPS   C4A10946  13.245   3.010   7.466 -0.2951  0.2113  0.0718
  789POPS   C1B10947  13.180   2.125   6.784  0.1500  0.0403  0.2487
  789POPS   C2B10948  13.202   2.086   7.285 -0.2991 -0.3325 -0.1426
  789POPS   C3B10949  13.238   1.723   7.571  0.2825 -0.1372 -0.1792
  789POPS   C4B10950  13.474   1.249   7.516  0.1158 -0.2980  0.0163
  790POPS   CNO10951   2.584   0.667   5.894 -0.1421 -0.0615 -0.2603
  790POPS   PO410952   2.902   0.462   5.799 -0.0098 -0.0638  0.1069
  790POPS   GL110953   3.025   0.263   6.199 -0.3082  0.0708 -0.1616
  790POPS   GL210954   2.964   0.515   6.351  0.0214 -0.0561  0.2666
  790POPS   C1A10955   3.366   0.354   6.541 -0.0375 -0.0548 -0.1086
  790POPS   D2A10956   3.598   0.603   6.893 -0.0461  0.1353  0.1982
  790POPS   C3A10957   3.618   0.375   7.273  0.0404  0.1355 -0.0131
  790POPS   C4A10958   3.495   0.061   7.284 -0.2107  0.2300 -0.0259
  790POPS   C1B10959   3.103   0.721   6.725  0.1655 -0.0594 -0.0588
  790POPS   C2B10960   3.213   0.687   7.168  0.0803  0.0457  0.3316
  790POPS   C3B10961   3.154   0.558   7.663 -0.0328  0.0196  0.2910
  790POPS   C4B10962   3.110   0.414   8.075  0.0322 -0.2262 -0.1674
  791POPS   CNO10963   8.340  12.269   5.895  0.1676  0.0993  0.0679
  791POPS   PO410964   7.845  12.470   5.787  0.1191 -0.1916 -0.2204
  791POPS   GL110965   7.771  12.201   6.042 -0.2523 -0.0155  0.0664
  791POPS   GL210966   7.493  12.245   6.172  0.0208  0.1664 -0.1210
  791POPS   C1A10967   7.785  11.944   6.456 -0.0409 -0.3392  0.3297
  791POPS   D2A10968   7.881  11.788   6.942  0.2200  0.1204  0.0373
  791POPS   C3A10969   7.678  11.586   7.368  0.0217  0.2706  0.0819
  791POPS   C4A10970   7.634  11.333   7.674 -0.0075 -0.1384  0.1291
  791POPS   C1B10971   7.335  12.114   6.597 -0.0923 -0.1038  0.1857
  791POPS   C2B10972   7.395  11.875   7.016 -0.2180  0.1772 -0.1968
  791POPS   C3B10973   7.354  12.030   7.491  0.2834  0.1716  0.3353
  791POPS   C4B10974   7.206  11.942   7.852 -0.3744  0.2912 -0.4243
  792POPS   CNO10975  15.333  12.279   5.141  0.1253 -0.0622  0.1648
  792POPS   PO410976  15.734  12.374   5.469  0.3613 -0.2158  0.1164
  792POPS   GL110977  15.692  12.334   5.921  0.0317 -0.4575 -0.2128
  792POPS   GL210978  15.833  12.564   6.130  0.0231 -0.2254  0.1215
  792POPS   C1A10979  15.357  12.630   6.131 -0.0921 -0.0547 -0.1088
  792POPS   D2A10980  15.251  12.975   6.366 -0.1426 -0.1189 -0.4253
  792POPS   C3A10981  15.187  12.822   6.848  0.3852 -0.1771  0.2526
  792POPS   C4A10982  15.120  13.027   7.289 -0.1238 -0.0246  0.3225
  792POPS   C1B10983  15.642  12.704   6.499  0.1267 -0.2244  0.1129
  792POPS   C2B10984  15.651  12.676   7.014 -0.3590  0.0261 -0.2657
  792POPS   C3B10985  15.410  12.673   7.389  0.0547  0.4113  0.3066
  792POPS   C4B10986  15.194  12.570   7.695 -0.4376 -0.1524  0.0928
  793POPS   CNO10987  11.888   2.833   5.700  0.2550  0.1365  0.2319
  793POPS   PO410988  12.154   3.202   5.592  0.1929 -0.1518  0.1693
  793POPS   GL110989  12.200   3.154   6.063 -0.1982  0.0990 -0.0468
  793POPS   GL210990  11.952   2.989   6.198  0.0581 -0.0820 -0.0327
  793POPS   C1A10991  12.460   3.233   6.399 -0.2264  0.0198 -0.0996
  793POPS   D2A10992  12.650   3.085   6.847 -0.2852  0.2866 -0.0623
  793POPS   C3A10993  12.925   3.346   7.187 -0.1529 -0.1370 -0.2209
  793POPS   C4A10994  12.789   3.405   7.643 -0.2141 -0.0526  0.1500
  793POPS   C1B10995  12.113   2.967   6.644  0.1933 -0.2096  0.0642
  793POPS   C2B10996  12.186   2.983   7.086 -0.0263 -0.1272  0.1729
  793POPS   C3B10997  12.223   3.034   7.560  0.0266  0.2270  0.0527
  793POPS   C4B10998  12.451   3.229   7.901 -0.2997  0.3901 -0.1953
  794POPS   CNO10999  15.003   4.441   5.658  0.2493  0.0009 -0.2025
  794POPS   PO411000  14.790   4.313   5.331  0.1279  0.2122 -0.0746
  794POPS   GL111001  14.489   4.404   5.715  0.0173 -0.2420  0.0096
  794POPS   GL211002  14.584   4.756   5.760  0.4491 -0.2470 -0.2520
  794POPS   C1A11003  14.540   4.322   6.211 -0.1358 -0.0644  0.0475
  794POPS   D2A11004  14.639   4.655   6.576 -0.1173 -0.1366 -0.2486
  794POPS   C3A11005  14.537   4.678   7.034  0.0120 -0.1221 -0.2541
  794POPS   C4A11006  14.746   4.617   7.356 -0.0416 -0.1829 -0.2125
  794POPS   C1B11007  14.759   4.825   6.141  0.1338 -0.2809 -0.1232
  794POPS   C2B11008  14.710   5.142   6.533 -0.2996  0.3527 -0.2152
  794POPS   C3B11009  14.901   5.069   6.994 -0.0003  0.2095  0.0951
  794POPS   C4B11010  15.056   5.064   7.474  0.2757  0.3853 -0.2326
  795POPS   CNO11011   2.863   4.781   5.450  0.0473  0.0166 -0.1658
  795POPS   PO411012   3.200   4.693   5.726  0.1246 -0.0011  0.1567
  795POPS   GL111013   3.056   4.661   6.151 -0.1260 -0.2265 -0.2063
  795POPS   GL211014   2.780   4.614   6.286 -0.1161  0.0498  0.0520
  795POPS   C1A11015   3.250   4.706   6.552 -0.2188  0.0263  0.2642
  795POPS   D2A11016   3.371   4.476   6.923  0.2204  0.0409 -0.1219
  795POPS   C3A11017   3.527   4.670   7.306  0.3387  0.0198  0.2380
  795POPS   C4A11018   3.854   4.894   7.394 -0.0729  0.1069 -0.2271
  795POPS   C1B11019   2.836   4.454   6.757  0.1397 -0.1505 -0.0708
  795POPS   C2B11020   2.838   4.552   7.172 -0.0857 -0.2246  0.2852
  795POPS   C3B11021   2.880   4.776   7.588  0.0013  0.1835 -0.0332
  795POPS   C4B11022   2.897   5.059   7.874 -0.0226 -0.0913  0.2524
  796POPS   CNO11023  15.196  14.753   5.353 -0.0909  0.3339  0.2856
  796POPS   PO411024  15.275  14.861   5.782 -0.1506 -0.0551  0.0114
  796POPS   GL111025  15.341  14.916   6.228  0.0428 -0.1947  0.2709
  796POPS   GL211026  15.424  15.311   6.343 -0.0621  0.2499  0.1605
  796POPS   C1A11027  15.261  14.872   6.642 -0.1492  0.0898  0.1106
  796POPS   D2A11028  15.225  14.762   7.010 -0.2193  0.1876 -0.3222
  796POPS   C3A11029  15.520  14.861   7.302  0.1039 -0.0299  0.0187
  796POPS   C4A11030  15.549  15.089   7.558  0.1076 -0.3322  0.0899
  796POPS   C1B11031  15.744  15.136   6.548 -0.1002  0.3278  0.0821
  796POPS   C2B11032  15.776  15.086   6.972  0.3126 -0.2370  0.0940
  796POPS   C3B11033  16.011  15.222   7.299  0.1194  0.1110  0.0343
  796POPS   C4B11034  16.139  15.527   7.460 -0.1103 -0.2615 -0.0889
  797POPS   CNO11035   2.512  12.754   6.304 -0.0263 -0.0139 -0.0281
  797POPS   PO411036   2.669  13.101   5.957 -0.0244 -0.1848 -0.2414
  797POPS   GL111037   3.017  13.080   6.295  0.2241  0.1228  0.0891
  797POPS   GL211038   3.057  13.363   6.266 -0.0904 -0.0387 -0.0405
  797POPS   C1A11039   3.002  13.110   6.728  0.2368 -0.3293 -0.0885
  797POPS   D2A11040   2.901  12.959   7.099  0.1517 -0.0196 -0.4352
  797POPS   C3A11041   3.038  12.946   7.455  0.1896  0.0779 -0.0067
  797POPS   C4A11042   3.406  13.140   7.627  0.0239 -0.0610  0.1861
  797POPS   C1B11043   3.383  13.381   6.572  0.1759  0.1353  0.3706
  797POPS   C2B11044   3.457  13.493   6.937 -0.1390 -0.1116 -0.3223
  797POPS   C3B11045   3.609  13.491   7.376 -0.0996 -0.3175 -0.2842
  797POPS   C4B11046   3.594  13.559   7.745  0.0512 -0.4764 -0.1077
  798POPS   CNO11047  15.492  18.008   5.444  0.1495  0.0441 -0.3116
  798POPS   PO411048  15.840  18.348   5.286  0.0450  0.1282 -0.0179
  798POPS   GL111049  15.937  18.169   5.719  0.4541  0.0752  0.0551
  798POPS   GL211050  15.659  18.056   5.930  0.1357  0.1081 -0.0016
  798POPS   C1A11051  16.066  18.168   6.187 -0.0059 -0.2108  0.1539
  798POPS   D2A11052  15.881  18.148   6.588  0.2739  0.1750  0.1541
  798POPS   C3A11053  16.103  18.197   7.059  0.0004  0.0325 -0.1245
  798POPS   C4A11054  15.953  18.439   7.333  0.0016  0.0279 -0.1685
  798POPS   C1B11055  15.745  18.539   6.057  0.0987  0.0497  0.0382
  798POPS   C2B11056  16.038  18.861   5.994  0.1723 -0.1356 -0.0428
  798POPS   C3B11057  16.240  19.097   6.139  0.0126 -0.2098  0.0830
  798POPS   C4B11058  16.323  19.274   6.490  0.0449  0.0337 -0.1909
  799POPS   CNO11059   1.853   3.688   5.458  0.2624 -0.0523 -0.0404
  799POPS   PO411060   1.752   4.108   5.714  0.0265  0.0697  0.1565
  799POPS   GL111061   1.878   4.167   6.155 -0.1894 -0.0366 -0.2727
  799POPS   GL211062   2.120   4.060   6.258 -0.0867 -0.2950  0.1064
  799POPS   C1A11063   1.542   4.105   6.484  0.1473  0.0397 -0.2738
  799POPS   D2A11064   1.285   3.886   6.932  0.0237  0.0586  0.3084
  799POPS   C3A11065   1.598   3.995   7.366 -0.1710  0.0318  0.0620
  799POPS   C4A11066   1.879   3.799   7.627  0.0785 -0.0883 -0.1662
  799POPS   C1B11067   2.051   4.051   6.741  0.0612 -0.0884 -0.1765
  799POPS   C2B11068   2.076   4.034   7.246 -0.2031  0.2238  0.1155
  799POPS   C3B11069   2.038   4.300   7.620 -0.1195 -0.1115  0.4095
  799POPS   C4B11070   2.000   4.693   7.791  0.1550  0.1491 -0.0587
  800POPS   CNO11071  16.820   7.987   5.159  0.1530  0.0844  0.0602
  800POPS   PO411072  16.714   7.991   5.504 -0.0332  0.1814  0.0314
  800POPS   GL111073  16.872   8.038   5.925  0.1227 -0.0420 -0.1871
  800POPS   GL211074  17.280   8.220   5.995 -0.0303  0.2670 -0.1676
  800POPS   C1A11075  16.539   8.053   6.258 -0.0237  0.2229 -0.0340
  800POPS   D2A11076  16.316   8.013   6.704  0.0596  0.1985 -0.0138
  800POPS   C3A11077  16.259   7.705   7.082  0.0890 -0.1488 -0.5652
  800POPS   C4A11078  16.294   7.502   7.435 -0.2122  0.1940 -0.2376
  800POPS   C1B11079  17.138   8.127   6.310 -0.2581  0.1302 -0.2766
  800POPS   C2B11080  17.265   7.899   6.756  0.3131  0.0996 -0.5020
  800POPS   C3B11081  17.535   7.894   7.028  0.1530 -0.0675 -0.1883
  800POPS   C4B11082  17.882   7.948   7.405 -0.0870  0.1745  0.2661
  801POPS   CNO11083  10.331   0.876   6.213 -0.0609  0.0650  0.0925
  801POPS   PO411084  10.135   1.302   6.180  0.0502  0.3656 -0.1172
  801POPS   GL111085  10.176   1.546   6.543  0.2753 -0.1596  0.0687
  801POPS   GL211086  10.170   1.835   6.535  0.1873  0.0093 -0.1385
  801POPS   C1A11087  10.112   1.348   6.891 -0.0012 -0.0008 -0.0385
  801POPS   D2A11088   9.845   1.230   7.179  0.2675  0.1503  0.0232
  801POPS   C3A11089   9.756   1.376   7.617 -0.1016 -0.0176 -0.1445
  801POPS   C4A11090  10.102   1.450   7.868 -0.0161  0.0295  0.1571
  801POPS   C1B11091  10.292   1.993   6.866 -0.2049  0.0934 -0.1895
  801POPS   C2B11092  10.592   2.003   7.184 -0.0503 -0.2384 -0.1607
  801POPS   C3B11093  10.873   1.952   7.588  0.1170 -0.1182  0.0133
  801POPS   C4B11094  11.069   2.220   7.524  0.0242  0.0061 -0.0408
  802POPS   CNO11095   1.705  14.122   5.431  0.1201  0.1360 -0.0182
  802POPS   PO411096   1.288  14.013   5.553  0.1525 -0.1288  0.0365
  802POPS   GL111097   1.288  14.252   5.955  0.2441  0.1544 -0.0740
  802POPS   GL211098   1.547  14.427   6.081 -0.2019  0.1199 -0.0086
  802POPS   C1A11099   1.381  14.098   6.424  0.1049  0.0082 -0.2178
  802POPS   D2A11100   1.676  13.926   6.764  0.1289 -0.1831 -0.3792
  802POPS   C3A11101   2.059  13.992   6.921 -0.0371  0.1216  0.2433
  802POPS   C4A11102   2.310  13.808   7.331  0.0701 -0.0418 -0.2256
  802POPS   C1B11103   1.600  14.552   6.436 -0.0019  0.2142 -0.1220
  802POPS   C2B11104   1.835  14.449   6.762  0.2418  0.2511  0.1501
  802POPS   C3B11105   1.793  14.577   7.212 -0.3604  0.1371  0.0867
  802POPS   C4B11106   1.895  14.285   7.463 -0.1506 -0.2918  0.1461
  803POPS   CNO11107   9.781   9.395   5.368  0.0721  0.1781 -0.0513
  803POPS   PO411108   9.410   9.312   5.264  0.0163  0.3253  0.2295
  803POPS   GL111109   9.240   9.400   5.746 -0.0394  0.2297 -0.1700
  803POPS   GL211110   9.085   9.322   5.896 -0.0290  0.2972  0.1449
  803POPS   C1A11111   9.129   9.743   6.075 -0.4301 -0.1879 -0.1294
  803POPS   D2A11112   8.913   9.936   6.328 -0.0842 -0.1144  0.2089
  803POPS   C3A11113   9.094  10.270   6.443  0.2632  0.1157  0.2761
  803POPS   C4A11114   8.747  10.721   6.614 -0.0212  0.1332  0.1565
  803POPS   C1B11115   8.940   9.303   6.325 -0.1141  0.0044  0.0175
  803POPS   C2B11116   8.868   9.394   6.768 -0.0969  0.0816  0.1018
  803POPS   C3B11117   8.962   9.498   7.265  0.3139  0.2056  0.1330
  803POPS   C4B11118   9.148   9.248   7.569  0.0779 -0.0835  0.0368
  804POPS   CNO11119  12.025   8.616   5.135 -0.0358  0.0472  0.0365
  804POPS   PO411120  12.170   8.405   5.508  0.1204  0.1307 -0.0405
  804POPS   GL111121  12.027   8.339   5.882  0.1032 -0.0361 -0.2500
  804POPS   GL211122  11.718   8.420   5.935 -0.1281  0.1852 -0.1630
  804POPS   C1A11123  11.981   8.375   6.372  0.0383 -0.0269 -0.1559
  804POPS   D2A11124  11.836   8.601   6.788  0.0712  0.0984 -0.0175
  804POPS   C3A11125  11.877   8.956   7.034 -0.0502 -0.0552  0.0334
  804POPS   C4A11126  12.075   9.386   7.212 -0.4049 -0.0563 -0.4465
  804POPS   C1B11127  11.883   8.775   6.115 -0.0009  0.0473 -0.0943
  804POPS   C2B11128  11.891   9.005   6.468  0.2631 -0.0063  0.0497
  804POPS   C3B11129  12.083   9.330   6.694  0.1893  0.0405  0.0017
  804POPS   C4B11130  12.325   9.700   6.620 -0.0785  0.3194  0.1247
  805POPS   CNO11131   2.685   4.334   5.609  0.0604  0.0154 -0.1735
  805POPS   PO411132   2.588   4.245   6.098 -0.1857  0.1056 -0.3772
  805POPS   GL111133   2.617   4.146   6.473  0.1513  0.1029  0.0719
  805POPS   GL211134   2.517   3.821   6.585  0.0562  0.0672 -0.1451
  805POPS   C1A11135   2.688   4.045   7.003 -0.0095  0.0673 -0.0916
  805POPS   D2A11136   2.702   4.129   7.414 -0.0296  0.0229 -0.0968
  805POPS   C3A11137   2.466   4.085   7.769  0.0473  0.2317  0.1387
  805POPS   C4A11138   2.440   4.117   8.172  0.1348 -0.0054  0.3168
  805POPS   C1B11139   2.557   3.533   6.900 -0.2248  0.1055  0.3279
  805POPS   C2B11140   2.498   3.644   7.281  0.1497  0.1594 -0.1910
  805POPS   C3B11141   2.358   3.551   7.633  0.1018  0.3340 -0.0552
  805POPS   C4B11142   2.223   3.612   8.081 -0.0669  0.1356  0.0769
  806POPS   CNO11143  11.862   3.571   5.342  0.2774 -0.0232 -0.1511
  806POPS   PO411144  11.528   3.842   5.525 -0.1110 -0.1682 -0.1834
  806POPS   GL111145  11.586   3.882   5.985 -0.2304 -0.2836 -0.2503
  806POPS   GL211146  11.461   3.695   6.228  0.0181 -0.1707 -0.0251
  806POPS   C1A11147  11.761   4.076   6.374 -0.1924 -0.0921 -0.1056
  806POPS   D2A11148  11.772   4.155   6.775  0.0958  0.2890  0.1545
  806POPS   C3A11149  11.895   3.927   6.938  0.3489 -0.2690  0.0168
  806POPS   C4A11150  11.980   3.745   7.257 -0.1911  0.4202 -0.2029
  806POPS   C1B11151  11.271   3.897   6.550 -0.0487 -0.3555 -0.1979
  806POPS   C2B11152  11.373   3.906   7.025  0.2384  0.2179 -0.2120
  806POPS   C3B11153  11.482   3.651   7.444 -0.0865  0.0033  0.2879
  806POPS   C4B11154  11.353   3.196   7.542  0.0637 -0.3440 -0.0140
  807POPS   CNO11155   4.686   6.023   6.246 -0.0718 -0.1187 -0.1217
  807POPS   PO411156   4.652   6.551   6.118 -0.0776  0.0179 -0.0929
  807POPS   GL111157   4.368   6.806   6.418  0.2119  0.1982 -0.0317
  807POPS   GL211158   4.617   6.847   6.579 -0.0440 -0.2621 -0.3099
  807POPS   C1A11159   4.212   7.156   6.603 -0.2433  0.1049 -0.4472
  807POPS   D2A11160   4.356   7.357   6.960  0.2566  0.0487 -0.0842
  807POPS   C3A11161   4.589   7.256   7.201  0.0792  0.2665 -0.1629
  807POPS   C4A11162   4.620   7.325   7.618 -0.3734  0.2578  0.0160
  807POPS   C1B11163   4.864   7.013   6.889 -0.2159  0.2793 -0.0759
  807POPS   C2B11164   5.257   6.890   7.141  0.0691  0.0420 -0.2899
  807POPS   C3B11165   5.250   6.709   7.556  0.0145  0.0168  0.1290
  807POPS   C4B11166   5.333   6.466   7.892  0.1821 -0.3663 -0.4381
  808POPS   CNO11167   6.746   8.649   5.379  0.0414  0.0482 -0.0230
  808POPS   PO411168   6.585   8.307   5.460 -0.0988  0.2899 -0.2377
  808POPS   GL111169   6.478   8.168   5.873  0.0106  0.3396 -0.0040
  808POPS   GL211170   6.732   7.878   5.726  0.0124 -0.2091  0.0217
  808POPS   C1A11171   6.206   8.094   6.232  0.2125 -0.1558 -0.0841
  808POPS   D2A11172   6.157   8.150   6.696 -0.1839  0.1294 -0.3050
  808POPS   C3A11173   6.562   8.427   6.947 -0.1283 -0.1017  0.1410
  808POPS   C4A11174   6.584   8.373   7.355  0.1195  0.1035 -0.1522
  808POPS   C1B11175   6.729   7.900   6.253  0.1126  0.2722 -0.3342
  808POPS   C2B11176   6.712   8.009   6.702  0.0761  0.1742 -0.1380
  808POPS   C3B11177   6.686   7.963   7.132  0.0461 -0.0990 -0.0114
  808POPS   C4B11178   6.539   7.696   7.396 -0.2981  0.1238  0.3619
  809POPS   CNO11179   7.321  12.638   5.901 -0.1401 -0.0439 -0.1959
  809POPS   PO411180   7.534  13.100   5.860  0.3206 -0.0144  0.0699
  809POPS   GL111181   7.287  13.092   6.248  0.0067  0.0468  0.3509
  809POPS   GL211182   6.973  12.949   6.258 -0.2546 -0.0333 -0.2246
  809POPS   C1A11183   7.335  13.146   6.688 -0.1554 -0.1053  0.0363
  809POPS   D2A11184   7.493  13.021   7.066 -0.1164  0.4441 -0.0639
  809POPS   C3A11185   7.258  12.966   7.481 -0.0097  0.3198 -0.0209
  809POPS   C4A11186   7.107  13.293   7.751  0.2822 -0.0583 -0.1882
  809POPS   C1B11187   6.831  13.007   6.580 -0.2620 -0.0012  0.1041
  809POPS   C2B11188   6.927  12.804   7.021 -0.4953  0.1231 -0.1397
  809POPS   C3B11189   6.964  12.548   7.314 -0.0987  0.1339  0.2688
  809POPS   C4B11190   7.049  12.413   7.734  0.0476 -0.2900 -0.0415
  810POPS   CNO11191   4.257   4.045   5.969  0.0203 -0.1758  0.0908
  810POPS   PO411192   3.853   4.107   5.928 -0.2340  0.0149 -0.0328
  810POPS   GL111193   4.011   4.138   6.420  0.0509 -0.0193 -0.3179
  810POPS   GL211194   3.681   4.119   6.532 -0.2769  0.2960  0.0726
  810POPS   C1A11195   4.217   4.178   6.840 -0.0486  0.0481  0.0284
  810POPS   D2A11196   4.627   4.184   7.059  0.0045  0.0203  0.0522
  810POPS   C3A11197   4.722   4.344   7.365  0.1656 -0.2976 -0.0622
  810POPS   C4A11198   4.663   4.444   7.809  0.0812  0.1803  0.2697
  810POPS   C1B11199   3.803   3.915   6.899  0.0892 -0.1120  0.0870
  810POPS   C2B11200   3.984   3.819   7.306 -0.2784  0.1652 -0.2899
  810POPS   C3B11201   4.034   3.691   7.638  0.1856  0.1674 -0.3222
  810POPS   C4B11202   3.829   3.348   7.835  0.1539  0.0887  0.3653
  811POPS   CNO11203  15.622  10.520   5.656  0.1468  0.1060  0.1746
  811POPS   PO411204  15.907  10.748   5.633 -0.0125  0.1742  0.0017
  811POPS   GL111205  16.222  10.851   5.899 -0.1048  0.2139  0.0653
  811POPS   GL211206  16.098  11.086   6.085  0.1121  0.1008  0.1934
  811POPS   C1A11207  16.652  10.857   6.181  0.0326 -0.2115 -0.1502
  811POPS   D2A11208  17.027  10.680   6.256  0.1889  0.1526 -0.2877
  811POPS   C3A11209  17.232  10.649   6.760  0.3136  0.0892 -0.0923
  811POPS   C4A11210  17.151  10.618   7.236 -0.0129 -0.4291 -0.1231
  811POPS   C1B11211  16.254  11.004   6.535  0.2663  0.4214 -0.0490
  811POPS   C2B11212  16.257  10.893   6.978 -0.3231  0.3447 -0.1708
  811POPS   C3B11213  16.194  10.503   7.261 -0.0146 -0.0788 -0.1083
  811POPS   C4B11214  16.395  10.298   7.503  0.1183  0.1579  0.0220
  812YOPS   CNO11215  11.001   5.854   5.248  0.2265  0.0138 -0.0658
  812YOPS   PO411216  10.879   5.565   5.572 -0.0502 -0.2146  0.0816
  812YOPS   GL111217  10.976   5.582   5.984  0.0007  0.0135  0.0910
  812YOPS   GL211218  11.184   5.387   6.088  0.2616  0.0221  0.0167
  812YOPS   C1A11219  10.822   5.627   6.406 -0.0948 -0.0320  0.0147
  812YOPS   D2A11220  10.893   5.384   6.752  0.3001 -0.1455  0.0481
  812YOPS   C3A11221  10.788   4.998   7.087 -0.0374  0.1381 -0.0261
  812YOPS   C4A11222  11.062   4.755   7.086 -0.0419 -0.2291 -0.0228
  812YOPS   C1B11223  11.249   5.432   6.428  0.0118  0.1583 -0.1431
  812YOPS   C2B11224  11.455   5.595   6.885 -0.1480  0.0253 -0.1503
  812YOPS   D3B11225  11.577   5.978   7.242  0.3770 -0.3183 -0.2355
  812YOPS   C4B11226  11.213   6.264   7.324 -0.0922 -0.0585  0.2060
  813YOPS   CNO11227   2.072  13.925   5.784 -0.1178  0.1586  0.1006
  813YOPS   PO411228   2.458  13.890   5.817  0.0639 -0.3196 -0.0979
  813YOPS   GL111229   2.576  13.713   6.179 -0.1424 -0.1158 -0.0622
  813YOPS   GL211230   2.286  13.748   6.373 -0.2517  0.0202  0.0804
  813YOPS   C1A11231   2.705  13.607   6.593  0.0744 -0.0116 -0.2288
  813YOPS   D2A11232   2.617  13.386   7.079 -0.1545  0.1502 -0.1918
  813YOPS   C3A11233   2.654  13.547   7.543 -0.2112  0.0688 -0.1438
  813YOPS   C4A11234   2.435  13.323   7.905  0.2268  0.0560 -0.0265
  813YOPS   C1B11235   2.249  13.536   6.714 -0.2444 -0.1115  0.1613
  813YOPS   C2B11236   2.027  13.498   7.089 -0.1929 -0.0155 -0.1926
  813YOPS   D3B11237   2.038  13.413   7.499 -0.0115  0.0422 -0.1291
  813YOPS   C4B11238   2.010  13.711   7.780 -0.0577  0.1964 -0.1035
  814YOPS   CNO11239  13.490  12.258   5.474 -0.0212 -0.1520 -0.2639
  814YOPS   PO411240  13.922  12.253   5.552 -0.1234 -0.0339  0.1693
  814YOPS   GL111241  13.679  12.196   5.944 -0.0780 -0.0108 -0.1357
  814YOPS   GL211242  13.622  11.824   6.128 -0.0784 -0.1429 -0.1147
  814YOPS   C1A11243  13.820  12.264   6.382  0.0309  0.2061  0.0549
  814YOPS   D2A11244  13.862  12.100   6.834 -0.0399 -0.1330  0.2073
  814YOPS   C3A11245  14.047  12.210   7.317  0.4547  0.1614  0.0557
  814YOPS   C4A11246  14.434  12.171   7.381 -0.0746  0.0809  0.0457
  814YOPS   C1B11247  13.585  11.679   6.570 -0.0403  0.0735  0.0721
  814YOPS   C2B11248  13.703  11.461   6.864 -0.0795 -0.0164 -0.0246
  814YOPS   D3B11249  13.401  11.325   7.042  0.2701  0.0717 -0.0196
  814YOPS   C4B11250  13.253  10.900   6.869  0.2242 -0.0081  0.0627
  815YOPS   CNO11251  12.384  17.924   6.354  0.1096  0.0289 -0.2154
  815YOPS   PO411252  12.745  17.555   6.217  0.2885 -0.1643  0.2169
  815YOPS   GL111253  12.529  17.589   6.731  0.1114  0.0121  0.0741
  815YOPS   GL211254  12.363  17.318   6.697 -0.0170  0.1440 -0.0729
  815YOPS   C1A11255  12.635  17.710   7.187  0.0668  0.1860  0.3349
  815YOPS   D2A11256  12.973  17.895   7.457  0.1231 -0.2141 -0.3341
  815YOPS   C3A11257  13.164  18.222   7.602 -0.2310 -0.0213  0.0166
  815YOPS   C4A11258  13.081  18.499   7.948  0.0505 -0.1919  0.1619
  815YOPS   C1B11259  12.371  17.230   7.064  0.2882 -0.3712  0.0620
  815YOPS   C2B11260  12.662  17.239   7.400  0.1582 -0.0223 -0.0331
  815YOPS   D3B11261  13.028  17.383   7.394 -0.1464  0.2610 -0.2595
  815YOPS   C4B11262  13.345  17.078   7.521 -0.0371  0.0814 -0.0076
  816YOPS   CNO11263   6.899  14.820   5.536  0.0151  0.1084 -0.0226
  816YOPS   PO411264   6.939  14.687   5.935  0.3509  0.2147  0.1984
  816YOPS   GL111265   6.659  14.564   6.338  0.0656  0.2535  0.0462
  816YOPS   GL211266   6.428  14.300   6.349  0.2159 -0.0377 -0.0004
  816YOPS   C1A11267   6.696  14.366   6.741 -0.2304  0.2245 -0.1446
  816YOPS   D2A11268   6.821  14.287   7.155 -0.1958  0.2443 -0.2155
  816YOPS   C3A11269   6.813  14.103   7.536 -0.3565  0.2846 -0.0422
  816YOPS   C4A11270   6.764  13.665   7.515 -0.0556 -0.2287  0.3161
  816YOPS   C1B11271   6.565  13.967   6.476 -0.0149  0.3555 -0.1359
  816YOPS   C2B11272   7.011  13.982   6.597 -0.0079  0.4476 -0.0011
  816YOPS   D3B11273   7.382  13.946   6.763  0.0473 -0.3195  0.0296
  816YOPS   C4B11274   7.681  14.095   6.546  0.1495 -0.0915  0.1411
  817YOPS   CNO11275   1.972   5.606   5.899 -0.0019 -0.0104  0.0866
  817YOPS   PO411276   1.754   5.832   5.843 -0.2840 -0.0209 -0.1074
  817YOPS   GL111277   1.679   5.932   6.307  0.3652 -0.4428 -0.0335
  817YOPS   GL211278   2.026   5.964   6.311 -0.2810 -0.0686  0.1704
  817YOPS   C1A11279   1.702   5.836   6.751 -0.2927 -0.0788  0.4773
  817YOPS   D2A11280   1.626   5.447   7.015  0.2824  0.0360  0.0420
  817YOPS   C3A11281   1.387   5.399   7.355  0.1563 -0.1821 -0.0506
  817YOPS   C4A11282   1.394   5.534   7.722 -0.0694  0.2002  0.0874
  817YOPS   C1B11283   2.273   5.975   6.663 -0.0100  0.0733  0.3190
  817YOPS   C2B11284   2.088   6.049   7.184  0.0647  0.1022  0.3016
  817YOPS   D3B11285   2.008   6.329   7.555  0.0571  0.0269  0.0319
  817YOPS   C4B11286   1.930   6.232   7.961 -0.2014 -0.1877  0.2506
  818YOPS   CNO11287   6.540  17.037   6.289  0.0889  0.1548 -0.2201
  818YOPS   PO411288   6.127  16.993   6.165 -0.3738 -0.0790 -0.2528
  818YOPS   GL111289   6.134  17.175   6.563  0.0300 -0.0329  0.1598
  818YOPS   GL211290   6.104  17.545   6.472  0.1614  0.0212 -0.5386
  818YOPS   C1A11291   5.924  17.128   6.917 -0.1528 -0.2394  0.1081
  818YOPS   D2A11292   5.923  17.218   7.321 -0.0695 -0.1784  0.1564
  818YOPS   C3A11293   5.778  17.141   7.772 -0.2628  0.1540  0.1838
  818YOPS   C4A11294   5.996  17.264   8.129 -0.2070 -0.0562  0.1236
  818YOPS   C1B11295   5.760  17.604   6.766 -0.0283 -0.2314 -0.0757
  818YOPS   C2B11296   5.787  17.724   7.156 -0.2030 -0.0043 -0.1618
  818YOPS   D3B11297   5.852  17.693   7.539 -0.2490 -0.2312  0.1736
  818YOPS   C4B11298   5.643  17.646   7.918 -0.1353  0.3236  0.1054
  819YOPS   CNO11299  14.847   3.384   5.176 -0.1248  0.2001  0.1593
  819YOPS   PO411300  14.717   3.296   5.611  0.1664 -0.1535 -0.0332
  819YOPS   GL111301  14.566   3.195   6.016  0.1512 -0.0190  0.1419
  819YOPS   GL211302  14.747   2.950   6.225 -0.2116  0.1253  0.1510
  819YOPS   C1A11303  14.491   3.538   6.186  0.3240 -0.0784  0.1014
  819YOPS   D2A11304  14.590   3.899   6.396 -0.0524  0.0886  0.2039
  819YOPS   C3A11305  14.554   4.217   6.780  0.0681  0.1076  0.0571
  819YOPS   C4A11306  14.329   4.277   7.221 -0.1157 -0.0237  0.0143
  819YOPS   C1B11307  14.476   3.182   6.510  0.0423 -0.0783 -0.0073
  819YOPS   C2B11308  14.399   3.337   6.837 -0.0766  0.0399 -0.0847
  819YOPS   D3B11309  14.290   3.274   7.133 -0.0997  0.0976 -0.0345
  819YOPS   C4B11310  14.109   3.653   7.506 -0.0256  0.2149 -0.1717
  820YOPS   CNO11311  11.292   6.658   5.201  0.1720  0.3220 -0.1070
  820YOPS   PO411312  11.260   6.630   5.566 -0.1384 -0.0880  0.0914
  820YOPS   GL111313  11.333   6.505   5.941 -0.1077  0.1490 -0.0354
  820YOPS   GL211314  11.493   6.238   5.873 -0.0211  0.0914  0.1346
  820YOPS   C1A11315  11.332   6.470   6.419 -0.2562  0.0706  0.1318
  820YOPS   D2A11316  11.015   6.414   6.737 -0.2196  0.0545  0.3516
  820YOPS   C3A11317  10.831   6.014   6.765  0.0676 -0.0956 -0.2350
  820YOPS   C4A11318  11.101   5.876   7.052  0.1107  0.2607  0.1676
  820YOPS   C1B11319  11.691   5.975   6.239 -0.0784  0.0046  0.0345
  820YOPS   C2B11320  11.796   5.901   6.652  0.1838 -0.0652  0.0484
  820YOPS   D3B11321  11.992   5.523   6.946 -0.1415  0.1468  0.1994
  820YOPS   C4B11322  11.630   5.525   7.376 -0.0832 -0.3334 -0.2077
  821YOPS   CNO11323  11.170   1.638   6.002  0.5890 -0.0137 -0.3472
  821YOPS   PO411324  11.390   2.008   5.858 -0.0728  0.0665 -0.1287
  821YOPS   GL111325  11.426   2.051   6.228 -0.0588  0.0814  0.1265
  821YOPS   GL211326  11.305   1.795   6.426 -0.0093  0.0362  0.3742
  821YOPS   C1A11327  11.713   1.878   6.627 -0.0642  0.1761  0.1092
  821YOPS   D2A11328  11.830   1.811   7.128 -0.1228 -0.0453 -0.0086
  821YOPS   C3A11329  11.844   1.971   7.555  0.2317 -0.0315  0.2202
  821YOPS   C4A11330  11.771   1.663   7.860 -0.0597 -0.2851 -0.1884
  821YOPS   C1B11331  11.445   1.394   6.631 -0.0652  0.1236  0.2428
  821YOPS   C2B11332  11.572   1.340   7.058  0.0408 -0.1018 -0.1791
  821YOPS   D3B11333  11.643   1.430   7.397  0.1393 -0.1025 -0.0149
  821YOPS   C4B11334  11.609   1.163   7.803 -0.0025 -0.0449 -0.1891
  822YOPS   CNO11335  13.841  10.367   5.483 -0.1543 -0.3049  0.0535
  822YOPS   PO411336  13.648  10.056   5.382 -0.0931  0.0304 -0.1495
  822YOPS   GL111337  13.524   9.831   5.863  0.0561 -0.3507 -0.1171
  822YOPS   GL211338  13.685  10.017   6.170 -0.3009  0.0963 -0.0283
  822YOPS   C1A11339  13.572   9.436   5.978 -0.3934  0.0927 -0.0521
  822YOPS   D2A11340  13.554   9.021   6.169 -0.1327  0.1095  0.1654
  822YOPS   C3A11341  13.413   8.966   6.578 -0.1458 -0.1268  0.0636
  822YOPS   C4A11342  13.689   8.818   6.906 -0.0580 -0.3048  0.0483
  822YOPS   C1B11343  13.785   9.889   6.573 -0.0238  0.1084  0.1078
  822YOPS   C2B11344  13.665   9.838   6.964 -0.0004  0.1377 -0.0376
  822YOPS   D3B11345  13.383   9.778   7.295 -0.2399  0.0607 -0.0359
  822YOPS   C4B11346  12.985   9.430   7.152  0.0016 -0.3392  0.0947
  823YOPS   CNO11347   7.641   7.705   5.637  0.2034  0.1349 -0.1532
  823YOPS   PO411348   7.295   7.770   5.611 -0.0320  0.1063  0.1974
  823YOPS   GL111349   7.151   7.812   6.089  0.1005  0.1380  0.0363
  823YOPS   GL211350   7.578   7.795   6.230  0.0922  0.0894  0.2705
  823YOPS   C1A11351   7.142   7.617   6.420  0.1341 -0.0377  0.1299
  823YOPS   D2A11352   7.110   7.574   6.860  0.0113 -0.2633  0.0111
  823YOPS   C3A11353   6.750   7.337   7.131  0.0702 -0.1149 -0.3211
  823YOPS   C4A11354   7.049   7.050   7.377  0.0020 -0.0669  0.4645
  823YOPS   C1B11355   7.578   7.742   6.571  0.2768  0.2396 -0.0208
  823YOPS   C2B11356   7.563   7.750   7.031  0.1733  0.0977  0.0061
  823YOPS   D3B11357   7.190   7.715   7.341  0.1752 -0.0290  0.3724
  823YOPS   C4B11358   6.941   7.956   7.658 -0.2369  0.1410  0.2675
  824YOPS   CNO11359  16.681  10.960   5.704 -0.2540  0.2956 -0.0339
  824YOPS   PO411360  17.050  10.811   5.390  0.1437  0.2494 -0.5344
  824YOPS   GL111361  17.182  10.843   5.792 -0.1786  0.0173  0.1311
  824YOPS   GL211362  17.409  10.576   5.966  0.2337  0.0364 -0.0896
  824YOPS   C1A11363  17.196  11.107   6.037  0.4571 -0.2051  0.3099
  824YOPS   D2A11364  17.031  11.073   6.510  0.0585 -0.3404 -0.0835
  824YOPS   C3A11365  17.145  11.129   6.962 -0.0229 -0.1968  0.1400
  824YOPS   C4A11366  17.000  11.316   7.353 -0.1728  0.1006 -0.1050
  824YOPS   C1B11367  17.497  10.838   6.425 -0.0228  0.2102 -0.0241
  824YOPS   C2B11368  17.564  10.993   6.774 -0.1833 -0.2526 -0.2868
  824YOPS   D3B11369  17.615  10.968   7.154 -0.2014 -0.2177 -0.2564
  824YOPS   C4B11370  17.387  11.037   7.434  0.1333  0.2023 -0.2168
  825YOPS   CNO11371  12.324   4.623   5.420  0.1073  0.0079 -0.1545
  825YOPS   PO411372  12.275   4.135   5.433 -0.1551 -0.0385  0.1042
  825YOPS   GL111373  12.329   4.313   5.840  0.1778  0.1958 -0.1523
  825YOPS   GL211374  12.501   4.252   6.044  0.0083 -0.2709 -0.0227
  825YOPS   C1A11375  11.998   4.450   6.045 -0.0926 -0.1803 -0.0468
  825YOPS   D2A11376  11.881   4.571   6.434 -0.0498  0.2073 -0.6026
  825YOPS   C3A11377  11.972   4.532   6.962  0.0834 -0.0580  0.3673
  825YOPS   C4A11378  11.782   4.212   7.362  0.3332  0.0455  0.0332
  825YOPS   C1B11379  12.235   4.168   6.404  0.3452 -0.2131 -0.0068
  825YOPS   C2B11380  12.301   4.161   6.849  0.2100 -0.3213 -0.1323
  825YOPS   D3B11381  12.500   3.938   7.073  0.3317 -0.1162 -0.2318
  825YOPS   C4B11382  12.839   3.899   7.398 -0.5090 -0.3547 -0.0295
  826YOPS   CNO11383  14.085  15.587   5.814 -0.2744 -0.1449 -0.0640
  826YOPS   PO411384  13.765  15.520   5.678 -0.0825  0.0038 -0.1511
  826YOPS   GL111385  13.647  15.756   6.086  0.0568  0.0616  0.1491
  826YOPS   GL211386  13.437  16.104   6.181 -0.1090  0.0079  0.1127
  826YOPS   C1A11387  13.750  15.583   6.486 -0.2387  0.0319 -0.0441
  826YOPS   D2A11388  13.911  15.377   6.814  0.1159  0.2717  0.1442
  826YOPS   C3A11389  14.007  15.190   7.257  0.2399 -0.0944 -0.1567
  826YOPS   C4A11390  14.233  15.536   7.609  0.1322  0.1301  0.1296
  826YOPS   C1B11391  13.376  15.943   6.568 -0.1950  0.0694 -0.1858
  826YOPS   C2B11392  13.483  15.702   6.927  0.2473 -0.1631  0.1617
  826YOPS   D3B11393  13.616  15.546   7.321  0.2510 -0.1776  0.0575
  826YOPS   C4B11394  13.805  15.765   7.669 -0.1671  0.1177 -0.3097
  827YOPS   CNO11395   6.261   2.154   5.585  0.2930 -0.2012  0.1681
  827YOPS   PO411396   6.624   1.990   5.850  0.2016 -0.1396  0.1169
  827YOPS   GL111397   6.599   1.783   6.200 -0.3252 -0.0120  0.2733
  827YOPS   GL211398   6.398   1.548   6.270  0.2004  0.2402  0.0568
  827YOPS   C1A11399   6.878   1.779   6.519 -0.0934  0.0720  0.2054
  827YOPS   D2A11400   7.007   1.753   6.992 -0.0225  0.1477 -0.0658
  827YOPS   C3A11401   7.095   1.974   7.302 -0.1749  0.0731 -0.2960
  827YOPS   C4A11402   7.381   1.943   7.716  0.1457 -0.0250 -0.0725
  827YOPS   C1B11403   6.442   1.591   6.665  0.0126  0.2966 -0.0007
  827YOPS   C2B11404   6.404   1.613   7.104 -0.0359  0.1715  0.2249
  827YOPS   D3B11405   6.428   1.388   7.554  0.0763  0.1351 -0.1566
  827YOPS   C4B11406   6.433   1.048   7.919  0.1242  0.0863 -0.2809
  828YOPS   CNO11407  16.618   3.054   5.445 -0.0861 -0.1506  0.2514
  828YOPS   PO411408  16.464   3.293   5.888 -0.2323 -0.0542 -0.3138
  828YOPS   GL111409  16.284   3.325   6.208  0.2282 -0.3596 -0.0943
  828YOPS   GL211410  15.935   3.363   6.148 -0.3973  0.0619  0.0133
  828YOPS   C1A11411  16.109   3.390   6.664 -0.0378 -0.0317 -0.2463
  828YOPS   D2A11412  16.019   3.368   7.161  0.0787 -0.0395 -0.0821
  828YOPS   C3A11413  15.945   3.523   7.564  0.3614 -0.0218 -0.1720
  828YOPS   C4A11414  16.224   3.328   7.774  0.0173  0.1670 -0.0159
  828YOPS   C1B11415  15.863   3.733   6.326 -0.0050  0.1102 -0.1620
  828YOPS   C2B11416  16.016   3.908   6.748  0.0764 -0.2338 -0.4460
  828YOPS   D3B11417  16.214   3.938   7.175 -0.1350  0.0559  0.1321
  828YOPS   C4B11418  16.006   4.046   7.449  0.1920 -0.0482 -0.1344
  829YOPS   CNO11419  14.100   2.884   5.205 -0.1578 -0.1680 -0.2795
  829YOPS   PO411420  14.211   2.934   5.634 -0.1247  0.0883  0.0468
  829YOPS   GL111421  14.296   2.739   5.954  0.0343  0.3128 -0.0643
  829YOPS   GL211422  14.115   2.366   5.997 -0.1323  0.3676  0.3308
  829YOPS   C1A11423  14.398   2.663   6.394 -0.2404 -0.0700  0.0174
  829YOPS   D2A11424  14.582   2.744   6.817 -0.2847  0.1688 -0.1583
  829YOPS   C3A11425  14.429   2.774   7.129 -0.0081 -0.3635 -0.1495
  829YOPS   C4A11426  14.633   2.999   7.527 -0.1984  0.1733 -0.2057
  829YOPS   C1B11427  13.992   2.443   6.407  0.1410  0.2149  0.0435
  829YOPS   C2B11428  14.084   2.383   6.773 -0.2970  0.1700  0.0745
  829YOPS   D3B11429  14.270   2.293   7.237 -0.1737  0.0367  0.0910
  829YOPS   C4B11430  14.127   1.997   7.513  0.0661 -0.0685  0.1702
  830YOPS   CNO11431  13.644  16.980   5.447  0.0622 -0.0156 -0.1262
  830YOPS   PO411432  13.569  17.223   5.817  0.1856  0.3899 -0.0053
  830YOPS   GL111433  13.599  16.897   6.146  0.1702  0.2659 -0.0447
  830YOPS   GL211434  13.502  17.033   6.467 -0.0849  0.1431  0.0284
  830YOPS   C1A11435  14.017  16.685   6.294  0.2260 -0.1342  0.0726
  830YOPS   D2A11436  14.520  16.504   6.173 -0.1320  0.1628 -0.0515
  830YOPS   C3A11437  14.998  16.436   6.189 -0.0024 -0.2871 -0.0214
  830YOPS   C4A11438  15.192  16.289   6.521 -0.0419  0.1103 -0.1719
  830YOPS   C1B11439  13.630  17.414   6.763 -0.2147  0.1409  0.2506
  830YOPS   C2B11440  14.012  17.388   7.105  0.0007  0.1600 -0.1005
  830YOPS   D3B11441  14.244  17.153   7.481  0.3203 -0.1304 -0.1049
  830YOPS   C4B11442  14.200  17.250   7.951  0.0231  0.1144 -0.1131
  831YOPS   CNO11443   4.641  10.294   5.572  0.1866  0.0531  0.1542
  831YOPS   PO411444   4.727   9.861   5.710 -0.0876  0.0121 -0.2077
  831YOPS   GL111445   4.900  10.129   6.020 -0.2538 -0.0525  0.4511
  831YOPS   GL211446   5.164  10.299   6.024  0.1026 -0.0855  0.3195
  831YOPS   C1A11447   4.757  10.266   6.399  0.0063 -0.2922 -0.0758
  831YOPS   D2A11448   4.865  10.309   6.715  0.0017  0.0993  0.2895
  831YOPS   C3A11449   4.939  10.193   7.178  0.2897 -0.1211  0.2040
  831YOPS   C4A11450   4.917  10.549   7.516  0.3420  0.1791 -0.1293
  831YOPS   C1B11451   5.221  10.430   6.379  0.0471  0.1400 -0.0145
  831YOPS   C2B11452   5.443  10.342   6.756  0.1674  0.2852 -0.2700
  831YOPS   D3B11453   5.606  10.097   7.053  0.1329  0.0229 -0.1173
  831YOPS   C4B11454   5.474   9.863   7.356  0.2655 -0.0605 -0.2208
  832YOPS   CNO11455   6.669  13.825   5.995  0.0074  0.2088 -0.3032
  832YOPS   PO411456   7.077  13.802   5.763 -0.2757  0.2994  0.0860
  832YOPS   GL111457   7.117  13.540   6.186  0.1209 -0.1979  0.0811
  832YOPS   GL211458   6.931  13.474   6.336  0.0766 -0.2550  0.1720
  832YOPS   C1A11459   7.525  13.567   6.473  0.2047 -0.1174  0.0810
  832YOPS   D2A11460   7.668  13.432   6.888  0.1414  0.0110  0.2823
  832YOPS   C3A11461   8.016  13.347   7.201  0.4173  0.0557  0.0306
  832YOPS   C4A11462   7.991  13.595   7.476  0.0478  0.2448 -0.3760
  832YOPS   C1B11463   7.086  13.546   6.788 -0.1206 -0.1627  0.1705
  832YOPS   C2B11464   7.265  13.418   7.176 -0.0725 -0.0376 -0.5285
  832YOPS   D3B11465   7.539  13.370   7.509 -0.2907  0.2025  0.3250
  832YOPS   C4B11466   7.765  12.937   7.448 -0.3068  0.1576  0.0421
  833YOPS   CNO11467   8.534  14.895   5.443 -0.0910  0.2829 -0.4756
  833YOPS   PO411468   8.250  14.718   5.696  0.0907 -0.1677 -0.0399
  833YOPS   GL111469   8.352  14.801   6.113 -0.1770  0.0303 -0.3232
  833YOPS   GL211470   8.109  14.967   6.237  0.0762  0.0067 -0.2038
  833YOPS   C1A11471   8.427  14.550   6.416 -0.2611  0.0056 -0.1341
  833YOPS   D2A11472   8.370  14.409   6.812 -0.0466 -0.0783  0.1350
  833YOPS   C3A11473   8.477  14.233   7.254 -0.1567  0.1154 -0.3886
  833YOPS   C4A11474   8.733  14.077   7.373  0.1153 -0.0708 -0.1551
  833YOPS   C1B11475   8.227  14.940   6.646 -0.0126 -0.0727 -0.0077
  833YOPS   C2B11476   8.227  14.782   7.142 -0.0203 -0.0416 -0.0498
  833YOPS   D3B11477   8.145  14.537   7.517 -0.1859 -0.0940  0.0528
  833YOPS   C4B11478   8.199  14.108   7.620 -0.0657 -0.0522 -0.1442
  834YOPS   CNO11479   1.183   3.335   5.386 -0.0800 -0.0508 -0.0309
  834YOPS   PO411480   1.548   3.320   5.668  0.2478 -0.1734  0.1971
  834YOPS   GL111481   1.597   3.312   5.995  0.1184 -0.4832  0.2947
  834YOPS   GL211482   1.770   3.616   6.005 -0.0116  0.1171  0.3606
  834YOPS   C1A11483   1.821   3.176   6.388  0.0104 -0.1014 -0.2714
  834YOPS   D2A11484   1.978   2.948   6.655  0.5007 -0.1005 -0.0229
  834YOPS   C3A11485   1.744   2.966   7.033  0.2145  0.1798 -0.0152
  834YOPS   C4A11486   1.585   2.601   7.207  0.0590  0.1429 -0.0297
  834YOPS   C1B11487   1.520   3.583   6.404  0.0860 -0.0538  0.0297
  834YOPS   C2B11488   1.629   3.430   6.827  0.0302  0.0526  0.2219
  834YOPS   D3B11489   1.576   3.492   7.260  0.0400  0.3846  0.0261
  834YOPS   C4B11490   1.492   3.042   7.481 -0.1211  0.1984 -0.1496
  835YOPS   CNO11491   1.172  18.021   6.413 -0.0574  0.2634  0.0125
  835YOPS   PO411492   1.477  18.313   6.388 -0.0479 -0.0215 -0.0953
  835YOPS   GL111493   1.252  18.466   6.819  0.0859 -0.1330 -0.0776
  835YOPS   GL211494   1.072  18.296   6.800  0.0214  0.0681  0.2973
  835YOPS   C1A11495   1.381  18.621   7.162  0.0607  0.1532  0.4263
  835YOPS   D2A11496   1.186  18.542   7.554  0.2322 -0.2694 -0.0218
  835YOPS   C3A11497   0.773  18.413   7.760 -0.2182  0.0853  0.2870
  835YOPS   C4A11498   0.405  18.529   7.784 -0.2492  0.0756  0.1421
  835YOPS   C1B11499   0.989  18.293   7.220  0.0510  0.0707  0.2570
  835YOPS   C2B11500   1.054  18.035   7.661  0.1777 -0.2015  0.0136
  835YOPS   D3B11501   1.040  17.719   7.910  0.0238 -0.1474  0.1838
  835YOPS   C4B11502   1.290  17.375   7.914  0.1641  0.1523 -0.1770
  836YOPS   CNO11503   5.077  10.169   5.342  0.3399  0.0158  0.1953
  836YOPS   PO411504   5.133  10.522   5.575  0.2636 -0.3770 -0.1301
  836YOPS   GL111505   5.290  10.817   5.948  0.2362  0.0941 -0.0859
  836YOPS   GL211506   5.173  11.129   6.002 -0.0025  0.4374 -0.4203
  836YOPS   C1A11507   5.485  10.892   6.311  0.0623  0.2628  0.0460
  836YOPS   D2A11508   5.697  10.775   6.611 -0.1002 -0.0021  0.1956
  836YOPS   C3A11509   5.895  10.828   7.011  0.2215  0.0376 -0.3002
  836YOPS   C4A11510   6.004  10.509   7.280  0.0090  0.0879 -0.1747
  836YOPS   C1B11511   5.302  11.320   6.345 -0.0650  0.1191  0.0650
  836YOPS   C2B11512   5.167  11.326   6.862  0.0878 -0.0149 -0.1014
  836YOPS   D3B11513   4.939  11.477   7.135 -0.2173 -0.3118 -0.0985
  836YOPS   C4B11514   5.098  11.466   7.525 -0.0387  0.0289 -0.1567
  837YOPS   CNO11515  10.076  16.981   5.884  0.0441  0.3348  0.0755
  837YOPS   PO411516  10.072  16.888   6.353  0.3176  0.0732  0.1500
  837YOPS   GL111517  10.142  16.995   6.784  0.0517  0.2838 -0.0964
  837YOPS   GL211518  10.441  17.101   6.731 -0.0258 -0.3186 -0.0754
  837YOPS   C1A11519  10.024  17.118   7.221  0.1766 -0.2041 -0.0325
  837YOPS   D2A11520  10.030  17.159   7.595 -0.1488 -0.0165  0.0199
  837YOPS   C3A11521   9.817  17.292   7.973  0.1925  0.0984 -0.2318
  837YOPS   C4A11522   9.668  17.005   8.172  0.0145 -0.1149  0.0479
  837YOPS   C1B11523  10.505  17.200   7.153  0.2116  0.0216 -0.3541
  837YOPS   C2B11524  10.666  17.241   7.475 -0.0677 -0.2883 -0.0398
  837YOPS   D3B11525  10.696  17.297   7.931  0.2468  0.0152  0.1549
  837YOPS   C4B11526  10.312  17.279   8.018 -0.1159 -0.2778 -0.0551
  838YOPS   CNO11527  13.015  12.771   5.644 -0.1656 -0.1379 -0.1241
  838YOPS   PO411528  13.315  13.024   5.704 -0.0765 -0.1438  0.0297
  838YOPS   GL111529  13.482  12.919   6.159 -0.1360  0.0656 -0.0808
  838YOPS   GL211530  13.685  12.734   6.234 -0.0186 -0.4128  0.1458
  838YOPS   C1A11531  13.316  12.931   6.610  0.0452  0.2273  0.1023
  838YOPS   D2A11532  13.253  12.743   7.016  0.1510 -0.1042 -0.0659
  838YOPS   C3A11533  13.068  13.012   7.232 -0.1334  0.2584  0.1687
  838YOPS   C4A11534  13.203  13.273   7.404  0.1190  0.0086  0.1789
  838YOPS   C1B11535  13.781  12.624   6.739 -0.4489  0.2539  0.0627
  838YOPS   C2B11536  13.783  12.739   7.092 -0.0855  0.3067 -0.0232
  838YOPS   D3B11537  13.499  12.846   7.467  0.1462  0.1393  0.0339
  838YOPS   C4B11538  13.168  12.536   7.473  0.0603  0.1673 -0.0506
  839YOPS   CNO11539   5.996   4.944   6.154  0.1903 -0.0181 -0.3632
  839YOPS   PO411540   6.054   5.378   5.988 -0.1033 -0.3409  0.1359
  839YOPS   GL111541   6.268   5.300   6.329  0.0199  0.0510 -0.1265
  839YOPS   GL211542   6.290   5.638   6.310  0.1120 -0.1266  0.2119
  839YOPS   C1A11543   6.329   5.110   6.673  0.1115  0.1599 -0.0424
  839YOPS   D2A11544   6.462   5.225   7.040  0.2635 -0.6309 -0.0008
  839YOPS   C3A11545   6.570   5.428   7.414  0.1297  0.0146 -0.1952
  839YOPS   C4A11546   6.976   5.537   7.436 -0.0531  0.0764  0.2404
  839YOPS   C1B11547   6.490   5.775   6.695  0.0251 -0.0528  0.0459
  839YOPS   C2B11548   6.870   5.654   6.911  0.3175  0.1442 -0.1637
  839YOPS   D3B11549   7.051   5.988   7.125 -0.0952  0.1032 -0.0972
  839YOPS   C4B11550   7.329   5.896   7.327  0.0461 -0.0172  0.3878
  840YOPS   CNO11551   5.913   6.538   5.874 -0.1987  0.1086  0.3160
  840YOPS   PO411552   5.563   6.918   5.815 -0.2217  0.0620  0.2119
  840YOPS   GL111553   5.394   7.224   6.207 -0.2142  0.1901  0.1300
  840YOPS   GL211554   5.384   7.590   6.207 -0.0616 -0.0305  0.1025
  840YOPS   C1A11555   5.174   7.350   6.598 -0.1897 -0.0242 -0.1915
  840YOPS   D2A11556   5.087   7.414   7.020 -0.0744 -0.0336 -0.0446
  840YOPS   C3A11557   4.889   7.662   7.356  0.0572 -0.0002  0.1528
  840YOPS   C4A11558   5.070   7.714   7.721  0.3763  0.0763 -0.3815
  840YOPS   C1B11559   5.614   7.664   6.673  0.1723  0.0804 -0.1590
  840YOPS   C2B11560   5.636   7.356   6.874 -0.2948 -0.1213 -0.1509
  840YOPS   D3B11561   5.635   7.163   7.251 -0.0667  0.1424  0.3408
  840YOPS   C4B11562   5.642   7.252   7.789  0.1426 -0.0858 -0.4267
  841YOPS   CNO11563   4.641  15.710   6.079  0.0349 -0.0371  0.1071
  841YOPS   PO411564   4.941  16.005   6.083 -0.1286  0.0070  0.0196
  841YOPS   GL111565   4.823  16.240   6.430 -0.0955  0.3546 -0.0213
  841YOPS   GL211566   4.709  16.084   6.657  0.1839  0.0489 -0.1551
  841YOPS   C1A11567   5.050  16.494   6.765 -0.0656  0.5119 -0.1039
  841YOPS   D2A11568   5.197  16.446   7.216  0.1373  0.0463 -0.0704
  841YOPS   C3A11569   5.303  16.346   7.593  0.1170 -0.2142  0.1350
  841YOPS   C4A11570   5.078  16.519   7.993 -0.2016 -0.0265 -0.0207
  841YOPS   C1B11571   4.669  15.914   7.005 -0.3464 -0.0324 -0.2362
  841YOPS   C2B11572   4.603  15.759   7.447 -0.0710  0.1030  0.2529
  841YOPS   D3B11573   4.373  15.553   7.738  0.1663 -0.0525  0.3238
  841YOPS   C4B11574   4.528  15.112   7.994 -0.3071  0.0023 -0.1514
  842POPE   NH311575   8.059   9.413   5.645  0.0074 -0.3169 -0.0661
  842POPE   PO411576   8.363   9.084   5.737 -0.0792  0.0131 -0.2297
  842POPE   GL111577   8.377   8.833   6.115  0.2329  0.0072  0.1063
  842POPE   GL211578   8.184   8.645   6.262  0.1232 -0.1191 -0.2160
  842POPE   C1A11579   8.517   9.013   6.514  0.1438  0.5344 -0.0810
  842POPE   D2A11580   8.431   9.215   6.938 -0.0339 -0.1992 -0.1128
  842POPE   C3A11581   8.242   9.195   7.258  0.3520  0.3255  0.1074
  842POPE   C4A11582   8.147   9.430   7.529 -0.0007 -0.0491  0.1046
  842POPE   C1B11583   8.184   8.660   6.612 -0.2891 -0.0227  0.2726
  842POPE   C2B11584   7.910   8.651   6.903 -0.0451 -0.1164 -0.0568
  842POPE   C3B11585   7.777   8.860   7.343 -0.1181  0.0455 -0.0574
  842POPE   C4B11586   7.593   8.971   7.691 -0.1739 -0.0479 -0.2731
  843POPE   NH311587  14.472   6.972   5.620 -0.0600  0.2690 -0.2240
  843POPE   PO411588  14.526   7.378   5.657 -0.3258 -0.0982 -0.0429
  843POPE   GL111589  14.802   7.415   6.060 -0.0352  0.1344 -0.1785
  843POPE   GL211590  14.802   7.172   6.288 -0.0625  0.0616 -0.1003
  843POPE   C1A11591  15.027   7.643   6.439 -0.1418 -0.2677 -0.1073
  843POPE   D2A11592  15.137   7.540   6.766 -0.1628  0.2302  0.2951
  843POPE   C3A11593  14.921   7.477   7.143 -0.3065 -0.1327 -0.0333
  843POPE   C4A11594  14.629   7.680   7.503 -0.0286 -0.0281 -0.2799
  843POPE   C1B11595  14.812   7.173   6.708 -0.0341 -0.0144  0.0708
  843POPE   C2B11596  14.671   7.015   7.049 -0.0073 -0.0051  0.1295
  843POPE   C3B11597  14.609   7.124   7.443 -0.0208  0.0851 -0.3085
  843POPE   C4B11598  14.559   7.228   7.766 -0.3169  0.1955 -0.1528
  844POPE   NH311599  10.577  13.244   5.502 -0.3256  0.0277 -0.2504
  844POPE   PO411600  10.716  13.721   5.414  0.2903 -0.2191  0.1039
  844POPE   GL111601  10.801  13.933   5.918  0.0209  0.0049  0.1549
  844POPE   GL211602  10.617  13.975   6.228 -0.1194 -0.1855  0.5296
  844POPE   C1A11603  11.018  14.231   6.016 -0.0011  0.0532  0.2166
  844POPE   D2A11604  11.193  14.639   6.143  0.2179  0.1960  0.0847
  844POPE   C3A11605  11.214  14.863   6.493  0.2970  0.0922 -0.1950
  844POPE   C4A11606  11.110  15.233   6.799 -0.3838 -0.3849  0.1997
  844POPE   C1B11607  10.644  14.197   6.598  0.2511  0.0914  0.0808
  844POPE   C2B11608  10.501  14.052   6.933 -0.1749  0.1951  0.3931
  844POPE   C3B11609  10.574  14.062   7.348  0.1485 -0.1137 -0.2588
  844POPE   C4B11610  10.641  13.937   7.728 -0.2397  0.0134  0.1614
  845POPE   NH311611  17.042  16.432   5.471  0.0103 -0.0212  0.0386
  845POPE   PO411612  17.234  16.698   5.708  0.0213  0.3302 -0.1205
  845POPE   GL111613  17.215  16.431   6.042 -0.2355  0.1250  0.1326
  845POPE   GL211614  16.954  16.334   5.953 -0.1347  0.0812 -0.0369
  845POPE   C1A11615  17.295  16.451   6.458 -0.3427  0.0127 -0.0219
  845POPE   D2A11616  17.323  16.460   6.936 -0.0478 -0.1493  0.0857
  845POPE   C3A11617  17.697  16.527   7.124  0.0029  0.0685  0.0293
  845POPE   C4A11618  17.846  16.353   7.506  0.0248 -0.0246 -0.0147
  845POPE   C1B11619  16.861  16.622   6.322  0.3996 -0.0856  0.1997
  845POPE   C2B11620  16.770  16.666   6.670 -0.2189  0.2310 -0.4326
  845POPE   C3B11621  16.882  16.725   7.077 -0.0435 -0.0431  0.1685
  845POPE   C4B11622  16.830  16.713   7.555  0.0470  0.1729  0.1346
  846POPE   NH311623   4.839   7.829   5.798 -0.1288 -0.0328  0.1428
  846POPE   PO411624   4.618   8.142   5.944 -0.0469 -0.0678 -0.0904
  846POPE   GL111625   4.622   8.282   6.340  0.0802  0.2341  0.0394
  846POPE   GL211626   4.573   8.547   6.342  0.2978  0.1792  0.0821
  846POPE   C1A11627   4.705   8.218   6.727 -0.0584 -0.0083  0.2688
  846POPE   D2A11628   4.759   8.183   7.149 -0.0944  0.1255  0.0999
  846POPE   C3A11629   4.554   8.165   7.457  0.1027 -0.5262  0.0328
  846POPE   C4A11630   4.768   8.138   7.816 -0.0612 -0.0073 -0.2042
  846POPE   C1B11631   4.809   8.671   6.582  0.0099 -0.1641 -0.1504
  846POPE   C2B11632   4.914   8.609   7.006  0.0664  0.1683 -0.2988
  846POPE   C3B11633   4.933   8.610   7.440 -0.3356 -0.1049 -0.1536
  846POPE   C4B11634   4.675   8.602   7.782 -0.5392  0.2281 -0.0071
  847POPE   NH311635   6.584   3.649   5.829  0.0885 -0.1394  0.2991
  847POPE   PO411636   6.192   3.857   5.899 -0.1941 -0.1466 -0.2149
  847POPE   GL111637   6.401   3.731   6.345 -0.2241 -0.1215  0.0607
  847POPE   GL211638   6.692   3.847   6.262 -0.2159  0.1927  0.2276
  847POPE   C1A11639   6.429   3.949   6.681 -0.0693 -0.3227  0.1123
  847POPE   D2A11640   6.448   4.183   7.138  0.2566 -0.1820  0.0611
  847POPE   C3A11641   6.798   4.358   7.319 -0.1451 -0.1151 -0.1090
  847POPE   C4A11642   6.868   4.535   7.674  0.1969 -0.1746 -0.2239
  847POPE   C1B11643   6.581   4.310   6.344 -0.1770  0.1922  0.0159
  847POPE   C2B11644   6.408   4.582   6.669 -0.1881  0.0882  0.3258
  847POPE   C3B11645   6.415   4.718   7.094 -0.0347 -0.0950 -0.2022
  847POPE   C4B11646   6.376   4.564   7.557  0.1384 -0.1997  0.0331
  848POPE   NH311647   5.746   3.584   5.935 -0.1102 -0.1129  0.0185
  848POPE   PO411648   5.405   3.201   5.844 -0.0401 -0.0065  0.1321
  848POPE   GL111649   5.422   3.328   6.298 -0.1671 -0.0712  0.1498
  848POPE   GL211650   5.796   3.246   6.279 -0.0959 -0.1191 -0.0620
  848POPE   C1A11651   5.487   3.473   6.606 -0.0476  0.2084 -0.0315
  848POPE   D2A11652   5.766   3.474   6.879 -0.1924 -0.1059 -0.3009
  848POPE   C3A11653   5.716   3.517   7.189 -0.1883  0.1864 -0.1218
  848POPE   C4A11654   5.824   3.554   7.698 -0.1831 -0.3284  0.2779
  848POPE   C1B11655   5.840   2.911   6.660 -0.0862 -0.2061  0.2402
  848POPE   C2B11656   5.950   2.886   7.073 -0.0507  0.1005  0.1021
  848POPE   C3B11657   5.858   3.086   7.456 -0.1534  0.1082  0.0589
  848POPE   C4B11658   5.539   3.159   7.739  0.0076 -0.1277  0.0230
  849POPE   NH311659  13.853   0.277   5.852 -0.1679  0.0767  0.0332
  849POPE   PO411660  13.401   0.202   5.874 -0.2196  0.1074  0.0423
  849POPE   GL111661  13.227  -0.053   6.254 -0.0788 -0.2157 -0.0123
  849POPE   GL211662  13.487  -0.258   6.366  0.1325 -0.0915  0.1193
  849POPE   C1A11663  13.169  -0.026   6.652 -0.0485  0.1170  0.2905
  849POPE   D2A11664  13.065  -0.197   7.084 -0.3133  0.1195 -0.0137
  849POPE   C3A11665  12.628  -0.303   7.228 -0.2091 -0.1458 -0.2363
  849POPE   C4A11666  12.301  -0.589   7.528 -0.2950 -0.1569  0.2326
  849POPE   C1B11667  13.566  -0.234   6.805 -0.1300  0.1693 -0.2081
  849POPE   C2B11668  13.553  -0.170   7.268 -0.0692 -0.0869 -0.2611
  849POPE   C3B11669  13.631  -0.373   7.699 -0.3408  0.0853  0.1354
  849POPE   C4B11670  13.483  -0.331   7.994 -0.0449 -0.2474 -0.1836
  850POPE   NH311671   5.608  10.237   5.407 -0.3014  0.0875 -0.0168
  850POPE   PO411672   5.514   9.899   5.596  0.1383 -0.3739 -0.1541
  850POPE   GL111673   5.551   9.873   5.901  0.2156  0.0002 -0.2435
  850POPE   GL211674   5.222   9.753   5.989 -0.2773 -0.0230  0.1735
  850POPE   C1A11675   5.540   9.971   6.374 -0.0464  0.1108 -0.0360
  850POPE   D2A11676   5.873   9.807   6.717  0.6326  0.3488  0.1192
  850POPE   C3A11677   6.244   9.768   6.757  0.0962  0.1366 -0.3733
  850POPE   C4A11678   6.361   9.774   7.122 -0.1809  0.0924 -0.3115
  850POPE   C1B11679   5.281   9.464   6.388 -0.0968 -0.2237 -0.1519
  850POPE   C2B11680   5.570   9.326   6.759 -0.3903  0.2154  0.1130
  850POPE   C3B11681   5.651   9.385   7.256 -0.2691 -0.3573  0.2701
  850POPE   C4B11682   5.516   9.463   7.654  0.0117 -0.2975 -0.0805
  851POPE   NH311683   1.399   1.251   5.754  0.2070 -0.0719 -0.2359
  851POPE   PO411684   1.742   1.119   6.034  0.3555 -0.2380 -0.0863
  851POPE   GL111685   1.707   1.248   6.445  0.0808  0.1051 -0.0498
  851POPE   GL211686   1.849   1.556   6.449  0.0086 -0.0978 -0.0864
  851POPE   C1A11687   1.927   1.231   6.854 -0.2525  0.0134 -0.2033
  851POPE   D2A11688   1.967   1.227   7.376 -0.4993  0.0187  0.3795
  851POPE   C3A11689   2.079   1.316   7.776  0.0233 -0.1171  0.0919
  851POPE   C4A11690   2.084   1.215   8.179 -0.1203  0.1763 -0.1338
  851POPE   C1B11691   2.100   1.750   6.765 -0.1622 -0.1918 -0.0128
  851POPE   C2B11692   2.119   1.869   7.086 -0.2046 -0.0651  0.3389
  851POPE   C3B11693   2.136   1.747   7.435  0.2907  0.0150 -0.2876
  851POPE   C4B11694   2.323   1.677   7.926  0.0317 -0.0748 -0.1228
  852POPE   NH311695   0.517   0.522   5.729 -0.0571  0.0428 -0.0670
  852POPE   PO411696   0.805   0.478   6.108  0.1078 -0.2252 -0.1331
  852POPE   GL111697   0.931   0.694   6.542 -0.2759  0.0995  0.2655
  852POPE   GL211698   1.130   0.461   6.618 -0.0456  0.0082 -0.3841
  852POPE   C1A11699   0.905   0.832   6.865  0.3080  0.0931 -0.0333
  852POPE   D2A11700   0.824   0.898   7.227 -0.0267 -0.0683  0.0649
  852POPE   C3A11701   0.829   0.946   7.639  0.0723 -0.2118 -0.1468
  852POPE   C4A11702   0.521   1.030   7.946  0.0716 -0.1136  0.0361
  852POPE   C1B11703   1.333   0.575   7.026  0.0163 -0.1412 -0.1061
  852POPE   C2B11704   1.228   0.651   7.384 -0.2109 -0.3830 -0.0012
  852POPE   C3B11705   1.072   0.554   7.747 -0.3340 -0.0837 -0.2876
  852POPE   C4B11706   1.259   0.530   8.176  0.0838 -0.1237  0.5232
  853POPE   NH311707  17.512   1.395   5.482  0.4309  0.0583  0.0961
  853POPE   PO411708  17.792   1.332   5.755 -0.3220 -0.3031  0.0019
  853POPE   GL111709  17.751   1.384   6.156  0.1399 -0.0458  0.0807
  853POPE   GL211710  17.723   1.758   6.239  0.2416 -0.3303  0.1530
  853POPE   C1A11711  17.853   1.238   6.649 -0.1464 -0.0327  0.0590
  853POPE   D2A11712  17.677   1.212   7.075 -0.0893 -0.2009 -0.0323
  853POPE   C3A11713  17.693   0.945   7.360  0.0114 -0.4083 -0.0080
  853POPE   C4A11714  17.656   0.596   7.477  0.0783  0.1075 -0.0776
  853POPE   C1B11715  17.787   1.812   6.789 -0.0586 -0.0483  0.0375
  853POPE   C2B11716  17.893   1.646   7.173 -0.2464 -0.0180 -0.3037
  853POPE   C3B11717  17.780   1.435   7.496 -0.1566  0.0837 -0.0169
  853POPE   C4B11718  17.624   1.216   7.837  0.0599  0.3891  0.5147
  854POPE   NH311719   0.882   8.178   5.317  0.1153 -0.0698  0.1643
  854POPE   PO411720   1.065   8.310   5.630  0.2147 -0.2831 -0.0751
  854POPE   GL111721   0.679   8.142   5.836 -0.0446  0.2263 -0.2464
  854POPE   GL211722   0.509   8.330   5.985  0.0799  0.1730  0.2069
  854POPE   C1A11723   0.393   7.764   5.933  0.0590 -0.1088  0.2803
  854POPE   D2A11724   0.067   7.511   6.088  0.1939  0.1445  0.1251
  854POPE   C3A11725   0.029   7.177   6.222  0.1678 -0.1917  0.4392
  854POPE   C4A11726   0.094   6.878   6.477  0.0021  0.0006 -0.1608
  854POPE   C1B11727   0.486   8.214   6.321  0.0294 -0.2057  0.1026
  854POPE   C2B11728   0.543   7.869   6.514 -0.0648 -0.0773  0.0310
  854POPE   C3B11729   0.473   7.874   6.957 -0.1115  0.2675 -0.0677
  854POPE   C4B11730   0.320   7.885   7.365  0.1990 -0.0276  0.1976
  855POPE   NH311731   8.022  12.969   5.721  0.2167 -0.0650 -0.0492
  855POPE   PO411732   8.349  12.735   5.732 -0.3306  0.0788 -0.0854
  855POPE   GL111733   8.313  12.730   6.170  0.1077  0.1374 -0.0957
  855POPE   GL211734   8.153  12.502   6.282 -0.2675 -0.2094  0.1925
  855POPE   C1A11735   8.487  12.718   6.570 -0.0355 -0.2123  0.2452
  855POPE   D2A11736   8.867  12.554   6.697 -0.0944 -0.3185  0.1921
  855POPE   C3A11737   9.039  12.571   7.020  0.0403  0.2024  0.0089
  855POPE   C4A11738   9.228  12.638   7.444 -0.0928 -0.4363  0.3811
  855POPE   C1B11739   8.172  12.374   6.722  0.1284  0.1931  0.0918
  855POPE   C2B11740   7.964  12.427   7.233  0.0226  0.0215 -0.1699
  855POPE   C3B11741   7.965  12.163   7.565  0.1715 -0.1950 -0.0709
  855POPE   C4B11742   8.130  12.116   7.972  0.1606 -0.3489  0.2101
  856POPE   NH311743  10.184   8.203   5.518  0.0547  0.0307  0.2238
  856POPE   PO411744  10.470   7.799   5.608  0.2088  0.0891  0.3319
  856POPE   GL111745  10.618   7.713   6.015  0.0959  0.0316 -0.0811
  856POPE   GL211746  10.355   7.794   6.091 -0.0832  0.0112 -0.0156
  856POPE   C1A11747  10.671   8.059   6.398  0.2385  0.4985 -0.0735
  856POPE   D2A11748  10.815   8.110   6.854 -0.0114  0.2087  0.1943
  856POPE   C3A11749  10.729   8.149   7.243 -0.2210  0.2034  0.4058
  856POPE   C4A11750  10.468   7.954   7.676 -0.0761  0.2630  0.0419
  856POPE   C1B11751  10.421   7.552   6.470  0.1259  0.0234 -0.3882
  856POPE   C2B11752  10.127   7.313   6.752 -0.1478  0.2641 -0.0697
  856POPE   C3B11753   9.925   7.336   7.145 -0.2867 -0.0493 -0.0253
  856POPE   C4B11754  10.108   7.588   7.504  0.3078  0.1470  0.1005
  857POPE   NH311755   4.781   1.173   6.100 -0.2380  0.3276  0.1786
  857POPE   PO411756   4.946   1.561   6.261 -0.0339 -0.1075 -0.2658
  857POPE   GL111757   5.237   1.595   6.603  0.0098 -0.1287 -0.0898
  857POPE   GL211758   5.637   1.418   6.633 -0.2541  0.0790  0.1210
  857POPE   C1A11759   5.230   1.712   7.042  0.1363 -0.0175 -0.0209
  857POPE   D2A11760   5.073   1.770   7.377  0.1260  0.0848 -0.1222
  857POPE   C3A11761   5.415   1.855   7.654  0.1506 -0.0444  0.1479
  857POPE   C4A11762   5.651   2.128   7.810 -0.1443 -0.0757  0.0038
  857POPE   C1B11763   5.643   1.428   7.086 -0.0740 -0.0298 -0.5509
  857POPE   C2B11764   5.570   1.417   7.527 -0.1434  0.1774 -0.1846
  857POPE   C3B11765   5.252   1.389   7.746 -0.1227 -0.2115  0.0956
  857POPE   C4B11766   5.051   1.270   8.154 -0.1133 -0.3214 -0.0572
  858POPE   NH311767  10.642   1.281   6.150 -0.2457 -0.3032 -0.2950
  858POPE   PO411768  10.509   1.731   6.122 -0.0283  0.3755  0.7133
  858POPE   GL111769  10.714   1.662   6.459 -0.0732 -0.0756  0.0888
  858POPE   GL211770  10.938   1.466   6.541  0.3297 -0.1645  0.2084
  858POPE   C1A11771  10.568   1.594   6.908  0.0800 -0.1611  0.1825
  858POPE   D2A11772  10.657   1.540   7.351 -0.4207  0.0320  0.1586
  858POPE   C3A11773  10.327   1.306   7.352 -0.2319  0.1108  0.2769
  858POPE   C4A11774  10.228   1.039   7.581  0.0643  0.0402  0.0799
  858POPE   C1B11775  11.033   1.375   6.941 -0.3728  0.0857  0.0222
  858POPE   C2B11776  11.074   1.324   7.445  0.2856  0.2178 -0.0595
  858POPE   C3B11777  11.106   1.492   7.809  0.4307  0.1372  0.0626
  858POPE   C4B11778  11.323   1.505   8.125  0.0971 -0.0747 -0.0522
  859POPE   NH311779   3.657   8.099   6.022  0.0456 -0.1039  0.3104
  859POPE   PO411780   4.157   8.211   6.160  0.2446  0.1892  0.2556
  859POPE   GL111781   3.814   8.314   6.471 -0.1274 -0.2179 -0.0948
  859POPE   GL211782   3.531   8.591   6.392 -0.0553 -0.0798 -0.1384
  859POPE   C1A11783   3.738   8.139   6.883 -0.0232  0.2326  0.0852
  859POPE   D2A11784   3.510   8.210   7.252 -0.1753 -0.1499 -0.0784
  859POPE   C3A11785   3.768   8.309   7.634 -0.2098 -0.2058  0.4232
  859POPE   C4A11786   4.198   8.463   7.746  0.1391  0.2025 -0.0123
  859POPE   C1B11787   3.718   8.712   6.745 -0.0723 -0.0936  0.2225
  859POPE   C2B11788   3.507   8.856   7.082 -0.1616 -0.0011  0.0774
  859POPE   C3B11789   3.170   8.971   7.238  0.1731  0.2330  0.1666
  859POPE   C4B11790   3.031   9.074   7.693  0.0554 -0.3235  0.2063
  860POPE   NH311791  16.594  15.114   5.598  0.1652  0.2082  0.0130
  860POPE   PO411792  16.940  15.050   5.651 -0.0363 -0.0918 -0.3266
  860POPE   GL111793  16.812  14.667   5.882 -0.0937 -0.0847  0.1872
  860POPE   GL211794  17.089  14.591   6.083  0.1041  0.2612 -0.0092
  860POPE   C1A11795  16.438  14.471   6.265 -0.0422 -0.3168 -0.1107
  860POPE   D2A11796  16.204  14.757   6.525  0.0614  0.0782 -0.1606
  860POPE   C3A11797  16.303  15.165   6.516  0.0214 -0.3547 -0.0736
  860POPE   C4A11798  16.171  15.451   6.812 -0.0227  0.0312  0.1568
  860POPE   C1B11799  16.895  14.774   6.459  0.1457  0.3107 -0.0221
  860POPE   C2B11800  16.673  14.956   6.776 -0.1043 -0.2901  0.0331
  860POPE   C3B11801  16.568  15.164   7.153  0.0731  0.3393  0.0943
  860POPE   C4B11802  16.626  15.420   7.473 -0.0746 -0.1616 -0.2400
  861POPE   NH311803   8.841   8.919   5.731  0.3917  0.0828  0.0811
  861POPE   PO411804   8.815   8.528   5.575 -0.0625 -0.2936 -0.0600
  861POPE   GL111805   8.653   8.389   6.040 -0.0257 -0.1989 -0.0679
  861POPE   GL211806   8.298   8.168   6.074 -0.0731 -0.0034 -0.2952
  861POPE   C1A11807   8.621   8.530   6.523 -0.1204 -0.0898 -0.3836
  861POPE   D2A11808   8.535   8.714   6.955  0.0872  0.0104 -0.0776
  861POPE   C3A11809   8.239   8.626   7.358 -0.0816 -0.1908  0.1105
  861POPE   C4A11810   8.234   8.995   7.677 -0.0510  0.0127  0.0462
  861POPE   C1B11811   8.184   8.016   6.495 -0.1769 -0.0155  0.1227
  861POPE   C2B11812   8.218   8.165   6.881 -0.0943  0.0759 -0.1813
  861POPE   C3B11813   8.295   8.123   7.307  0.0056  0.0756  0.1540
  861POPE   C4B11814   8.264   8.044   7.724 -0.0170  0.1847 -0.0034
  862POPE   NH311815   0.874   1.276   5.655 -0.0225  0.1247 -0.1581
  862POPE   PO411816   0.554   1.048   5.894  0.0848  0.0674  0.2530
  862POPE   GL111817   0.343   0.975   6.214  0.0581 -0.0566  0.1435
  862POPE   GL211818   0.485   0.693   6.411  0.3508 -0.1103 -0.1059
  862POPE   C1A11819  -0.073   0.702   6.284 -0.1907 -0.2115  0.0690
  862POPE   D2A11820  -0.198   0.250   6.394  0.2226 -0.2255 -0.1077
  862POPE   C3A11821  -0.268   0.091   6.838  0.1577  0.1995  0.0450
  862POPE   C4A11822  -0.236  -0.081   7.196  0.0850 -0.0958 -0.0182
  862POPE   C1B11823   0.237   0.425   6.635 -0.3453 -0.3298  0.0196
  862POPE   C2B11824  -0.067   0.502   6.978 -0.2150 -0.2098  0.1083
  862POPE   C3B11825  -0.554   0.450   7.091  0.1080 -0.2766 -0.2068
  862POPE   C4B11826  -0.902   0.683   6.862 -0.0375  0.2193 -0.1620
  863POPE   NH311827   1.143  12.764   5.867 -0.2692  0.2130  0.5889
  863POPE   PO411828   0.978  13.141   5.685 -0.1564 -0.2487  0.1511
  863POPE   GL111829   1.389  13.286   5.856  0.2461 -0.4509 -0.0041
  863POPE   GL211830   1.451  13.114   6.051 -0.1806 -0.2846  0.0109
  863POPE   C1A11831   1.736  13.451   6.213 -0.0101  0.0792  0.0684
  863POPE   D2A11832   1.747  13.448   6.668 -0.0933  0.1241 -0.0532
  863POPE   C3A11833   1.479  13.216   6.922  0.1390  0.0229  0.0346
  863POPE   C4A11834   1.132  13.108   7.226 -0.2451  0.0684  0.2182
  863POPE   C1B11835   1.524  13.027   6.452  0.0316 -0.4169  0.1459
  863POPE   C2B11836   1.351  12.720   6.760 -0.0565 -0.1989 -0.3855
  863POPE   C3B11837   1.140  12.504   6.902  0.1495  0.0815 -0.1534
  863POPE   C4B11838   0.890  12.247   7.131  0.0007 -0.3120  0.0136
  864POPE   NH311839   7.966   8.101   5.749  0.2044 -0.0377 -0.0171
  864POPE   PO411840   8.076   7.799   5.440 -0.2475  0.2487  0.3170
  864POPE   GL111841   8.138   7.527   5.807 -0.0994  0.0969  0.0182
  864POPE   GL211842   8.095   7.695   6.036  0.2464  0.2284  0.1469
  864POPE   C1A11843   7.897   7.244   5.982 -0.0947 -0.1733 -0.0820
  864POPE   D2A11844   7.713   6.908   6.246  0.0180 -0.1443  0.2643
  864POPE   C3A11845   7.802   6.509   6.030 -0.2099 -0.0218 -0.0783
  864POPE   C4A11846   7.865   6.092   6.224 -0.2023  0.1891 -0.2281
  864POPE   C1B11847   8.074   7.520   6.451 -0.0628 -0.1989  0.1814
  864POPE   C2B11848   8.141   7.655   6.871  0.3788  0.2151 -0.1603
  864POPE   C3B11849   8.029   7.684   7.358  0.1349 -0.1358  0.0465
  864POPE   C4B11850   7.705   7.650   7.633 -0.0488 -0.0767 -0.3126
  865POPE   NH311851   7.456   1.408   5.542 -0.3166  0.2142  0.0399
  865POPE   PO411852   7.752   1.739   5.528  0.3398  0.0538 -0.0416
  865POPE   GL111853   7.687   1.558   5.967 -0.1859  0.1263 -0.0731
  865POPE   GL211854   7.904   1.670   6.180  0.2177 -0.0359 -0.3252
  865POPE   C1A11855   7.391   1.332   6.309  0.2927 -0.2690  0.2288
  865POPE   D2A11856   7.303   1.064   6.513  0.0093 -0.2199  0.2166
  865POPE   C3A11857   7.398   0.998   7.016 -0.0726 -0.0036 -0.0114
  865POPE   C4A11858   7.677   1.107   7.458  0.1533 -0.3122  0.0486
  865POPE   C1B11859   7.894   1.563   6.634 -0.0416 -0.1363 -0.1274
  865POPE   C2B11860   7.840   1.497   7.140  0.0155 -0.0028 -0.0177
  865POPE   C3B11861   7.894   1.567   7.540 -0.2408 -0.1314  0.0470
  865POPE   C4B11862   7.956   1.945   7.845  0.0567  0.1977 -0.1232
  866POPE   NH311863   1.252  17.361   6.109 -0.0507 -0.2870  0.2376
  866POPE   PO411864   0.856  17.076   6.249 -0.1785 -0.1844 -0.0279
  866POPE   GL111865   0.710  16.947   6.600  0.1305  0.0964 -0.3468
  866POPE   GL211866   0.423  17.036   6.564  0.1091  0.2410 -0.1935
  866POPE   C1A11867   0.723  16.690   6.894  0.3502 -0.2138 -0.0154
  866POPE   D2A11868   0.587  16.755   7.273  0.0465  0.3301  0.6060
  866POPE   C3A11869   0.674  16.774   7.649 -0.2471 -0.1821  0.0904
  866POPE   C4A11870   0.944  17.038   7.997  0.1765  0.1862  0.0093
  866POPE   C1B11871   0.481  17.167   7.014  0.1063 -0.0624 -0.0479
  866POPE   C2B11872   0.504  17.282   7.348  0.0016  0.3159 -0.1301
  866POPE   C3B11873   0.774  17.386   7.577 -0.0967  0.0869  0.1453
  866POPE   C4B11874   1.121  17.598   7.452  0.2308 -0.2040 -0.0488
  867POPE   NH311875  15.748   1.744   5.238 -0.1821 -0.1003  0.0262
  867POPE   PO411876  15.827   1.908   5.681  0.0930  0.0457  0.1489
  867POPE   GL111877  15.944   1.679   6.010  0.0151 -0.1924  0.1320
  867POPE   GL211878  16.065   1.443   5.948  0.1461 -0.0502 -0.2728
  867POPE   C1A11879  15.907   1.435   6.481 -0.1395 -0.1168  0.3586
  867POPE   D2A11880  15.872   1.366   6.939 -0.2090 -0.1190 -0.1636
  867POPE   C3A11881  15.781   1.525   7.310  0.0060 -0.0100  0.2016
  867POPE   C4A11882  15.887   1.686   7.659  0.1147  0.0345  0.1020
  867POPE   C1B11883  16.276   1.277   6.194  0.1723 -0.1910 -0.1019
  867POPE   C2B11884  16.334   1.241   6.694 -0.2164 -0.4147  0.2281
  867POPE   C3B11885  16.588   1.248   7.133 -0.0926  0.3141 -0.1206
  867POPE   C4B11886  16.847   1.588   7.402 -0.2265  0.3080 -0.1732
  868POPE   NH311887  11.323   9.421   5.652 -0.2535  0.0377 -0.0268
  868POPE   PO411888  11.650   9.645   5.713 -0.3100 -0.1707  0.2590
  868POPE   GL111889  11.686   9.769   6.199 -0.2963  0.1134 -0.2202
  868POPE   GL211890  11.431   9.988   6.200  0.0571  0.1401  0.2967
  868POPE   C1A11891  11.805   9.725   6.622  0.4416 -0.0835 -0.3188
  868POPE   D2A11892  11.929   9.809   7.047  0.0350 -0.3038  0.0347
  868POPE   C3A11893  12.108  10.152   7.413 -0.1533  0.5674 -0.2875
  868POPE   C4A11894  12.108  10.438   7.723 -0.3746  0.2848  0.3042
  868POPE   C1B11895  11.352  10.226   6.589 -0.0738 -0.0696  0.0945
  868POPE   C2B11896  11.622  10.251   6.964  0.1744 -0.0705  0.1521
  868POPE   C3B11897  11.643  10.216   7.458  0.1609 -0.0006  0.3438
  868POPE   C4B11898  11.649  10.322   7.857 -0.2546 -0.2139  0.0284
  869POPE   NH311899  17.983   8.156   5.744 -0.0091 -0.1388 -0.0207
  869POPE   PO411900  18.112   8.514   5.657  0.0678 -0.3869  0.0750
  869POPE   GL111901  18.150   8.632   6.111  0.0945  0.2086  0.0140
  869POPE   GL211902  18.159   8.399   6.186  0.3937 -0.2375  0.3512
  869POPE   C1A11903  18.273   9.005   6.290  0.0826  0.2225 -0.1475
  869POPE   D2A11904  18.066   9.106   6.599  0.2952  0.2251 -0.2935
  869POPE   C3A11905  18.021   8.930   6.934  0.0180  0.2578 -0.0108
  869POPE   C4A11906  18.295   8.650   7.233  0.3409 -0.3022 -0.3094
  869POPE   C1B11907  18.057   8.275   6.575  0.0817 -0.0752 -0.0395
  869POPE   C2B11908  17.862   8.362   6.972 -0.0069  0.2390 -0.0555
  869POPE   C3B11909  17.634   8.376   7.358  0.1907  0.0114 -0.0707
  869POPE   C4B11910  17.426   8.087   7.609  0.2723 -0.0146  0.2115
  870POPE   NH311911  15.038   7.201   5.652  0.1129  0.0406 -0.1285
  870POPE   PO411912  14.945   6.769   5.562  0.1831 -0.4062  0.1115
  870POPE   GL111913  14.964   6.768   6.030 -0.1581  0.1558 -0.0978
  870POPE   GL211914  15.285   6.898   6.145  0.3110 -0.2174  0.1035
  870POPE   C1A11915  14.988   6.551   6.395  0.0726 -0.1751 -0.1975
  870POPE   D2A11916  14.948   6.434   6.742  0.0528 -0.1150  0.1389
  870POPE   C3A11917  15.040   6.550   7.067 -0.0802  0.2225  0.0434
  870POPE   C4A11918  14.982   6.825   7.377  0.0193 -0.0492 -0.0678
  870POPE   C1B11919  15.219   7.011   6.493 -0.0601  0.1544 -0.0896
  870POPE   C2B11920  15.225   6.987   6.852 -0.2077 -0.0497  0.1103
  870POPE   C3B11921  15.458   7.089   7.113  0.2061  0.0176 -0.1549
  870POPE   C4B11922  15.360   7.134   7.462 -0.1969  0.0645  0.1215
  871POPE   NH311923   8.581   5.472   5.405 -0.1302 -0.2778  0.2181
  871POPE   PO411924   8.907   5.538   5.668 -0.1734  0.1804  0.1582
  871POPE   GL111925   9.049   5.483   6.124  0.2448  0.0838 -0.3096
  871POPE   GL211926   9.223   5.768   6.024 -0.0657 -0.2932 -0.2917
  871POPE   C1A11927   9.038   5.501   6.673  0.1903  0.1989 -0.0285
  871POPE   D2A11928   8.877   5.838   6.944  0.0645 -0.0179 -0.0196
  871POPE   C3A11929   9.086   6.146   7.110  0.2498 -0.1626 -0.0136
  871POPE   C4A11930   9.109   6.397   7.466  0.1120  0.0646  0.1779
  871POPE   C1B11931   9.435   5.704   6.374 -0.3132 -0.2202  0.1216
  871POPE   C2B11932   9.485   5.725   6.883 -0.2499  0.1937 -0.1000
  871POPE   C3B11933   9.180   5.526   7.245  0.1212 -0.4877  0.1425
  871POPE   C4B11934   9.181   5.831   7.553  0.0614 -0.2750 -0.0569
  872YOPE   NH311935   3.928   9.425   5.783  0.1018  0.0114  0.1746
  872YOPE   PO411936   3.453   9.285   5.818  0.3554 -0.0166 -0.1916
  872YOPE   GL111937   3.399   9.534   6.177 -0.0680  0.1434 -0.0951
  872YOPE   GL211938   3.157   9.745   6.405 -0.0873 -0.1810 -0.1707
  872YOPE   C1A11939   3.681   9.605   6.549  0.1415 -0.0578  0.2529
  872YOPE   D2A11940   3.773   9.834   6.920  0.1696 -0.0177  0.0342
  872YOPE   C3A11941   3.820   9.655   7.378 -0.1192  0.4085 -0.3433
  872YOPE   C4A11942   3.650   9.725   7.754 -0.1955 -0.0640  0.0041
  872YOPE   C1B11943   3.268   9.819   6.866 -0.3717  0.0845 -0.0756
  872YOPE   C2B11944   3.429   9.952   7.298 -0.2164  0.0145 -0.2080
  872YOPE   D3B11945   3.532  10.233   7.631  0.0003  0.4314 -0.0621
  872YOPE   C4B11946   3.831  10.547   7.811 -0.2241 -0.0879  0.0905
  873YOPE   NH311947   7.938   2.211   5.618  0.1693 -0.0338  0.1633
  873YOPE   PO411948   8.413   2.124   5.583  0.2443 -0.3469 -0.1212
  873YOPE   GL111949   8.216   2.135   6.062 -0.1624 -0.2117 -0.1291
  873YOPE   GL211950   8.410   2.342   6.323  0.0328  0.2852  0.2446
  873YOPE   C1A11951   7.822   2.194   6.322 -0.3089  0.0104 -0.0359
  873YOPE   D2A11952   7.411   2.154   6.490 -0.0232  0.1978  0.0357
  873YOPE   C3A11953   7.475   1.760   6.498  0.0614 -0.1240  0.0283
  873YOPE   C4A11954   7.413   1.566   6.958  0.0943 -0.1474 -0.1165
  873YOPE   C1B11955   8.268   1.879   6.470 -0.1507  0.0042  0.0525
  873YOPE   C2B11956   8.351   1.694   6.847  0.4957  0.0517 -0.1336
  873YOPE   D3B11957   8.419   1.506   7.291  0.1084 -0.2269 -0.2904
  873YOPE   C4B11958   8.295   1.496   7.808 -0.1650  0.0141 -0.0587
  874YOPE   NH311959  17.942  12.180   5.323 -0.2133 -0.4374  0.0792
  874YOPE   PO411960  18.133  11.788   5.500 -0.2711 -0.0653  0.0692
  874YOPE   GL111961  18.539  11.541   5.715  0.2206  0.1126  0.1174
  874YOPE   GL211962  18.806  11.619   5.892  0.2862  0.0912 -0.0168
  874YOPE   C1A11963  18.367  11.372   6.078 -0.0812 -0.2078  0.2266
  874YOPE   D2A11964  18.316  11.424   6.507 -0.0026 -0.0027 -0.0336
  874YOPE   C3A11965  18.467  11.144   6.799 -0.0573 -0.2221  0.1038
  874YOPE   C4A11966  18.532  11.322   7.164 -0.1878 -0.1868 -0.1301
  874YOPE   C1B11967  18.597  11.826   6.245  0.2550  0.0677 -0.4196
  874YOPE   C2B11968  18.315  11.965   6.566  0.1554  0.0111 -0.0025
  874YOPE   D3B11969  18.469  12.050   6.988 -0.0282  0.3867 -0.0642
  874YOPE   C4B11970  18.318  12.024   7.460 -0.2237  0.4760  0.0799
  875YOPE   NH311971  13.083  13.783   5.119 -0.0322 -0.2453  0.1948
  875YOPE   PO411972  13.218  14.267   5.170 -0.1125  0.0616 -0.3063
  875YOPE   GL111973  13.352  14.224   5.615  0.0476  0.0034  0.0617
  875YOPE   GL211974  13.267  14.447   5.845 -0.2648  0.2118 -0.2192
  875YOPE   C1A11975  13.698  14.228   6.037  0.0170  0.1477 -0.2176
  875YOPE   D2A11976  13.997  14.420   6.355 -0.0541  0.0190 -0.0776
  875YOPE   C3A11977  14.059  14.431   6.790 -0.0232  0.0018  0.2082
  875YOPE   C4A11978  13.828  14.149   7.053  0.2033  0.2839  0.2289
  875YOPE   C1B11979  13.231  14.822   6.183  0.0962 -0.0043  0.1220
  875YOPE   C2B11980  13.299  14.904   6.592 -0.0652  0.2924 -0.2199
  875YOPE   D3B11981  13.170  14.786   7.091 -0.0679 -0.0078  0.0396
  875YOPE   C4B11982  13.036  14.752   7.569 -0.0752 -0.2669 -0.1034
  876YOPE   NH311983  14.001   7.297   5.723 -0.0815  0.2670 -0.0626
  876YOPE   PO411984  13.579   7.575   5.790 -0.1401  0.3625  0.0257
  876YOPE   GL111985  13.861   7.690   6.079 -0.1311  0.2991  0.3665
  876YOPE   GL211986  13.760   7.297   6.210  0.1875  0.1679 -0.1963
  876YOPE   C1A11987  13.980   7.728   6.425  0.2926 -0.3179  0.2147
  876YOPE   D2A11988  13.863   7.851   6.853  0.2286  0.0608  0.0032
  876YOPE   C3A11989  13.996   7.865   7.304  0.0013 -0.0675 -0.1457
  876YOPE   C4A11990  14.241   7.958   7.683  0.0296  0.0410  0.0147
  876YOPE   C1B11991  13.697   7.405   6.638  0.3242 -0.1532  0.1549
  876YOPE   C2B11992  13.535   7.413   7.044 -0.2800  0.2267  0.0267
  876YOPE   D3B11993  13.521   7.581   7.403 -0.1064 -0.1742 -0.4656
  876YOPE   C4B11994  13.215   7.625   7.746  0.0756 -0.2824  0.0151
  877YOPE   NH311995   1.945  17.719   5.844 -0.2027 -0.0608  0.3789
  877YOPE   PO411996   1.780  17.401   6.159  0.0060  0.0932  0.0053
  877YOPE   GL111997   1.909  17.376   6.431  0.1536 -0.0976  0.0505
  877YOPE   GL211998   2.187  17.230   6.590  0.0636 -0.2761 -0.1398
  877YOPE   C1A11999   1.888  17.639   6.734 -0.0844  0.0927 -0.0409
  877YOPE   D2A12000   1.997  17.688   7.241 -0.2397 -0.4627  0.0157
  877YOPE   C3A12001   2.405  17.861   7.290  0.0861 -0.2585  0.5122
  877YOPE   C4A12002   2.790  17.789   7.298  0.0115 -0.2475 -0.0673
  877YOPE   C1B12003   2.086  17.242   7.052 -0.1410  0.0015 -0.1648
  877YOPE   C2B12004   2.225  17.254   7.422  0.1481 -0.2220  0.1568
  877YOPE   D3B12005   2.468  17.601   7.669 -0.1513 -0.0779 -0.1993
  877YOPE   C4B12006   2.854  17.609   7.737  0.0462 -0.0789  0.0679
  878YOPE   NH312007   1.801   7.953   5.944  0.0220 -0.1863  0.1940
  878YOPE   PO412008   1.555   7.695   5.864  0.0034 -0.0131  0.0424
  878YOPE   GL112009   1.381   7.596   6.235 -0.1254  0.0164 -0.1475
  878YOPE   GL212010   1.566   7.852   6.376  0.1409  0.1438 -0.2473
  878YOPE   C1A12011   1.396   7.347   6.625 -0.1622  0.2036  0.1347
  878YOPE   D2A12012   1.322   7.073   6.972  0.1415  0.0313 -0.0642
  878YOPE   C3A12013   1.548   7.144   7.297 -0.2193  0.1780  0.1349
  878YOPE   C4A12014   1.585   7.269   7.694 -0.0627  0.0966 -0.2365
  878YOPE   C1B12015   1.403   7.797   6.894  0.2966 -0.0326 -0.0731
  878YOPE   C2B12016   1.442   7.659   7.251  0.0815  0.2169 -0.3811
  878YOPE   D3B12017   1.561   7.812   7.655  0.1944  0.2567  0.0122
  878YOPE   C4B12018   1.441   7.580   8.076 -0.2097 -0.2749 -0.0302
  879YOPE   NH312019  15.212  10.785   5.668  0.3482 -0.0669  0.1314
  879YOPE   PO412020  15.082  10.460   5.824 -0.1202 -0.0056 -0.0961
  879YOPE   GL112021  15.292  10.657   6.166 -0.3262 -0.1716  0.0792
  879YOPE   GL212022  15.513  10.925   6.008  0.4148 -0.1065 -0.1872
  879YOPE   C1A12023  15.212  10.812   6.554 -0.0093 -0.2387  0.1673
  879YOPE   D2A12024  15.312  10.793   6.963 -0.5173  0.0989  0.0268
  879YOPE   C3A12025  15.196  10.797   7.400 -0.2058  0.0015  0.4068
  879YOPE   C4A12026  15.054  10.782   7.811 -0.0519 -0.1609  0.1816
  879YOPE   C1B12027  15.141  11.164   6.241  0.1210 -0.0363  0.0631
  879YOPE   C2B12028  14.863  11.481   6.216 -0.3130  0.4730  0.0007
  879YOPE   D3B12029  14.448  11.732   6.376 -0.3317  0.1154  0.0508
  879YOPE   C4B12030  14.092  11.818   6.579 -0.0664  0.0491 -0.0549
  880YOPE   NH312031   9.410   1.171   6.068 -0.0761  0.3151  0.0913
  880YOPE   PO412032   9.115   0.873   6.271 -0.1273 -0.2615 -0.1266
  880YOPE   GL112033   9.049   0.849   6.730 -0.1714  0.1036 -0.1489
  880YOPE   GL212034   8.814   1.160   6.773 -0.2676 -0.2746 -0.0167
  880YOPE   C1A12035   9.045   0.764   7.128  0.0685  0.2185 -0.0605
  880YOPE   D2A12036   9.037   0.816   7.594  0.0416  0.2222 -0.1480
  880YOPE   C3A12037   9.354   0.893   7.828 -0.1220 -0.2441  0.3606
  880YOPE   C4A12038   9.469   0.670   8.094  0.1550 -0.2462  0.1302
  880YOPE   C1B12039   8.752   1.164   7.119 -0.2921 -0.2410 -0.1030
  880YOPE   C2B12040   8.680   1.182   7.544  0.2110  0.2779 -0.0320
  880YOPE   D3B12041   8.531   0.959   7.872 -0.0502 -0.1334 -0.0632
  880YOPE   C4B12042   8.581   1.175   8.286 -0.1450  0.0953 -0.3669
  881YOPE   NH312043   8.992   6.104   5.629  0.1796  0.0634 -0.0150
  881YOPE   PO412044   8.529   5.963   5.465  0.0401 -0.0538 -0.0413
  881YOPE   GL112045   8.424   5.711   5.848  0.0395 -0.2263  0.0366
  881YOPE   GL212046   8.611   5.999   5.970 -0.0346  0.2364 -0.1245
  881YOPE   C1A12047   8.299   5.302   5.987 -0.1282 -0.1281  0.0820
  881YOPE   D2A12048   7.954   5.121   6.216  0.0919 -0.4636 -0.0666
  881YOPE   C3A12049   7.778   5.250   6.578  0.1159  0.0186 -0.1171
  881YOPE   C4A12050   7.883   5.409   6.882  0.4522 -0.0782 -0.1057
  881YOPE   C1B12051   8.396   6.116   6.363 -0.0946 -0.0928 -0.0582
  881YOPE   C2B12052   8.198   6.130   6.743  0.0278 -0.2700  0.2009
  881YOPE   D3B12053   8.414   6.150   7.071 -0.1925  0.0875 -0.3138
  881YOPE   C4B12054   8.702   6.137   7.423  0.0156  0.0956 -0.0002
  882YOPE   NH312055   2.850   7.906   6.012 -0.0031  0.0985  0.1850
  882YOPE   PO412056   3.167   8.198   5.975 -0.2857 -0.0923  0.3257
  882YOPE   GL112057   3.328   8.101   6.452 -0.2752 -0.2203 -0.4039
  882YOPE   GL212058   2.957   7.889   6.475  0.0805  0.0172 -0.0898
  882YOPE   C1A12059   3.271   8.494   6.757 -0.5025  0.3080 -0.1767
  882YOPE   D2A12060   3.072   8.476   7.139 -0.0808  0.2212 -0.0109
  882YOPE   C3A12061   3.326   8.634   7.571  0.2598 -0.0976 -0.2797
  882YOPE   C4A12062   3.114   8.649   7.917  0.1587  0.0262 -0.1107
  882YOPE   C1B12063   3.037   8.044   6.880  0.0050  0.2822  0.0879
  882YOPE   C2B12064   2.790   8.056   7.321  0.2384  0.2783 -0.4505
  882YOPE   D3B12065   2.457   8.104   7.567 -0.2535 -0.1549  0.1000
  882YOPE   C4B12066   2.305   7.971   7.921 -0.0198  0.1755  0.1050
  883YOPE   NH312067   4.161   3.588   6.093 -0.0181  0.1811 -0.0360
  883YOPE   PO412068   4.250   3.200   5.804 -0.0787  0.3218  0.0099
  883YOPE   GL112069   4.351   3.070   6.239 -0.0919  0.2495  0.1054
  883YOPE   GL212070   4.092   3.015   6.490 -0.0057  0.2077  0.1092
  883YOPE   C1A12071   4.545   3.174   6.597  0.2639 -0.2406 -0.0376
  883YOPE   D2A12072   4.870   3.282   6.824  0.1697 -0.2711 -0.0976
  883YOPE   C3A12073   4.752   3.316   7.283 -0.3040  0.2441  0.0771
  883YOPE   C4A12074   4.791   3.391   7.727  0.1239 -0.2580 -0.0080
  883YOPE   C1B12075   4.013   2.773   6.800 -0.1059  0.0646 -0.3054
  883YOPE   C2B12076   4.289   2.404   6.949 -0.2880 -0.0465  0.0647
  883YOPE   D3B12077   4.539   2.444   7.283  0.2493  0.0651 -0.1764
  883YOPE   C4B12078   4.394   2.390   7.662  0.3222 -0.1508 -0.4165
  884YOPE   NH312079  11.763  16.933   6.330  0.1038  0.1782 -0.1097
  884YOPE   PO412080  12.035  16.611   6.259 -0.1856 -0.0610  0.1494
  884YOPE   GL112081  12.352  16.353   6.459  0.0660 -0.0114 -0.1931
  884YOPE   GL212082  12.629  16.427   6.526  0.0499  0.1642 -0.1831
  884YOPE   C1A12083  12.370  16.034   6.779  0.3210 -0.0682 -0.1139
  884YOPE   D2A12084  12.412  15.708   6.934 -0.2612  0.0445 -0.0054
  884YOPE   C3A12085  12.621  15.585   7.323  0.3051  0.0311 -0.0844
  884YOPE   C4A12086  12.794  15.590   7.699 -0.0036 -0.0612  0.1341
  884YOPE   C1B12087  12.730  16.334   6.990 -0.3029 -0.4359 -0.1216
  884YOPE   C2B12088  12.895  16.122   7.359 -0.0927  0.1345 -0.0349
  884YOPE   D3B12089  13.193  16.326   7.743 -0.1147 -0.1143 -0.1488
  884YOPE   C4B12090  13.443  16.751   7.877 -0.0733 -0.0149 -0.0460
  885YOPE   NH312091   0.783   8.729   5.820 -0.0398 -0.1603  0.0590
  885YOPE   PO412092   0.970   9.042   5.890  0.1556  0.0085  0.1530
  885YOPE   GL112093   0.746   9.248   6.269  0.1214  0.1110 -0.2546
  885YOPE   GL212094   0.670   8.847   6.274 -0.3356 -0.0416 -0.2108
  885YOPE   C1A12095   0.669   9.182   6.665  0.0625  0.2316  0.0888
  885YOPE   D2A12096   0.698   9.203   7.046 -0.2469  0.1320  0.0904
  885YOPE   C3A12097   0.310   9.344   7.428 -0.1164  0.3410  0.0862
  885YOPE   C4A12098   0.003   9.411   7.684 -0.0075  0.1284 -0.1691
  885YOPE   C1B12099   0.437   8.780   6.582 -0.0275  0.0990  0.0943
  885YOPE   C2B12100   0.427   8.568   6.856 -0.2434 -0.3056 -0.3600
  885YOPE   D3B12101   0.308   8.412   7.314 -0.2983  0.0821  0.0911
  885YOPE   C4B12102   0.151   8.138   7.766  0.1206 -0.2465 -0.1831
  886YOPE   NH312103  18.307  15.223   5.290  0.0920  0.1836  0.1420
  886YOPE   PO412104  18.131  15.286   5.722  0.0800  0.0749  0.0001
  886YOPE   GL112105  17.809  15.190   6.022  0.0557  0.1124 -0.0267
  886YOPE   GL212106  17.534  15.278   5.911 -0.1307  0.0654  0.3810
  886YOPE   C1A12107  17.852  15.006   6.473 -0.0273  0.0745 -0.0511
  886YOPE   D2A12108  17.886  15.178   6.879 -0.2151 -0.0343 -0.1836
  886YOPE   C3A12109  17.558  15.081   7.202 -0.0530 -0.3328  0.0793
  886YOPE   C4A12110  17.458  14.842   7.487  0.3740 -0.1323 -0.0519
  886YOPE   C1B12111  17.297  15.078   6.186  0.3463  0.2179 -0.0820
  886YOPE   C2B12112  17.264  15.047   6.578 -0.2895  0.1253  0.0201
  886YOPE   D3B12113  17.099  15.101   6.956  0.1943  0.1362 -0.3685
  886YOPE   C4B12114  16.959  14.764   7.401 -0.2732  0.0834  0.1123
  887YOPE   NH312115   4.909  12.289   5.803 -0.2790 -0.3868 -0.1557
  887YOPE   PO412116   5.194  12.008   5.884 -0.0059 -0.1974  0.2600
  887YOPE   GL112117   5.197  11.873   6.180  0.0431 -0.0205  0.1844
  887YOPE   GL212118   4.920  11.837   6.300 -0.1530 -0.1470 -0.1273
  887YOPE   C1A12119   5.321  11.744   6.617 -0.1076  0.0329  0.1810
  887YOPE   D2A12120   5.466  11.688   7.022  0.0015  0.0044 -0.1136
  887YOPE   C3A12121   5.639  12.080   7.308  0.0331  0.2619 -0.3163
  887YOPE   C4A12122   5.993  12.149   7.631  0.4616  0.0180 -0.1141
  887YOPE   C1B12123   4.871  11.811   6.728 -0.0281 -0.0627 -0.0578
  887YOPE   C2B12124   5.072  11.954   7.191  0.2814  0.4070  0.3733
  887YOPE   D3B12125   5.248  12.037   7.586 -0.0485  0.2706  0.0243
  887YOPE   C4B12126   5.466  12.309   7.781  0.0921  0.1317 -0.0017
  888YOPE   NH312127  14.513  12.603   5.591 -0.0196  0.2826  0.0294
  888YOPE   PO412128  14.815  13.005   5.494 -0.1669 -0.0942  0.3161
  888YOPE   GL112129  14.783  13.038   5.784  0.1552  0.0188  0.1164
  888YOPE   GL212130  14.856  12.673   5.920 -0.0975 -0.2552 -0.2842
  888YOPE   C1A12131  14.908  13.216   6.135  0.0553 -0.2818 -0.0807
  888YOPE   D2A12132  14.950  13.408   6.454  0.2176  0.0307 -0.0438
  888YOPE   C3A12133  14.935  13.311   6.860  0.0121 -0.2670  0.2166
  888YOPE   C4A12134  14.860  13.500   7.199  0.2046 -0.2611 -0.1747
  888YOPE   C1B12135  14.904  12.508   6.335 -0.0550  0.2148  0.1868
  888YOPE   C2B12136  14.959  12.446   6.706  0.4798 -0.0803 -0.0224
  888YOPE   D3B12137  14.896  12.072   6.961  0.0225 -0.3441  0.1330
  888YOPE   C4B12138  14.506  11.803   6.890  0.0784  0.0091  0.2670
  889YOPE   NH312139   1.253   2.059   5.824 -0.0319  0.1398 -0.3908
  889YOPE   PO412140   1.077   1.686   5.849 -0.2307 -0.0413 -0.1986
  889YOPE   GL112141   1.024   1.752   6.265 -0.4009 -0.1759 -0.2791
  889YOPE   GL212142   1.283   1.652   6.390 -0.0848 -0.0131 -0.0870
  889YOPE   C1A12143   1.054   2.020   6.693  0.2768 -0.0187  0.0692
  889YOPE   D2A12144   1.192   1.878   7.169 -0.0762  0.0711 -0.0353
  889YOPE   C3A12145   1.356   2.180   7.553  0.4437 -0.0182 -0.1242
  889YOPE   C4A12146   1.506   2.467   7.942 -0.1787  0.0898 -0.0634
  889YOPE   C1B12147   1.509   1.752   6.736  0.1280  0.2889  0.0836
  889YOPE   C2B12148   1.608   1.572   7.148 -0.1576 -0.1889 -0.1912
  889YOPE   D3B12149   1.642   1.680   7.573  0.0733 -0.1158 -0.0944
  889YOPE   C4B12150   1.838   1.895   7.914 -0.2291  0.0133  0.0373
  890YOPE   NH312151  17.782   4.257   5.904  0.2540 -0.2146  0.1444
  890YOPE   PO412152  17.740   3.929   6.154 -0.0617 -0.1997 -0.2376
  890YOPE   GL112153  17.721   3.710   6.515 -0.2488 -0.0916  0.1102
  890YOPE   GL212154  17.490   3.592   6.446 -0.1082 -0.1219 -0.0428
  890YOPE   C1A12155  18.067   3.485   6.778  0.0388  0.1804 -0.2249
  890YOPE   D2A12156  18.149   3.497   7.193 -0.0875  0.0039 -0.0719
  890YOPE   C3A12157  17.841   3.494   7.572  0.0802 -0.0182  0.2725
  890YOPE   C4A12158  17.656   3.125   7.830  0.4071  0.0606 -0.1529
  890YOPE   C1B12159  17.415   3.798   6.837 -0.0626  0.2808  0.0062
  890YOPE   C2B12160  17.517   3.731   7.288  0.3047 -0.1612  0.3933
  890YOPE   D3B12161  17.171   3.875   7.416 -0.0331 -0.0014 -0.3288
  890YOPE   C4B12162  16.940   4.063   7.703  0.1553 -0.0262  0.0807
  891YOPE   NH312163   6.503   7.399   5.497 -0.1181  0.1171 -0.1756
  891YOPE   PO412164   6.855   7.540   5.382 -0.2783 -0.0404 -0.0212
  891YOPE   GL112165   6.987   7.426   5.769 -0.3111  0.0520 -0.3112
  891YOPE   GL212166   6.772   7.446   5.967  0.0993  0.0736  0.1570
  891YOPE   C1A12167   7.367   7.363   6.074  0.1678 -0.3304  0.0837
  891YOPE   D2A12168   7.380   7.214   6.499  0.2376  0.0841  0.1690
  891YOPE   C3A12169   7.615   7.318   6.799  0.0456  0.0094  0.0073
  891YOPE   C4A12170   7.600   7.086   7.150 -0.0837  0.2431  0.0775
  891YOPE   C1B12171   6.967   7.074   6.261 -0.0551  0.0596  0.0595
  891YOPE   C2B12172   7.077   6.833   6.376 -0.1564  0.1574 -0.0640
  891YOPE   D3B12173   7.326   6.529   6.284  0.0869  0.2988  0.0903
  891YOPE   C4B12174   7.290   6.159   6.157  0.0738 -0.1803 -0.0541
  892YOPE   NH312175  12.060  15.978   5.563  0.0801 -0.0448 -0.0606
  892YOPE   PO412176  11.775  15.699   5.544 -0.0972  0.1524 -0.0413
  892YOPE   GL112177  11.534  15.447   5.784 -0.0370  0.1559  0.2236
  892YOPE   GL212178  11.450  15.568   6.063 -0.3726 -0.0469  0.0597
  892YOPE   C1A12179  11.516  15.019   5.973  0.0310 -0.2711 -0.2026
  892YOPE   D2A12180  11.719  14.514   6.075 -0.2874  0.0743  0.0967
  892YOPE   C3A12181  12.015  14.392   6.540  0.2609 -0.1010  0.0752
  892YOPE   C4A12182  12.013  14.102   6.829 -0.0091 -0.1438 -0.1183
  892YOPE   C1B12183  11.445  15.355   6.468  0.2576 -0.0026  0.1956
  892YOPE   C2B12184  11.535  15.458   6.890 -0.2161 -0.0004  0.0224
  892YOPE   D3B12185  11.506  15.347   7.157  0.2227  0.1516 -0.1272
  892YOPE   C4B12186  11.557  15.329   7.626 -0.1028 -0.2175 -0.0760
  893YOPE   NH312187   3.597  12.132   5.312 -0.1172 -0.0689 -0.1238
  893YOPE   PO412188   3.698  12.483   5.473  0.0831  0.1354  0.0727
  893YOPE   GL112189   3.440  12.347   5.824 -0.1963  0.4303  0.0563
  893YOPE   GL212190   3.454  12.023   5.828 -0.2197 -0.4776 -0.2244
  893YOPE   C1A12191   3.559  12.461   6.328  0.2871 -0.2283  0.0075
  893YOPE   D2A12192   3.688  12.489   6.718 -0.0208  0.2629  0.0235
  893YOPE   C3A12193   3.908  12.550   7.015 -0.1862  0.3056 -0.0437
  893YOPE   C4A12194   3.839  12.499   7.404 -0.1331 -0.2599 -0.0984
  893YOPE   C1B12195   3.241  12.032   6.245  0.1464 -0.2182  0.0569
  893YOPE   C2B12196   3.015  12.079   6.632  0.2252 -0.4284  0.0185
  893YOPE   D3B12197   3.018  11.931   7.102 -0.2045  0.0351  0.1762
  893YOPE   C4B12198   3.271  11.984   7.473 -0.0130  0.1437 -0.2320
  894YOPE   NH312199   1.525  13.737   5.190  0.0511 -0.2704 -0.1499
  894YOPE   PO412200   1.708  13.632   5.558 -0.1692 -0.2314 -0.0869
  894YOPE   GL112201   1.651  13.845   5.891 -0.0164 -0.0065  0.3600
  894YOPE   GL212202   1.369  13.745   6.036  0.1655 -0.2872  0.1936
  894YOPE   C1A12203   1.841  13.946   6.298  0.0920  0.0185  0.1793
  894YOPE   D2A12204   2.177  14.236   6.487 -0.1285  0.2749  0.4173
  894YOPE   C3A12205   2.521  14.049   6.696  0.3109  0.1031  0.1585
  894YOPE   C4A12206   2.854  14.289   6.813  0.0081  0.1203  0.2152
  894YOPE   C1B12207   1.290  13.599   6.432 -0.0132  0.0780  0.0847
  894YOPE   C2B12208   1.247  13.621   6.889  0.1079  0.1222  0.1325
  894YOPE   D3B12209   1.309  13.565   7.309  0.0065  0.0442  0.2157
  894YOPE   C4B12210   1.549  13.459   7.633  0.1126 -0.1007 -0.0517
  895YOPE   NH312211  18.337   3.423   5.479  0.0621 -0.5345  0.3306
  895YOPE   PO412212  18.289   3.279   5.932 -0.0384 -0.1956  0.3033
  895YOPE   GL112213  18.293   3.104   6.354  0.0143  0.2024  0.1031
  895YOPE   GL212214  18.508   2.964   6.398 -0.2516  0.2328 -0.3191
  895YOPE   C1A12215  18.145   2.983   6.849 -0.2480  0.0473 -0.0779
  895YOPE   D2A12216  17.895   2.985   7.280  0.0271  0.1342 -0.2233
  895YOPE   C3A12217  17.545   2.704   7.547  0.0305 -0.4817 -0.1037
  895YOPE   C4A12218  17.276   2.613   7.804 -0.0037  0.0495 -0.1278
  895YOPE   C1B12219  18.572   2.598   6.643 -0.0287 -0.0685  0.0171
  895YOPE   C2B12220  18.625   2.398   7.060 -0.1062 -0.0462 -0.0303
  895YOPE   D3B12221  18.686   2.332   7.495  0.2130 -0.0407  0.1335
  895YOPE   C4B12222  18.781   2.394   7.902  0.0637 -0.0972 -0.2686
  896YOPE   NH312223  10.472   6.471   5.668 -0.0426  0.0754  0.1471
  896YOPE   PO412224  10.828   6.744   5.693 -0.1598 -0.2138  0.2784
  896YOPE   GL112225  10.814   6.486   6.075 -0.0410 -0.0109 -0.2201
  896YOPE   GL212226  10.727   6.153   6.235  0.1428 -0.1603 -0.0077
  896YOPE   C1A12227  10.567   6.575   6.476 -0.0605  0.0305  0.2193
  896YOPE   D2A12228  10.634   6.745   6.842 -0.3514  0.1938 -0.1653
  896YOPE   C3A12229  10.632   6.546   7.214  0.1609  0.0127 -0.0852
  896YOPE   C4A12230  10.764   6.353   7.533  0.1198  0.0029  0.1248
  896YOPE   C1B12231  11.118   6.056   6.245  0.1298  0.2467 -0.0866
  896YOPE   C2B12232  11.271   5.888   6.541  0.1050 -0.0983 -0.0159
  896YOPE   D3B12233  11.418   6.161   6.807 -0.4110 -0.2614 -0.0360
  896YOPE   C4B12234  11.426   6.610   6.913  0.0281 -0.0096  0.0286
  897YOPE   NH312235   7.363   8.975   5.268  0.0740  0.1707  0.0743
  897YOPE   PO412236   7.599   9.117   5.611  0.0885 -0.2494  0.1664
  897YOPE   GL112237   7.423   9.265   5.996 -0.0917  0.2559 -0.4863
  897YOPE   GL212238   7.147   9.119   6.170 -0.1518 -0.0078  0.0913
  897YOPE   C1A12239   7.469   9.586   6.366 -0.0914 -0.0048  0.2011
  897YOPE   D2A12240   7.786   9.704   6.730  0.1094  0.0185 -0.1752
  897YOPE   C3A12241   8.081   9.641   7.024 -0.1055  0.0132  0.3653
  897YOPE   C4A12242   8.476   9.751   7.319 -0.1359 -0.0325  0.2931
  897YOPE   C1B12243   7.283   9.167   6.572  0.3042  0.1825 -0.0835
  897YOPE   C2B12244   7.250   9.495   6.958 -0.1539 -0.0631 -0.0460
  897YOPE   D3B12245   7.116   9.607   7.318  0.1017 -0.4200  0.1360
  897YOPE   C4B12246   7.260   9.952   7.568  0.1211  0.2525 -0.0490
  898YOPE   NH312247  16.238  13.431   5.697 -0.1482  0.1181  0.0234
  898YOPE   PO412248  15.724  13.336   5.715  0.1533 -0.0990 -0.3110
  898YOPE   GL112249  15.831  13.680   6.074 -0.0440  0.0788  0.2395
  898YOPE   GL212250  16.124  13.777   6.074  0.0839  0.0339  0.1027
  898YOPE   C1A12251  15.856  13.802   6.486  0.1808 -0.0366  0.2448
  898YOPE   D2A12252  15.741  13.800   6.845 -0.1364 -0.3121  0.0454
  898YOPE   C3A12253  15.916  14.024   7.184 -0.4193 -0.1056  0.0787
  898YOPE   C4A12254  15.995  14.372   7.396  0.0361 -0.2251  0.3262
  898YOPE   C1B12255  16.357  13.929   6.427  0.2020  0.2407 -0.2652
  898YOPE   C2B12256  16.531  13.866   6.875  0.0585  0.1749 -0.2420
  898YOPE   D3B12257  16.395  14.082   7.214  0.2771  0.2066  0.0663
  898YOPE   C4B12258  16.519  14.137   7.657  0.1588 -0.2888  0.1679
  899YOPE   NH312259  15.378  14.395   5.672 -0.1830  0.1979  0.3040
  899YOPE   PO412260  15.055  14.055   5.736  0.0677  0.0346  0.0177
  899YOPE   GL112261  15.066  13.930   6.150  0.0993  0.1152 -0.5591
  899YOPE   GL212262  14.826  13.858   6.280 -0.0965  0.0891  0.2173
  899YOPE   C1A12263  15.348  13.736   6.432 -0.0676 -0.1566 -0.0325
  899YOPE   D2A12264  15.227  13.678   6.867 -0.1143  0.1093  0.0989
  899YOPE   C3A12265  15.403  13.672   7.232 -0.0519  0.2596  0.2792
  899YOPE   C4A12266  15.303  13.391   7.524  0.1680 -0.1631 -0.2192
  899YOPE   C1B12267  14.864  13.916   6.700 -0.1886 -0.0876  0.1149
  899YOPE   C2B12268  14.871  14.002   7.104 -0.0714 -0.3895  0.1542
  899YOPE   D3B12269  15.072  13.885   7.482  0.0428 -0.1448  0.3163
  899YOPE   C4B12270  14.956  14.093   7.828 -0.3238  0.2642 -0.0032
  900YOPE   NH312271   9.400   3.951   6.111 -0.0888  0.1045 -0.2110
  900YOPE   PO412272   9.733   3.655   5.934  0.3902 -0.3083 -0.2039
  900YOPE   GL112273   9.992   3.778   6.259 -0.2462 -0.0088  0.0614
  900YOPE   GL212274   9.724   3.721   6.455 -0.3349  0.0430 -0.1858
  900YOPE   C1A12275  10.217   3.853   6.604  0.0357  0.3653  0.0060
  900YOPE   D2A12276  10.233   3.850   7.011  0.1372  0.3981 -0.2301
  900YOPE   C3A12277   9.939   3.722   7.247  0.1028  0.1500 -0.1791
  900YOPE   C4A12278   9.764   3.871   7.655  0.0467 -0.1177  0.0781
  900YOPE   C1B12279   9.650   3.762   6.878  0.0160  0.1111 -0.1269
  900YOPE   C2B12280   9.445   3.530   7.199  0.0256 -0.1385 -0.1696
  900YOPE   D3B12281   9.338   3.511   7.552 -0.1927 -0.0671 -0.0794
  900YOPE   C4B12282   9.642   3.434   7.858  0.0622  0.2643  0.0437
  901YOPE   NH312283   4.303  16.671   6.143 -0.1517  0.0273 -0.0092
  901YOPE   PO412284   4.436  16.967   6.299  0.1831  0.0046  0.2272
  901YOPE   GL112285   4.508  17.117   6.694  0.1125 -0.2999 -0.1537
  901YOPE   GL212286   4.551  17.354   6.790  0.0884 -0.1202  0.0410
  901YOPE   C1A12287   4.442  16.863   7.111 -0.2409 -0.0189 -0.0557
  901YOPE   D2A12288   4.393  16.665   7.404  0.2092 -0.0281  0.1320
  901YOPE   C3A12289   4.408  16.732   7.861 -0.1289  0.2755 -0.0526
  901YOPE   C4A12290   4.611  16.675   8.301 -0.0312  0.0723  0.1982
  901YOPE   C1B12291   4.476  17.341   7.193 -0.0125 -0.1716  0.2244
  901YOPE   C2B12292   4.213  17.680   7.485  0.1784 -0.2024  0.2456
  901YOPE   D3B12293   4.050  18.008   7.809 -0.1236 -0.0942  0.0835
  901YOPE   C4B12294   3.768  18.054   8.177  0.0422  0.1364  0.0250
  902YOPE   NH312295   9.971  11.944   5.821 -0.3463  0.0570 -0.1950
  902YOPE   PO412296  10.182  11.492   5.798  0.4406  0.1499  0.3318
  902YOPE   GL112297  10.119  11.689   6.239 -0.1992 -0.3163 -0.2100
  902YOPE   GL212298  10.440  11.876   6.129  0.2546 -0.0447  0.2497
  902YOPE   C1A12299   9.771  11.649   6.526  0.1723 -0.1730  0.1635
  902YOPE   D2A12300   9.803  11.672   6.915 -0.1952 -0.0645 -0.0672
  902YOPE   C3A12301   9.532  11.768   7.204  0.0565  0.0429  0.0827
  902YOPE   C4A12302   9.306  11.519   7.342  0.0051  0.2089 -0.1549
  902YOPE   C1B12303  10.421  12.102   6.407  0.0267 -0.0615  0.2174
  902YOPE   C2B12304  10.748  12.021   6.697 -0.5486 -0.1764 -0.1796
  902YOPE   D3B12305  10.561  11.989   7.109  0.1696  0.1570  0.2751
  902YOPE   C4B12306  10.455  12.219   7.437 -0.1778 -0.1415  0.1334
  903YOPE   NH312307  10.759  16.299   6.024 -0.2625 -0.1455  0.0780
  903YOPE   PO412308  10.835  16.007   5.761 -0.1718 -0.0410 -0.0428
  903YOPE   GL112309  11.097  15.972   6.155  0.1578  0.1455 -0.0769
  903YOPE   GL212310  11.408  16.106   6.166  0.2211  0.0702 -0.3524
  903YOPE   C1A12311  11.195  15.811   6.576 -0.0894 -0.1615 -0.1916
  903YOPE   D2A12312  11.108  15.756   7.056  0.1259 -0.0161  0.1790
  903YOPE   C3A12313  11.230  15.597   7.432  0.0037 -0.2390  0.1755
  903YOPE   C4A12314  11.124  15.867   7.605  0.1657 -0.2005 -0.2888
  903YOPE   C1B12315  11.464  16.270   6.500  0.1088  0.0791 -0.2796
  903YOPE   C2B12316  11.443  16.152   6.993 -0.0288  0.1089 -0.0833
  903YOPE   D3B12317  11.440  16.194   7.414 -0.0276  0.1949  0.0408
  903YOPE   C4B12318  11.267  16.296   7.836 -0.3559 -0.1924  0.2049
  904YOPE   NH312319  15.777  12.841   5.717  0.1435 -0.0131  0.2357
  904YOPE   PO412320  16.159  12.996   5.922  0.1578  0.0387 -0.0103
  904YOPE   GL112321  16.555  13.196   6.154  0.2412 -0.2115  0.1075
  904YOPE   GL212322  16.426  13.433   6.224  0.3338  0.1289  0.0192
  904YOPE   C1A12323  16.604  13.170   6.621 -0.1435  0.0361 -0.1809
  904YOPE   D2A12324  16.601  13.368   6.980 -0.0733 -0.1775 -0.0129
  904YOPE   C3A12325  16.770  13.179   7.258  0.0761 -0.2839  0.0160
  904YOPE   C4A12326  16.783  13.188   7.659  0.1284 -0.0981 -0.2287
  904YOPE   C1B12327  16.173  13.478   6.609  0.1089  0.1210 -0.2511
  904YOPE   C2B12328  16.161  13.597   7.025 -0.2563  0.0361  0.1578
  904YOPE   D3B12329  15.914  13.562   7.374  0.1377 -0.0775  0.2234
  904YOPE   C4B12330  15.681  13.641   7.694 -0.1594 -0.1069  0.2355
  905YOPE   NH312331   0.527  14.219   5.695  0.2284 -0.0913 -0.0598
  905YOPE   PO412332   0.536  14.646   5.611 -0.1380  0.0632  0.0176
  905YOPE   GL112333   0.734  14.690   6.027 -0.0572 -0.2886 -0.0661
  905YOPE   GL212334   0.810  14.405   6.111  0.0420  0.3344 -0.0267
  905YOPE   C1A12335   0.701  14.815   6.441 -0.0748 -0.2001 -0.0811
  905YOPE   D2A12336   0.520  15.051   6.771 -0.0974 -0.0311 -0.1071
  905YOPE   C3A12337   0.200  14.938   6.991 -0.0969 -0.0308 -0.3751
  905YOPE   C4A12338  -0.202  14.809   6.835 -0.0052  0.0496 -0.1544
  905YOPE   C1B12339   1.063  14.470   6.417 -0.3228  0.0497  0.1278
  905YOPE   C2B12340   1.351  14.376   6.842  0.2460  0.1459  0.0697
  905YOPE   D3B12341   1.428  14.049   7.153  0.0269  0.1603 -0.1840
  905YOPE   C4B12342   1.724  13.804   7.326 -0.0230  0.3993  0.0310
  906YOPE   NH312343  16.384   5.059   5.858  0.0219 -0.0839 -0.1630
  906YOPE   PO412344  16.700   5.420   5.886 -0.0359  0.0831  0.2213
  906YOPE   GL112345  16.690   5.232   6.258 -0.0455 -0.3029  0.2527
  906YOPE   GL212346  16.403   5.003   6.365  0.0090  0.0408 -0.0091
  906YOPE   C1A12347  16.992   5.196   6.563  0.0053 -0.1287  0.1063
  906YOPE   D2A12348  17.166   5.329   6.961 -0.1338  0.0467  0.1641
  906YOPE   C3A12349  17.396   5.635   7.034 -0.0234  0.4031 -0.1356
  906YOPE   C4A12350  17.336   6.051   7.068 -0.0804  0.0619  0.0269
  906YOPE   C1B12351  16.238   4.956   6.786  0.3601  0.1871  0.1063
  906YOPE   C2B12352  16.056   5.070   7.191 -0.2962 -0.1476  0.0610
  906YOPE   D3B12353  15.939   5.376   7.393  0.1056 -0.3351 -0.3138
  906YOPE   C4B12354  15.556   5.371   7.653 -0.0594  0.1528 -0.0376
  907YOPE   NH312355   7.211   6.796   5.328 -0.0691  0.1096 -0.0251
  907YOPE   PO412356   6.845   7.000   5.568 -0.0224  0.1047 -0.0826
  907YOPE   GL112357   6.511   6.980   5.947 -0.3583 -0.0243 -0.2208
  907YOPE   GL212358   6.391   6.696   5.860  0.0918 -0.5909  0.0501
  907YOPE   C1A12359   6.580   6.855   6.457  0.1576 -0.1256 -0.1274
  907YOPE   D2A12360   6.443   6.794   6.896 -0.5528 -0.0672  0.2591
  907YOPE   C3A12361   6.548   6.876   7.210 -0.2346 -0.3208 -0.1182
  907YOPE   C4A12362   6.558   6.962   7.621 -0.0352  0.2551 -0.0400
  907YOPE   C1B12363   6.278   6.480   6.278  0.0260 -0.1747  0.0120
  907YOPE   C2B12364   6.078   6.581   6.587  0.1331  0.0014  0.1660
  907YOPE   D3B12365   5.741   6.308   6.761 -0.3238  0.1423  0.3272
  907YOPE   C4B12366   5.708   6.090   7.177  0.0527  0.0728  0.0447
  908YOPE   NH312367   0.197   4.139   5.742  0.0068 -0.4299 -0.1496
  908YOPE   PO412368   0.552   4.087   5.699  0.0977  0.0468 -0.1242
  908YOPE   GL112369   0.750   3.874   6.039 -0.0238 -0.0708 -0.0105
  908YOPE   GL212370   0.968   3.640   6.158  0.2298  0.2081  0.1428
  908YOPE   C1A12371   0.942   4.104   6.433  0.1068 -0.1101  0.1654
  908YOPE   D2A12372   0.820   4.114   6.957  0.0957  0.2583 -0.0854
  908YOPE   C3A12373   0.891   3.780   7.315  0.0953  0.0075  0.2056
  908YOPE   C4A12374   0.725   3.646   7.683  0.1038 -0.2696 -0.4173
  908YOPE   C1B12375   1.095   3.626   6.582  0.2626  0.0717 -0.3687
  908YOPE   C2B12376   1.087   3.467   7.007  0.0685  0.0631  0.0639
  908YOPE   D3B12377   1.073   3.320   7.441 -0.0221 -0.1044 -0.0430
  908YOPE   C4B12378   1.004   3.317   7.917  0.0289  0.0973  0.1575
  909YOPE   NH312379  10.036   1.903   5.961  0.2073  0.1416  0.3270
  909YOPE   PO412380   9.656   2.169   5.864 -0.3329  0.0473  0.1576
  909YOPE   GL112381   9.768   2.362   6.247  0.1830  0.0502  0.2038
  909YOPE   GL212382   9.704   2.065   6.448  0.2958 -0.1590  0.0569
  909YOPE   C1A12383  10.024   2.363   6.710  0.1744  0.1709  0.0779
  909YOPE   D2A12384  10.063   2.319   7.129 -0.1196 -0.0358 -0.0337
  909YOPE   C3A12385  10.155   2.408   7.454  0.1026 -0.0811 -0.2289
  909YOPE   C4A12386  10.217   2.535   7.976 -0.4642 -0.0990  0.1298
  909YOPE   C1B12387   9.614   2.212   6.941 -0.0059  0.2955 -0.0914
  909YOPE   C2B12388   9.629   2.209   7.341 -0.2360  0.0800 -0.1323
  909YOPE   D3B12389   9.410   2.025   7.686  0.2194 -0.1943 -0.3398
  909YOPE   C4B12390   9.079   1.971   7.891  0.0227 -0.1515  0.2680
  910YOPE   NH312391  11.910  11.203   5.862 -0.0393  0.3137  0.0149
  910YOPE   PO412392  12.095  11.579   5.952  0.0232 -0.1246  0.0665
  910YOPE   GL112393  11.818  11.616   6.314 -0.1016  0.3062  0.3098
  910YOPE   GL212394  11.548  11.695   6.370  0.1175  0.1694  0.2218
  910YOPE   C1A12395  11.819  11.447   6.718  0.0758  0.1275  0.4146
  910YOPE   D2A12396  11.823  11.279   7.082  0.0358  0.2556 -0.2592
  910YOPE   C3A12397  11.764  11.344   7.444  0.1855 -0.2289 -0.0059
  910YOPE   C4A12398  11.714  11.640   7.634  0.0459 -0.1884 -0.0333
  910YOPE   C1B12399  11.218  11.741   6.672 -0.2837  0.1364 -0.0247
  910YOPE   C2B12400  11.019  11.864   7.137 -0.0228  0.4089  0.0414
  910YOPE   D3B12401  10.800  11.767   7.481  0.1909 -0.1738 -0.1570
  910YOPE   C4B12402  10.740  11.533   7.933 -0.1787  0.1919  0.2160
  911YOPE   NH312403   9.754   9.329   5.857  0.1186  0.0480 -0.2238
  911YOPE   PO412404  10.017   9.537   5.785 -0.0032  0.0662  0.2346
  911YOPE   GL112405  10.212   9.593   6.242 -0.0204  0.1538 -0.2516
  911YOPE   GL212406  10.024   9.368   6.302 -0.0509  0.1957  0.2010
  911YOPE   C1A12407  10.386   9.655   6.678  0.0356 -0.1192  0.0191
  911YOPE   D2A12408  10.644   9.896   6.893  0.1004  0.1073 -0.2728
  911YOPE   C3A12409  10.653   9.936   7.296  0.0215  0.1632 -0.0191
  911YOPE   C4A12410  10.369  10.064   7.505 -0.0650 -0.1004  0.0457
  911YOPE   C1B12411   9.869   9.099   6.567 -0.0326  0.2062 -0.3176
  911YOPE   C2B12412  10.011   9.234   6.913  0.0558 -0.2541  0.0022
  911YOPE   D3B12413  10.016   9.302   7.310 -0.1295 -0.1323  0.2542
  911YOPE   C4B12414  10.276   9.451   7.628 -0.3224  0.2133  0.1514
  912YOPE   NH312415  15.620   7.997   5.514  0.0291 -0.2674 -0.0374
  912YOPE   PO412416  15.835   8.329   5.644  0.1351  0.2312  0.0242
  912YOPE   GL112417  15.885   8.526   6.045  0.2474 -0.0232  0.0077
  912YOPE   GL212418  16.125   8.407   6.159 -0.1283  0.1543 -0.0749
  912YOPE   C1A12419  15.870   8.823   6.279  0.1571  0.1225  0.0984
  912YOPE   D2A12420  15.991   9.003   6.578  0.0164  0.2946 -0.0043
  912YOPE   C3A12421  16.296   9.287   6.549  0.0156 -0.0444 -0.2337
  912YOPE   C4A12422  16.355   9.658   6.710  0.1187  0.2173  0.1122
  912YOPE   C1B12423  16.090   8.464   6.561 -0.0448 -0.2059  0.0241
  912YOPE   C2B12424  16.071   8.436   7.009  0.0439 -0.2186  0.1457
  912YOPE   D3B12425  15.968   8.530   7.354 -0.0404  0.1185 -0.0899
  912YOPE   C4B12426  15.921   8.384   7.758  0.4331 -0.2018 -0.1286
  913YOPE   NH312427   0.899  11.964   5.549 -0.1150  0.1076  0.1142
  913YOPE   PO412428   1.045  11.525   5.426 -0.1653  0.0021  0.1683
  913YOPE   GL112429   0.890  11.480   5.806 -0.1919  0.0091  0.1058
  913YOPE   GL212430   0.632  11.264   5.784 -0.0550 -0.1886 -0.0047
  913YOPE   C1A12431   1.107  11.551   6.234  0.2127 -0.1099 -0.0045
  913YOPE   D2A12432   1.284  11.463   6.678  0.2875  0.3681 -0.2583
  913YOPE   C3A12433   1.195  11.573   7.075 -0.2732 -0.0396 -0.2023
  913YOPE   C4A12434   1.116  11.771   7.509  0.2141 -0.1905  0.0853
  913YOPE   C1B12435   0.916  11.061   6.134  0.2335  0.0611 -0.0579
  913YOPE   C2B12436   0.861  11.107   6.564 -0.1009  0.0195 -0.0311
  913YOPE   D3B12437   1.047  11.083   6.994 -0.0441 -0.2997 -0.2307
  913YOPE   C4B12438   1.125  10.913   7.372 -0.1123 -0.1654  0.1549
  914YOPE   NH312439   8.487   3.239   5.777  0.0433  0.2726  0.1304
  914YOPE   PO412440   8.708   3.702   5.792  0.0657 -0.3282 -0.3380
  914YOPE   GL112441   8.697   3.677   6.232 -0.0421  0.1571  0.1254
  914YOPE   GL212442   8.421   3.483   6.212 -0.1492  0.0590 -0.1111
  914YOPE   C1A12443   8.769   3.854   6.613 -0.0230 -0.1095  0.2621
  914YOPE   D2A12444   8.564   3.921   6.915  0.2162  0.0379  0.1467
  914YOPE   C3A12445   8.170   3.788   6.955  0.2683 -0.2594 -0.0633
  914YOPE   C4A12446   8.003   3.571   6.763  0.0215 -0.0040  0.1335
  914YOPE   C1B12447   8.294   3.880   6.423  0.4226  0.0864  0.0723
  914YOPE   C2B12448   8.011   4.176   6.608 -0.0189 -0.3904 -0.1206
  914YOPE   D3B12449   8.100   4.312   6.968  0.1973  0.0269  0.0702
  914YOPE   C4B12450   8.319   4.369   7.386 -0.1579  0.1752 -0.0089
  915YOPE   NH312451   2.094   3.172   5.832  0.1862  0.0812 -0.0987
  915YOPE   PO412452   2.460   3.368   5.785 -0.2118  0.0152  0.0683
  915YOPE   GL112453   2.451   3.369   6.191  0.2101 -0.1780  0.0759
  915YOPE   GL212454   2.176   3.534   6.262 -0.0276 -0.0076 -0.1927
  915YOPE   C1A12455   2.435   3.117   6.576 -0.1471  0.1849  0.1552
  915YOPE   D2A12456   2.336   3.046   6.989  0.1945  0.0748  0.1095
  915YOPE   C3A12457   2.413   3.127   7.196 -0.3038  0.1679 -0.0673
  915YOPE   C4A12458   2.466   2.961   7.568 -0.2358  0.1555  0.1192
  915YOPE   C1B12459   2.148   3.510   6.645 -0.0024 -0.0806  0.1969
  915YOPE   C2B12460   2.046   3.560   7.082 -0.0378  0.1210  0.0620
  915YOPE   D3B12461   1.981   3.284   7.431  0.0153 -0.3541 -0.1238
  915YOPE   C4B12462   2.042   3.181   7.861 -0.1808 -0.2200 -0.0388
  916YOPE   NH312463   6.050   8.351   5.598  0.1054  0.0806  0.3775
  916YOPE   PO412464   6.319   8.611   5.726 -0.2751  0.0505 -0.1671
  916YOPE   GL112465   6.700   8.589   6.013  0.1487 -0.1556  0.0818
  916YOPE   GL212466   6.929   8.754   5.905  0.2296  0.0412 -0.3509
  916YOPE   C1A12467   6.577   8.436   6.436 -0.1019  0.1034  0.1398
  916YOPE   D2A12468   6.277   8.667   6.679 -0.0918 -0.2514 -0.2550
  916YOPE   C3A12469   6.255   8.858   7.038  0.0225  0.0767  0.0936
  916YOPE   C4A12470   6.315   8.851   7.376  0.0173 -0.0220  0.0774
  916YOPE   C1B12471   6.941   8.733   6.401  0.1393 -0.3340  0.0978
  916YOPE   C2B12472   6.924   8.701   6.724  0.1280 -0.2074 -0.2035
  916YOPE   D3B12473   6.894   8.780   7.224  0.0592  0.1703 -0.1989
  916YOPE   C4B12474   6.775   8.954   7.605 -0.2993 -0.0556  0.2334
  917YOPE   NH312475  11.537   5.091   5.100  0.2875 -0.1033 -0.2450
  917YOPE   PO412476  11.805   5.281   5.452  0.1544  0.0913  0.2600
  917YOPE   GL112477  11.663   5.226   5.914  0.1988  0.0132  0.0451
  917YOPE   GL212478  11.660   5.454   6.048 -0.3264  0.0171 -0.0576
  917YOPE   C1A12479  11.426   4.979   6.279 -0.0854 -0.2612  0.2042
  917YOPE   D2A12480  11.181   4.925   6.582  0.1610 -0.2217  0.0059
  917YOPE   C3A12481  10.823   4.629   6.497  0.3989 -0.1118 -0.1553
  917YOPE   C4A12482  10.446   4.675   6.202 -0.1507 -0.2924  0.2127
  917YOPE   C1B12483  11.835   5.380   6.437  0.0922  0.1037  0.0390
  917YOPE   C2B12484  11.677   5.173   6.685 -0.1061  0.1800 -0.1092
  917YOPE   D3B12485  11.488   5.075   7.074  0.1111 -0.1431 -0.0564
  917YOPE   C4B12486  11.346   5.055   7.528  0.1175 -0.0969 -0.0257
  918YOPE   NH312487   1.062  13.615   5.626 -0.0665  0.1874  0.0118
  918YOPE   PO412488   0.944  13.902   5.888  0.0446 -0.0257 -0.0723
  918YOPE   GL112489   0.945  13.956   6.258 -0.5222  0.1499 -0.0927
  918YOPE   GL212490   0.774  13.690   6.469  0.0084 -0.0318 -0.1745
  918YOPE   C1A12491   1.010  14.074   6.726 -0.1360 -0.1124 -0.1571
  918YOPE   D2A12492   0.890  13.917   7.081 -0.1344 -0.0769  0.1213
  918YOPE   C3A12493   0.569  13.956   7.264 -0.1374  0.0945  0.2215
  918YOPE   C4A12494   0.450  13.980   7.604 -0.0215  0.0811  0.0736
  918YOPE   C1B12495   0.435  13.715   6.733 -0.2059 -0.1357  0.0521
  918YOPE   C2B12496   0.230  13.635   7.027  0.2832  0.0148 -0.0693
  918YOPE   D3B12497   0.198  13.541   7.400  0.0332 -0.0500  0.2662
  918YOPE   C4B12498   0.097  13.640   7.800  0.1243  0.2544 -0.0959
  919YOPE   NH312499   2.137  10.996   5.550 -0.0596 -0.3979  0.0842
  919YOPE   PO412500   1.938  10.578   5.513  0.3047  0.2865 -0.1235
  919YOPE   GL112501   1.891  10.670   5.909  0.2580 -0.1580 -0.1471
  919YOPE   GL212502   1.793  10.991   6.021 -0.3088  0.0883  0.2445
  919YOPE   C1A12503   1.673  10.562   6.366 -0.0843 -0.0321  0.1063
  919YOPE   D2A12504   1.303  10.501   6.512 -0.0204  0.0703 -0.2658
  919YOPE   C3A12505   1.307  10.279   6.896  0.0366  0.1060 -0.2177
  919YOPE   C4A12506   1.452   9.886   6.990  0.1742 -0.5620 -0.0343
  919YOPE   C1B12507   1.819  11.049   6.532  0.1006 -0.3088 -0.0616
  919YOPE   C2B12508   1.499  10.980   6.824  0.1306  0.0283  0.0506
  919YOPE   D3B12509   1.505  11.217   7.262 -0.1293 -0.1580 -0.1305
  919YOPE   C4B12510   1.620  11.676   7.375 -0.1283  0.1909  0.1203
  920YOPE   NH312511  15.148   3.028   5.458  0.0572 -0.2659 -0.2344
  920YOPE   PO412512  15.113   3.028   5.883  0.1404  0.2547 -0.1356
  920YOPE   GL112513  15.119   3.294   6.160  0.0048 -0.3075  0.2556
  920YOPE   GL212514  14.974   3.655   6.154  0.1250  0.1135  0.1548
  920YOPE   C1A12515  15.366   3.368   6.465  0.4134 -0.0565 -0.1395
  920YOPE   D2A12516  15.622   3.269   6.881 -0.3482 -0.0551  0.3281
  920YOPE   C3A12517  15.392   3.338   7.201 -0.0137 -0.0455 -0.1592
  920YOPE   C4A12518  15.369   3.410   7.629 -0.2977  0.0484  0.1316
  920YOPE   C1B12519  14.849   3.505   6.541 -0.4969 -0.3879 -0.1241
  920YOPE   C2B12520  14.701   3.755   6.922  0.1691  0.0125  0.2396
  920YOPE   D3B12521  14.376   3.811   7.006  0.2151 -0.1429 -0.2052
  920YOPE   C4B12522  14.025   4.137   6.814 -0.1779 -0.0454 -0.0341
  921YOPE   NH312523  17.516  17.193   5.649  0.0005 -0.0510  0.1797
  921YOPE   PO412524  17.868  17.289   5.762  0.0720 -0.2879  0.0573
  921YOPE   GL112525  17.717  17.373   6.201 -0.2425  0.2168  0.2437
  921YOPE   GL212526  17.347  17.393   6.203 -0.1358  0.2715 -0.3437
  921YOPE   C1A12527  17.889  17.287   6.631 -0.0644 -0.2411  0.0380
  921YOPE   D2A12528  17.986  16.949   6.924 -0.1161 -0.1394  0.1920
  921YOPE   C3A12529  18.065  17.040   7.319 -0.4307 -0.0212 -0.3211
  921YOPE   C4A12530  18.239  17.200   7.748 -0.0212 -0.5046 -0.0034
  921YOPE   C1B12531  17.341  17.450   6.693 -0.0095 -0.1812  0.0745
  921YOPE   C2B12532  17.269  17.626   7.144  0.3699 -0.0190 -0.0019
  921YOPE   D3B12533  17.706  17.924   7.389 -0.1161 -0.0856  0.0184
  921YOPE   C4B12534  18.060  17.944   7.157  0.0772 -0.1006 -0.1192
  922YOPE   NH312535  17.124   7.769   5.570  0.0977 -0.0058  0.1840
  922YOPE   PO412536  17.529   7.929   5.611 -0.2951 -0.1366 -0.1006
  922YOPE   GL112537  17.607   7.849   5.982 -0.2402 -0.0954  0.2289
  922YOPE   GL212538  17.698   8.166   6.227 -0.0143 -0.0358  0.3883
  922YOPE   C1A12539  17.592   7.702   6.447 -0.0310  0.2255 -0.0012
  922YOPE   D2A12540  17.630   7.388   6.842 -0.2179  0.0611  0.2865
  922YOPE   C3A12541  17.543   6.959   6.858  0.2652  0.0018  0.2153
  922YOPE   C4A12542  17.344   6.680   6.521  0.0330 -0.0200 -0.2200
  922YOPE   C1B12543  17.538   8.301   6.653  0.1634  0.2550  0.3320
  922YOPE   C2B12544  17.269   8.339   7.012 -0.2854  0.3209  0.0642
  922YOPE   D3B12545  17.017   8.172   7.322  0.2896 -0.0280  0.0255
  922YOPE   C4B12546  16.634   7.842   7.462  0.1977 -0.1731  0.0039
  923YOPE   NH312547   7.062   9.625   5.895  0.0842 -0.1891 -0.0121
  923YOPE   PO412548   6.719   9.334   5.961  0.0369 -0.7328 -0.1217
  923YOPE   GL112549   6.755   9.631   6.314  0.1756 -0.1848  0.2487
  923YOPE   GL212550   7.025   9.679   6.545  0.1250 -0.0704 -0.3780
  923YOPE   C1A12551   6.707  10.073   6.474  0.2498  0.1835  0.0696
  923YOPE   D2A12552   6.618  10.500   6.646  0.2459 -0.0126 -0.1193
  923YOPE   C3A12553   6.792  10.608   7.059  0.1418 -0.0243  0.2237
  923YOPE   C4A12554   6.974  10.658   7.309 -0.1409 -0.3053  0.0864
  923YOPE   C1B12555   6.783   9.795   6.888  0.1003 -0.2689 -0.2247
  923YOPE   C2B12556   6.749  10.005   7.289 -0.4823 -0.2434  0.2021
  923YOPE   D3B12557   6.797  10.045   7.737 -0.0122 -0.2642  0.0468
  923YOPE   C4B12558   7.163  10.036   8.070  0.0916  0.1117 -0.0710
  924YOPE   NH312559   5.660   2.749   6.099 -0.3562  0.1758  0.0993
  924YOPE   PO412560   6.051   2.593   5.862 -0.2869 -0.1897  0.0702
  924YOPE   GL112561   6.220   2.856   6.192 -0.0310 -0.1476 -0.0750
  924YOPE   GL212562   6.136   2.569   6.368 -0.3149  0.1079  0.0408
  924YOPE   C1A12563   6.304   3.091   6.495  0.1776  0.1099  0.3129
  924YOPE   D2A12564   6.278   3.437   6.722 -0.0677 -0.2200 -0.3233
  924YOPE   C3A12565   6.251   3.283   7.144 -0.1050  0.0378  0.0396
  924YOPE   C4A12566   6.671   3.188   7.447  0.0419 -0.0031  0.0823
  924YOPE   C1B12567   6.091   2.435   6.813 -0.0146 -0.1254  0.3664
  924YOPE   C2B12568   6.223   2.323   7.287  0.1023  0.0489  0.0122
  924YOPE   D3B12569   6.481   2.398   7.651  0.1372 -0.0880 -0.2479
  924YOPE   C4B12570   6.691   2.759   7.862 -0.2542  0.1130 -0.1459
  925YOPE   NH312571  12.504   8.047   5.931 -0.2566  0.0032  0.1699
  925YOPE   PO412572  12.884   8.351   5.789 -0.0716  0.1135 -0.0838
  925YOPE   GL112573  12.958   8.587   6.189 -0.0614  0.4016 -0.3278
  925YOPE   GL212574  13.224   8.527   6.241  0.0728 -0.0606  0.0171
  925YOPE   C1A12575  12.914   8.889   6.533  0.1282  0.2171 -0.1724
  925YOPE   D2A12576  12.891   8.981   6.914 -0.0210  0.0978  0.0958
  925YOPE   C3A12577  12.846   8.817   7.276  0.0150 -0.4953 -0.3260
  925YOPE   C4A12578  12.970   9.166   7.653  0.0668  0.2094 -0.0351
  925YOPE   C1B12579  13.264   8.508   6.717  0.3089  0.0713 -0.0799
  925YOPE   C2B12580  13.253   8.708   7.097  0.1300 -0.0134  0.0745
  925YOPE   D3B12581  13.316   8.747   7.513 -0.3151 -0.1833 -0.1816
  925YOPE   C4B12582  13.370   8.566   7.918 -0.0354  0.1046  0.3333
  926YOPE   NH312583   9.621  16.742   5.961  0.0252  0.2466 -0.0848
  926YOPE   PO412584   9.413  16.492   6.205  0.0330  0.1114  0.1727
  926YOPE   GL112585   9.527  16.332   6.557 -0.1487 -0.0331  0.0121
  926YOPE   GL212586   9.204  16.429   6.666 -0.0925  0.1498 -0.3444
  926YOPE   C1A12587   9.740  16.320   6.905  0.0340 -0.1746 -0.1448
  926YOPE   D2A12588   9.840  16.702   7.101  0.0869  0.1143 -0.2473
  926YOPE   C3A12589   9.897  16.679   7.512  0.1240 -0.1517  0.5015
  926YOPE   C4A12590  10.038  16.820   7.885 -0.1383 -0.0601  0.3575
  926YOPE   C1B12591   9.295  16.313   7.029 -0.0701 -0.2498 -0.2260
  926YOPE   C2B12592   9.502  16.413   7.429 -0.1500 -0.0151  0.1052
  926YOPE   D3B12593   9.345  16.160   7.816  0.1401 -0.2065  0.1873
  926YOPE   C4B12594   9.276  16.436   8.216 -0.0761 -0.1252  0.0235
  927YOPE   NH312595   3.377   8.703   5.961  0.1390 -0.0883  0.1490
  927YOPE   PO412596   3.087   8.885   5.792  0.1074  0.0579  0.0950
  927YOPE   GL112597   3.125   9.067   6.182 -0.1519  0.1866 -0.2714
  927YOPE   GL212598   2.931   9.336   6.308  0.1555  0.3235 -0.4424
  927YOPE   C1A12599   3.391   9.067   6.606  0.0883  0.0202  0.0361
  927YOPE   D2A12600   3.580   9.313   7.013 -0.1226 -0.2412 -0.0977
  927YOPE   C3A12601   3.529   9.247   7.495  0.1205  0.0754 -0.0626
  927YOPE   C4A12602   3.548   9.247   7.969 -0.2316 -0.2195  0.0740
  927YOPE   C1B12603   2.958   9.353   6.804 -0.1775  0.0092  0.0335
  927YOPE   C2B12604   2.990   9.377   7.258  0.2110 -0.0072 -0.1841
  927YOPE   D3B12605   3.130   9.622   7.537  0.1066 -0.0211  0.1578
  927YOPE   C4B12606   3.163   9.967   7.809 -0.0622 -0.0721  0.0106
  928YOPE   NH312607   1.748  12.203   5.737  0.2186 -0.2225  0.2974
  928YOPE   PO412608   1.313  12.302   5.774  0.1266 -0.1263  0.3761
  928YOPE   GL112609   0.968  12.119   5.997  0.4151  0.3102 -0.3195
  928YOPE   GL212610   0.744  11.829   6.091  0.0161 -0.1350  0.0905
  928YOPE   C1A12611   0.996  12.061   6.466  0.1620  0.1606  0.2006
  928YOPE   D2A12612   0.943  11.889   6.816 -0.2857  0.1145  0.3680
  928YOPE   C3A12613   0.726  11.475   6.889 -0.2187  0.0662 -0.3488
  928YOPE   C4A12614   0.472  11.194   6.881  0.2558 -0.0433  0.2172
  928YOPE   C1B12615   0.600  11.442   6.328  0.3987  0.1701 -0.0084
  928YOPE   C2B12616   0.249  11.245   6.388 -0.1170 -0.1666  0.2228
  928YOPE   D3B12617  -0.098  10.917   6.370 -0.3247  0.2036  0.0577
  928YOPE   C4B12618  -0.185  10.519   6.493 -0.0571 -0.3812  0.0659
  929YOPE   NH312619   3.564  18.073   5.874 -0.1828  0.0544 -0.1042
  929YOPE   PO412620   3.176  18.358   5.673  0.0308 -0.0685  0.2998
  929YOPE   GL112621   2.911  18.159   5.933 -0.1210 -0.1005 -0.3356
  929YOPE   GL212622   3.073  18.103   6.109 -0.1493  0.0361  0.1492
  929YOPE   C1A12623   2.683  18.398   6.295 -0.1863 -0.1730 -0.0043
  929YOPE   D2A12624   2.774  18.492   6.720  0.0362  0.1760 -0.2546
  929YOPE   C3A12625   2.588  18.387   7.039  0.5770 -0.1386 -0.1003
  929YOPE   C4A12626   2.564  18.260   7.499  0.0603 -0.1291  0.0453
  929YOPE   C1B12627   3.140  18.359   6.434 -0.1231 -0.3699 -0.1056
  929YOPE   C2B12628   3.225  18.540   6.860  0.0682 -0.0550 -0.0138
  929YOPE   D3B12629   3.080  18.725   7.045  0.0102  0.0646  0.1401
  929YOPE   C4B12630   2.860  18.638   7.451 -0.1681 -0.0310  0.2387
  930YOPE   NH312631   8.935  16.374   6.123 -0.0084  0.4198 -0.0003
  930YOPE   PO412632   8.614  16.146   6.112 -0.4848 -0.1618  0.2370
  930YOPE   GL112633   8.837  16.138   6.586  0.2024 -0.1562  0.0421
  930YOPE   GL212634   8.693  16.392   6.775 -0.0772  0.0322 -0.1698
  930YOPE   C1A12635   8.994  15.979   6.926 -0.0547  0.1582 -0.0189
  930YOPE   D2A12636   9.139  15.818   7.292 -0.0318 -0.1768 -0.3547
  930YOPE   C3A12637   9.068  15.774   7.631  0.0089  0.2351  0.1074
  930YOPE   C4A12638   8.946  15.969   8.064  0.1669  0.0251 -0.2983
  930YOPE   C1B12639   8.910  16.706   6.966 -0.2684  0.2725 -0.1095
  930YOPE   C2B12640   9.076  16.729   7.384 -0.1688  0.1251 -0.4090
  930YOPE   D3B12641   8.945  16.474   7.747  0.2353 -0.1102 -0.0003
  930YOPE   C4B12642   8.590  16.144   7.727  0.0696 -0.0707  0.3493
  931YOPE   NH312643  17.693   0.108   5.860  0.0918  0.3336 -0.0095
  931YOPE   PO412644  17.882   0.475   5.692 -0.0344 -0.0027  0.0103
  931YOPE   GL112645  17.973   0.487   6.080 -0.0135 -0.2187  0.0738
  931YOPE   GL212646  17.756   0.448   6.248  0.3402  0.0154  0.0367
  931YOPE   C1A12647  17.978   0.686   6.584 -0.0041 -0.2430  0.2073
  931YOPE   D2A12648  18.086   0.867   6.928  0.5974  0.0240 -0.0361
  931YOPE   C3A12649  18.177   0.800   7.326  0.1042  0.0399  0.0572
  931YOPE   C4A12650  18.069   1.036   7.696  0.1905 -0.1580 -0.1142
  931YOPE   C1B12651  17.677   0.264   6.695  0.1681  0.0074  0.2055
  931YOPE   C2B12652  17.499   0.219   7.142  0.2339 -0.2069 -0.1529
  931YOPE   D3B12653  17.135   0.362   7.307 -0.0836  0.3005  0.1619
  931YOPE   C4B12654  17.040   0.089   7.622  0.1372  0.0655 -0.0114
  932YOPE   NH312655   1.692   4.601   5.862  0.2542 -0.2100  0.0300
  932YOPE   PO412656   1.539   4.878   5.936  0.2690 -0.0657 -0.0609
  932YOPE   GL112657   1.603   5.098   6.201  0.3367  0.2283 -0.1281
  932YOPE   GL212658   1.620   5.392   6.199 -0.0304 -0.1118  0.0680
  932YOPE   C1A12659   1.558   5.132   6.653  0.0925 -0.1128 -0.1390
  932YOPE   D2A12660   1.530   4.925   6.972 -0.1268  0.1975  0.0766
  932YOPE   C3A12661   1.510   4.940   7.392  0.1047  0.1977 -0.0838
  932YOPE   C4A12662   1.563   5.037   7.880  0.0910  0.1864  0.0894
  932YOPE   C1B12663   1.315   5.530   6.551 -0.2209 -0.1041  0.1799
  932YOPE   C2B12664   1.244   5.741   6.955  0.2606 -0.2992 -0.1525
  932YOPE   D3B12665   0.966   5.655   7.383  0.1493  0.1291  0.0709
  932YOPE   C4B12666   0.934   5.771   7.834 -0.3267 -0.0068 -0.1268
  933YOPE   NH312667  17.101   5.620   5.610  0.3264  0.1386 -0.1605
  933YOPE   PO412668  17.526   5.787   5.740 -0.0394  0.2458 -0.4095
  933YOPE   GL112669  17.703   5.864   6.215  0.1541  0.5814  0.1012
  933YOPE   GL212670  18.067   5.951   6.289  0.1052 -0.0479 -0.1962
  933YOPE   C1A12671  17.626   6.020   6.676  0.2800 -0.3437 -0.1282
  933YOPE   D2A12672  17.610   6.427   6.912 -0.3714 -0.0477  0.2009
  933YOPE   C3A12673  17.888   6.697   7.127  0.2431  0.1053 -0.0134
  933YOPE   C4A12674  17.764   7.103   7.290  0.0062 -0.2731 -0.2690
  933YOPE   C1B12675  18.115   6.120   6.801 -0.1775  0.2955 -0.5139
  933YOPE   C2B12676  17.945   6.141   7.225 -0.3906 -0.1245  0.0163
  933YOPE   D3B12677  18.164   5.879   7.465  0.0176  0.0771 -0.1835
  933YOPE   C4B12678  18.270   5.548   7.412  0.1396  0.1825  0.0469
  934YOPE   NH312679  14.107  17.594   5.891 -0.1187  0.0446  0.1120
  934YOPE   PO412680  14.300  17.257   5.531  0.0964 -0.2758  0.0241
  934YOPE   GL112681  14.550  17.049   5.863  0.0358 -0.1904 -0.0038
  934YOPE   GL212682  14.344  17.062   6.160  0.0654 -0.0184 -0.1955
  934YOPE   C1A12683  14.894  17.033   6.191 -0.1229  0.1252 -0.1414
  934YOPE   D2A12684  14.992  16.785   6.505 -0.0862  0.0916  0.0582
  934YOPE   C3A12685  14.658  16.432   6.699  0.0981  0.0536  0.1363
  934YOPE   C4A12686  14.314  16.412   6.662  0.0883 -0.2371  0.1166
  934YOPE   C1B12687  14.503  16.925   6.580  0.0866  0.0587 -0.0419
  934YOPE   C2B12688  14.822  17.077   6.920  0.0941 -0.1457  0.0511
  934YOPE   D3B12689  15.079  17.057   7.254  0.0562 -0.1078  0.0557
  934YOPE   C4B12690  15.454  16.890   7.498 -0.0298  0.1082  0.0568
  935YOPE   NH312691   5.994  16.532   6.313  0.1715  0.0478 -0.0614
  935YOPE   PO412692   5.786  16.362   6.125 -0.3370 -0.1242  0.1603
  935YOPE   GL112693   5.743  16.141   6.481 -0.0519 -0.1778 -0.0939
  935YOPE   GL212694   5.564  16.357   6.636 -0.1489 -0.2671  0.0435
  935YOPE   C1A12695   5.744  15.836   6.805 -0.4110 -0.1598 -0.0238
  935YOPE   D2A12696   5.691  15.556   7.104  0.2772 -0.0792 -0.1790
  935YOPE   C3A12697   5.430  15.248   7.351 -0.1123  0.1276  0.3628
  935YOPE   C4A12698   5.297  15.333   7.800  0.1892  0.0418  0.2325
  935YOPE   C1B12699   5.595  16.272   6.997  0.1911  0.0628 -0.0586
  935YOPE   C2B12700   5.670  16.042   7.398  0.2251  0.1011 -0.1931
  935YOPE   D3B12701   5.634  15.649   7.579  0.1517 -0.1227 -0.1000
  935YOPE   C4B12702   6.025  15.390   7.726  0.0242 -0.1028 -0.0907
  936YOPE   NH312703  10.398   5.562   5.697 -0.0067  0.1791  0.1904
  936YOPE   PO412704  10.608   5.913   5.803  0.2832 -0.0404  0.0382
  936YOPE   GL112705  10.296   5.923   6.118 -0.1117 -0.1097 -0.2522
  936YOPE   GL212706  10.335   5.558   6.200  0.2230  0.1017  0.2568
  936YOPE   C1A12707  10.371   6.042   6.595 -0.0052 -0.0427  0.0890
  936YOPE   D2A12708  10.338   6.345   6.868 -0.1508  0.2983 -0.2429
  936YOPE   C3A12709  10.027   6.283   7.308 -0.4572 -0.0047  0.0185
  936YOPE   C4A12710   9.901   5.979   7.676  0.0837  0.0221 -0.1488
  936YOPE   C1B12711  10.416   5.440   6.617 -0.2198 -0.1304 -0.3169
  936YOPE   C2B12712  10.532   5.701   6.962  0.0390  0.1190  0.1042
  936YOPE   D3B12713  10.631   5.983   7.217  0.0712  0.0748 -0.0756
  936YOPE   C4B12714  10.448   6.015   7.686  0.0122  0.0032  0.1482
  937YOPE   NH312715   0.269  16.474   5.529 -0.2442 -0.1136  0.1290
  937YOPE   PO412716   0.508  16.324   5.723 -0.3772 -0.2541 -0.2873
  937YOPE   GL112717   0.501  16.108   6.104 -0.0349  0.0665 -0.2815
  937YOPE   GL212718   0.234  15.943   6.251  0.1560  0.0243  0.1652
  937YOPE   C1A12719   0.528  15.939   6.639 -0.0151 -0.1510  0.0548
  937YOPE   D2A12720   0.401  15.878   7.098  0.1955 -0.0756 -0.1763
  937YOPE   C3A12721   0.396  15.924   7.421  0.1813 -0.2156  0.0499
  937YOPE   C4A12722   0.257  15.723   7.895 -0.1825  0.0660  0.0541
  937YOPE   C1B12723   0.487  15.578   6.361 -0.2325  0.0064 -0.3123
  937YOPE   C2B12724   0.408  15.123   6.228  0.0814  0.0962  0.0716
  937YOPE   D3B12725   0.216  14.773   6.489 -0.1845 -0.1746  0.1457
  937YOPE   C4B12726  -0.158  14.670   6.343 -0.0404 -0.0371  0.2526
  938YOPE   NH312727  13.542  15.930   5.556 -0.0381  0.2339 -0.1949
  938YOPE   PO412728  13.142  15.834   5.845 -0.0843 -0.2392 -0.1436
  938YOPE   GL112729  13.003  15.668   6.239 -0.0691 -0.1206 -0.4441
  938YOPE   GL212730  12.783  15.808   6.518  0.1908  0.1772  0.1058
  938YOPE   C1A12731  13.288  15.424   6.574 -0.3407 -0.1355 -0.3246
  938YOPE   D2A12732  13.485  15.182   7.005  0.1538 -0.2135 -0.0039
  938YOPE   C3A12733  13.521  14.966   7.402 -0.1296 -0.1957  0.1736
  938YOPE   C4A12734  13.455  14.845   7.809 -0.0687 -0.1086 -0.2688
  938YOPE   C1B12735  12.950  15.856   6.876  0.2863  0.0779  0.2403
  938YOPE   C2B12736  13.101  15.544   7.202  0.1509 -0.1199 -0.2992
  938YOPE   D3B12737  13.309  15.372   7.678  0.0113  0.0445 -0.1449
  938YOPE   C4B12738  13.410  15.540   8.102 -0.0502  0.1099 -0.1244
  939YOPE   NH312739   5.632  15.948   5.990  0.0425  0.3244  0.2822
  939YOPE   PO412740   5.932  15.651   5.988  0.3112  0.0446 -0.3281
  939YOPE   GL112741   5.742  15.642   6.368  0.1590  0.0023 -0.1633
  939YOPE   GL212742   5.441  15.504   6.607 -0.1578  0.3452 -0.1429
  939YOPE   C1A12743   5.923  15.294   6.692  0.1132 -0.0494 -0.0624
  939YOPE   D2A12744   6.022  14.922   6.960 -0.1229 -0.2140 -0.0572
  939YOPE   C3A12745   5.894  15.123   7.316 -0.1123  0.1921  0.2202
  939YOPE   C4A12746   5.714  15.076   7.672  0.2022 -0.1007 -0.0768
  939YOPE   C1B12747   5.122  15.268   6.856 -0.0093 -0.4222 -0.1050
  939YOPE   C2B12748   4.965  15.235   7.241 -0.0368  0.1903  0.0057
  939YOPE   D3B12749   4.817  15.372   7.615 -0.2209 -0.2767 -0.2474
  939YOPE   C4B12750   4.881  15.559   8.012 -0.0206  0.1400 -0.0189
  940YOPE   NH312751   9.361   2.500   5.696 -0.2250 -0.0320  0.0754
  940YOPE   PO412752   9.725   2.702   5.773  0.3505 -0.0058  0.1911
  940YOPE   GL112753   9.951   2.843   6.071 -0.0952 -0.1090  0.0879
  940YOPE   GL212754   9.840   3.142   6.157 -0.0924  0.1246  0.3688
  940YOPE   C1A12755  10.160   2.765   6.477  0.0142 -0.1170 -0.3008
  940YOPE   D2A12756  10.190   2.810   6.878  0.2546 -0.2863 -0.0096
  940YOPE   C3A12757  10.229   2.883   7.390 -0.6212 -0.3061 -0.0660
  940YOPE   C4A12758  10.426   2.960   7.704 -0.1664 -0.0970  0.2113
  940YOPE   C1B12759   9.836   3.301   6.609  0.0776 -0.0842  0.2360
  940YOPE   C2B12760   9.864   3.233   6.992 -0.1022  0.0268 -0.1561
  940YOPE   D3B12761   9.793   3.242   7.382  0.1361  0.1247 -0.2815
  940YOPE   C4B12762   9.938   3.060   7.826 -0.2893  0.0943 -0.1298
  941YOPE   NH312763   0.312   3.142   5.997  0.1052 -0.1101 -0.2447
  941YOPE   PO412764   0.216   3.553   5.863 -0.0693 -0.1339 -0.4448
  941YOPE   GL112765   0.430   3.530   6.255 -0.0067 -0.5859  0.1454
  941YOPE   GL212766   0.612   3.294   6.363 -0.0907  0.0183  0.0261
  941YOPE   C1A12767   0.505   3.812   6.544  0.0484 -0.3424  0.0226
  941YOPE   D2A12768   0.429   3.747   6.948  0.0543  0.0083  0.0089
  941YOPE   C3A12769   0.329   3.656   7.371  0.4718  0.2897  0.2687
  941YOPE   C4A12770   0.282   3.679   7.836 -0.1225  0.1657 -0.3109
  941YOPE   C1B12771   0.663   3.299   6.790 -0.0605  0.0044  0.0088
  941YOPE   C2B12772   0.705   3.258   7.154  0.2346  0.0627 -0.3370
  941YOPE   D3B12773   0.571   3.223   7.487  0.0778  0.0107  0.0334
  941YOPE   C4B12774   0.406   3.198   7.900 -0.1281 -0.0072  0.1577
  942POPC   NC312775   6.884   0.135   5.816 -0.0769 -0.2949 -0.0143
  942POPC   PO412776   6.475   0.265   5.892 -0.1955 -0.1510 -0.0841
  942POPC   GL112777   6.463   0.230   6.230  0.0974 -0.2239 -0.0073
  942POPC   GL212778   6.159   0.078   6.258  0.1084  0.0931 -0.1065
  942POPC   C1A12779   6.537   0.461   6.594 -0.3020  0.2559 -0.3753
  942POPC   D2A12780   6.575   0.306   7.015  0.0874 -0.0393  0.1531
  942POPC   C3A12781   6.872   0.311   7.380 -0.1500 -0.0872 -0.2585
  942POPC   C4A12782   7.148   0.166   7.650 -0.1694 -0.0440 -0.0666
  942POPC   C1B12783   6.184   0.105   6.744 -0.1924 -0.0103  0.0258
  942POPC   C2B12784   6.008   0.025   7.195  0.3472 -0.0513 -0.0336
  942POPC   C3B12785   5.949   0.099   7.664 -0.0398  0.2030  0.0796
  942POPC   C4B12786   5.875  -0.011   8.141  0.1250 -0.1918  0.1140
  943POPC   NC312787   8.544   1.379   5.607 -0.0046 -0.2126 -0.1601
  943POPC   PO412788   8.327   1.032   5.668 -0.1479  0.0110 -0.1624
  943POPC   GL112789   8.260   1.249   6.081 -0.5581  0.0526  0.1022
  943POPC   GL212790   8.455   1.421   6.409 -0.1414 -0.2541  0.1045
  943POPC   C1A12791   8.017   1.203   6.327 -0.0555  0.3040  0.0532
  943POPC   D2A12792   7.770   1.033   6.728  0.2261  0.0483 -0.4026
  943POPC   C3A12793   7.543   0.594   6.697 -0.2302 -0.0763 -0.1928
  943POPC   C4A12794   7.151   0.316   6.863  0.0779 -0.0902 -0.2144
  943POPC   C1B12795   8.268   1.217   6.827 -0.0386  0.4886  0.0850
  943POPC   C2B12796   8.144   1.103   7.178  0.2241  0.3674  0.1661
  943POPC   C3B12797   8.126   1.008   7.609 -0.1600  0.1261 -0.2012
  943POPC   C4B12798   7.797   1.155   7.913  0.1339  0.1848 -0.0618
  944POPC   NC312799   1.305   6.538   5.455 -0.0685 -0.2091  0.1953
  944POPC   PO412800   1.018   6.880   5.610 -0.0067  0.2719 -0.1578
  944POPC   GL112801   0.755   7.043   5.924 -0.1286  0.0782 -0.0936
  944POPC   GL212802   0.581   7.299   5.975  0.1111 -0.3601  0.0609
  944POPC   C1A12803   0.551   6.916   6.327 -0.4310  0.3582 -0.3680
  944POPC   D2A12804   0.531   6.909   6.768 -0.0127 -0.1119  0.0367
  944POPC   C3A12805   0.872   7.067   7.191  0.1775 -0.0309 -0.2066
  944POPC   C4A12806   1.111   7.273   7.526 -0.1122 -0.0940  0.1003
  944POPC   C1B12807   0.458   7.389   6.446  0.0635 -0.3685 -0.0134
  944POPC   C2B12808   0.435   7.371   6.921  0.0851  0.1736  0.0782
  944POPC   C3B12809   0.340   7.180   7.314  0.1067  0.2127  0.0319
  944POPC   C4B12810   0.230   7.105   7.666  0.0955 -0.0678 -0.4797
  945POPC   NC312811  14.729   2.818   5.694  0.0260  0.0350  0.0422
  945POPC   PO412812  14.974   2.447   5.656  0.1797 -0.1132 -0.1706
  945POPC   GL112813  14.972   2.505   6.024 -0.3404  0.0176  0.1483
  945POPC   GL212814  14.601   2.326   6.059 -0.0815 -0.0575  0.0152
  945POPC   C1A12815  14.954   2.466   6.509  0.3075 -0.0629  0.3225
  945POPC   D2A12816  15.078   2.456   6.923 -0.1948 -0.1609 -0.1626
  945POPC   C3A12817  15.068   2.658   7.318 -0.2483  0.0381  0.2471
  945POPC   C4A12818  15.099   3.004   7.664  0.0077 -0.0362  0.0880
  945POPC   C1B12819  14.489   2.189   6.453  0.0247 -0.1777 -0.2097
  945POPC   C2B12820  14.617   2.196   6.838 -0.0919  0.1254  0.0299
  945POPC   C3B12821  14.820   2.206   7.305  0.1247 -0.1450 -0.1322
  945POPC   C4B12822  15.173   2.173   7.732 -0.0365  0.1348 -0.0148
  946POPC   NC312823  15.445   1.031   5.483 -0.0204  0.4267  0.0676
  946POPC   PO412824  15.598   1.273   5.156  0.1739 -0.4495 -0.4395
  946POPC   GL112825  15.651   1.412   5.643  0.2559  0.1718 -0.3416
  946POPC   GL212826  15.393   1.702   5.835 -0.0348  0.3926  0.1794
  946POPC   C1A12827  15.596   1.311   6.085  0.1114  0.1315 -0.3067
  946POPC   D2A12828  15.349   1.403   6.413  0.2288  0.6000  0.3687
  946POPC   C3A12829  15.414   1.307   6.713 -0.1193 -0.3578  0.2118
  946POPC   C4A12830  15.273   1.432   7.108 -0.2076  0.0837 -0.3422
  946POPC   C1B12831  15.579   1.814   6.255  0.0992  0.1529 -0.2014
  946POPC   C2B12832  15.646   1.820   6.713 -0.3640  0.0603  0.0681
  946POPC   C3B12833  15.824   1.924   7.023 -0.0194  0.0183  0.0942
  946POPC   C4B12834  15.979   2.229   7.387 -0.0729 -0.1879 -0.0839
  947POPC   NC312835   0.486   6.402   5.705 -0.1308  0.4850  0.1972
  947POPC   PO412836   0.737   6.062   5.790 -0.0788  0.0126 -0.2186
  947POPC   GL112837   0.521   6.181   6.205  0.0928 -0.0307 -0.0468
  947POPC   GL212838   0.280   6.369   6.242 -0.0825 -0.4446  0.0874
  947POPC   C1A12839   0.727   6.435   6.444  0.1214 -0.1140 -0.2027
  947POPC   D2A12840   0.879   6.511   6.822  0.0232  0.1357  0.2125
  947POPC   C3A12841   0.672   6.624   7.219  0.0865 -0.0872  0.2772
  947POPC   C4A12842   0.680   6.864   7.645 -0.2033 -0.3554 -0.3917
  947POPC   C1B12843   0.269   6.353   6.746  0.1019 -0.0305 -0.0457
  947POPC   C2B12844   0.079   6.377   7.261 -0.2289 -0.5030  0.2998
  947POPC   C3B12845   0.188   6.573   7.668 -0.2964 -0.1280  0.0068
  947POPC   C4B12846   0.153   6.750   8.038  0.1243  0.0076 -0.0554
  948POPC   NC312847  16.709  13.069   5.724 -0.0685 -0.1228  0.0519
  948POPC   PO412848  16.747  13.586   5.648 -0.0070 -0.0458  0.1436
  948POPC   GL112849  16.912  13.543   6.092 -0.2881 -0.1315  0.0403
  948POPC   GL212850  17.076  13.364   5.936 -0.1008 -0.1182 -0.3574
  948POPC   C1A12851  16.875  13.527   6.578 -0.2627  0.0791 -0.1965
  948POPC   D2A12852  17.035  13.638   7.048  0.0122  0.0308  0.2370
  948POPC   C3A12853  16.866  13.884   7.264  0.1518  0.1038 -0.0404
  948POPC   C4A12854  16.918  14.256   7.238 -0.0940 -0.3044 -0.0014
  948POPC   C1B12855  17.009  13.081   6.346  0.0598  0.0271  0.1167
  948POPC   C2B12856  17.125  13.176   6.830  0.1512 -0.2316  0.0305
  948POPC   C3B12857  17.289  12.902   7.171  0.0140  0.2338  0.0526
  948POPC   C4B12858  17.411  12.983   7.610 -0.1730  0.4944  0.0282
  949POPC   NC312859  16.871   4.329   5.917  0.0155 -0.1012  0.1338
  949POPC   PO412860  16.655   4.641   6.063 -0.3156 -0.2901  0.0690
  949POPC   GL112861  17.008   4.406   6.364  0.1572  0.1990 -0.0478
  949POPC   GL212862  16.839   4.712   6.500 -0.1664  0.2643  0.1680
  949POPC   C1A12863  17.049   4.276   6.732 -0.2694  0.2533 -0.0955
  949POPC   D2A12864  16.952   3.987   6.924 -0.2641 -0.2074 -0.2321
  949POPC   C3A12865  16.670   3.866   7.332  0.1557 -0.0088 -0.0865
  949POPC   C4A12866  16.401   3.801   7.623  0.0062  0.2670 -0.1825
  949POPC   C1B12867  16.646   4.630   6.821  0.1584 -0.1865 -0.0327
  949POPC   C2B12868  16.718   4.783   7.273 -0.1567 -0.1102  0.1895
  949POPC   C3B12869  16.949   5.101   7.491 -0.0146  0.1150  0.1673
  949POPC   C4B12870  17.219   5.262   7.456  0.3164 -0.0630  0.1407
  950POPC   NC312871  14.807   5.582   5.550 -0.2922  0.1427 -0.1804
  950POPC   PO412872  15.067   5.778   5.630 -0.3106  0.2109  0.1008
  950POPC   GL112873  15.098   5.818   6.067 -0.2387  0.1301  0.2751
  950POPC   GL212874  15.342   5.991   6.035  0.3001 -0.1000 -0.4249
  950POPC   C1A12875  15.030   5.969   6.428  0.2377  0.1207  0.1416
  950POPC   D2A12876  15.182   5.914   6.808  0.1680  0.3347  0.0601
  950POPC   C3A12877  15.184   6.073   7.187 -0.1639 -0.2425 -0.0191
  950POPC   C4A12878  15.469   5.947   7.557 -0.3650 -0.1578  0.2568
  950POPC   C1B12879  15.430   6.411   6.258  0.2847 -0.0666 -0.1939
  950POPC   C2B12880  15.441   6.557   6.664  0.1374 -0.1273 -0.0407
  950POPC   C3B12881  15.515   6.602   7.052  0.0546 -0.0253 -0.2542
  950POPC   C4B12882  15.534   6.442   7.411  0.0381  0.0888  0.1137
  951POPC   NC312883   6.030   5.867   5.852 -0.1332 -0.1671 -0.2197
  951POPC   PO412884   5.729   6.104   5.631 -0.0858  0.0203  0.0512
  951POPC   GL112885   5.633   6.070   6.140  0.0177 -0.1327 -0.3033
  951POPC   GL212886   5.871   6.201   6.249  0.0879 -0.2920  0.3303
  951POPC   C1A12887   5.457   5.965   6.448  0.3167 -0.3398  0.1177
  951POPC   D2A12888   5.414   5.734   6.876 -0.3310 -0.0422 -0.1542
  951POPC   C3A12889   5.059   5.800   7.162 -0.0653  0.2656  0.0068
  951POPC   C4A12890   4.781   6.051   7.256 -0.0238  0.0056 -0.0361
  951POPC   C1B12891   6.098   6.042   6.524 -0.0070  0.3334  0.1619
  951POPC   C2B12892   6.265   6.168   6.869 -0.0986  0.3474  0.0529
  951POPC   C3B12893   6.118   6.445   7.125  0.1516  0.1409 -0.0384
  951POPC   C4B12894   6.226   6.387   7.535 -0.2042  0.1880  0.2276
  952POPC   NC312895   3.362   2.794   5.411  0.2141 -0.1099 -0.2326
  952POPC   PO412896   3.367   3.113   5.744  0.1983 -0.0301 -0.1120
  952POPC   GL112897   3.480   2.855   6.052  0.2457 -0.1196  0.2941
  952POPC   GL212898   3.306   2.776   6.446  0.0907  0.0429  0.0861
  952POPC   C1A12899   3.794   2.621   6.362  0.0573 -0.1457  0.0050
  952POPC   D2A12900   4.081   2.361   6.414 -0.0668 -0.0825 -0.2032
  952POPC   C3A12901   4.150   1.959   6.583  0.1116  0.2513 -0.2141
  952POPC   C4A12902   4.384   1.719   6.710 -0.1692 -0.0129 -0.3866
  952POPC   C1B12903   3.296   2.737   6.900  0.0084  0.1969  0.2369
  952POPC   C2B12904   3.254   2.677   7.350 -0.4785 -0.1233 -0.1475
  952POPC   C3B12905   3.157   2.766   7.795 -0.0438  0.0668 -0.3588
  952POPC   C4B12906   3.073   2.715   8.240  0.4212 -0.4374  0.3199
  953POPC   NC312907  12.611  11.541   5.912  0.3724  0.0484  0.4523
  953POPC   PO412908  12.662  11.969   5.881 -0.2990  0.1001 -0.2004
  953POPC   GL112909  12.696  12.263   6.067  0.0696  0.3689 -0.2432
  953POPC   GL212910  12.776  12.548   6.073 -0.0408 -0.1468 -0.0513
  953POPC   C1A12911  12.840  12.208   6.463 -0.1034 -0.1125 -0.0053
  953POPC   D2A12912  12.754  12.083   6.835  0.1478 -0.2978  0.3149
  953POPC   C3A12913  12.989  12.119   7.146 -0.0563  0.0992 -0.3206
  953POPC   C4A12914  13.150  12.046   7.609 -0.1374  0.1097 -0.0584
  953POPC   C1B12915  12.442  12.522   6.486  0.1516  0.1673 -0.0007
  953POPC   C2B12916  12.304  12.339   6.911  0.0993  0.1083  0.0140
  953POPC   C3B12917  12.416  12.222   7.281  0.0299  0.3096 -0.0468
  953POPC   C4B12918  12.658  12.220   7.560 -0.0408 -0.0872 -0.2678
  954POPC   NC312919   2.647   9.201   5.898 -0.3086  0.3396  0.2726
  954POPC   PO412920   2.607   8.722   5.938  0.1646 -0.2851 -0.2369
  954POPC   GL112921   2.672   8.842   6.279  0.1906 -0.1097 -0.1070
  954POPC   GL212922   2.403   8.715   6.443 -0.3352 -0.1908 -0.0020
  954POPC   C1A12923   2.908   8.849   6.742  0.2440  0.2061  0.0363
  954POPC   D2A12924   2.723   8.871   7.295  0.1624  0.0663  0.2297
  954POPC   C3A12925   2.810   8.475   7.560 -0.1785 -0.1174  0.1493
  954POPC   C4A12926   2.638   8.393   7.886  0.0876  0.0337  0.0092
  954POPC   C1B12927   2.312   8.877   6.865  0.1239  0.1948  0.0478
  954POPC   C2B12928   2.127   8.977   7.204 -0.0394 -0.0651 -0.0063
  954POPC   C3B12929   1.990   9.271   7.533 -0.1748 -0.1780 -0.2604
  954POPC   C4B12930   1.792   9.464   7.874  0.0426 -0.2582  0.1554
  955POPC   NC312931   9.818  10.418   5.704  0.1829 -0.0205 -0.0013
  955POPC   PO412932  10.100  10.770   5.664 -0.1746  0.1057 -0.3417
  955POPC   GL112933   9.836  10.767   6.007 -0.0568 -0.0612  0.0305
  955POPC   GL212934  10.088  10.532   6.123  0.0037  0.0520 -0.0595
  955POPC   C1A12935   9.551  10.707   6.300 -0.0169 -0.2069 -0.0134
  955POPC   D2A12936   9.254  10.743   6.619  0.1286  0.0188 -0.3491
  955POPC   C3A12937   9.096  10.422   6.903  0.2503 -0.0073  0.2386
  955POPC   C4A12938   8.890  10.046   7.163  0.0980  0.1284 -0.0174
  955POPC   C1B12939   9.990  10.668   6.535 -0.2325  0.0444 -0.0436
  955POPC   C2B12940   9.720  10.791   6.826 -0.0891  0.1416 -0.0952
  955POPC   C3B12941   9.470  10.819   7.209 -0.0446  0.2719 -0.0218
  955POPC   C4B12942   9.536  11.085   7.615  0.2457 -0.0152 -0.0513
  956POPC   NC312943   5.794   4.259   5.977  0.0156  0.0929 -0.3306
  956POPC   PO412944   5.466   4.013   5.943  0.0486 -0.2444 -0.4327
  956POPC   GL112945   5.720   3.918   6.280 -0.0380 -0.0541 -0.1857
  956POPC   GL212946   5.545   3.951   6.519  0.3905 -0.1424 -0.0095
  956POPC   C1A12947   5.980   3.750   6.579 -0.3122  0.3351 -0.2932
  956POPC   D2A12948   6.161   3.788   7.084 -0.1687 -0.2415  0.1259
  956POPC   C3A12949   6.392   3.669   7.481 -0.0720  0.2153 -0.2845
  956POPC   C4A12950   6.593   4.023   7.714 -0.2234  0.2841  0.1211
  956POPC   C1B12951   5.659   3.928   6.896 -0.2599  0.0306  0.3031
  956POPC   C2B12952   5.802   3.946   7.348  0.1581  0.1164  0.3112
  956POPC   C3B12953   6.113   4.083   7.582  0.0528  0.4301 -0.3333
  956POPC   C4B12954   6.089   4.427   7.886  0.3344  0.2320 -0.1232
  957POPC   NC312955   2.491  15.616   5.955 -0.2032 -0.3579  0.1657
  957POPC   PO412956   2.352  15.977   6.045  0.1737 -0.1479  0.2504
  957POPC   GL112957   2.156  15.766   6.399 -0.2101  0.2112 -0.2610
  957POPC   GL212958   2.160  16.021   6.645  0.0110  0.2487  0.3206
  957POPC   C1A12959   2.050  15.435   6.701 -0.1814  0.0434 -0.0101
  957POPC   D2A12960   2.025  15.314   7.180  0.0400 -0.0825 -0.0475
  957POPC   C3A12961   1.812  15.534   7.562  0.1243 -0.3185  0.0277
  957POPC   C4A12962   1.719  15.722   7.989 -0.1020  0.1539 -0.1408
  957POPC   C1B12963   2.061  15.828   6.994 -0.4112  0.1325 -0.1038
  957POPC   C2B12964   1.904  15.969   7.439  0.0223  0.1547 -0.1153
  957POPC   C3B12965   2.053  16.089   7.821 -0.0988  0.2964  0.2898
  957POPC   C4B12966   2.045  16.056   8.272 -0.0877  0.2704  0.1253
  958POPC   NC312967  10.557  17.049   6.240 -0.1452 -0.0326  0.0092
  958POPC   PO412968  10.615  17.427   6.392  0.1277  0.2956  0.0654
  958POPC   GL112969  10.669  17.623   6.714  0.2223 -0.0236  0.1950
  958POPC   GL212970  10.945  17.785   6.753  0.0428  0.2321  0.1691
  958POPC   C1A12971  10.597  17.658   7.230  0.2035  0.1086 -0.0206
  958POPC   D2A12972  10.531  17.704   7.681 -0.2149  0.1514  0.5950
  958POPC   C3A12973  10.156  17.800   7.812 -0.4636 -0.0039 -0.2185
  958POPC   C4A12974   9.875  17.820   8.147  0.0201  0.0436  0.2240
  958POPC   C1B12975  11.045  17.907   7.122 -0.0697  0.0093 -0.1189
  958POPC   C2B12976  10.843  18.068   7.518 -0.0915  0.3425 -0.1227
  958POPC   C3B12977  10.813  18.003   8.014 -0.2007  0.2860  0.0104
  958POPC   C4B12978  10.521  17.754   8.259  0.3561 -0.1120 -0.0128
  959POPC   NC312979  12.795  15.448   5.652 -0.0240  0.3182 -0.0223
  959POPC   PO412980  12.256  15.516   5.672  0.3037 -0.2094  0.3730
  959POPC   GL112981  12.001  15.238   5.780 -0.0911 -0.0020  0.1985
  959POPC   GL212982  11.870  15.291   6.149  0.2901  0.1617  0.3222
  959POPC   C1A12983  12.099  14.833   6.011 -0.4026  0.2232  0.0847
  959POPC   D2A12984  12.195  14.408   6.098 -0.1678  0.0359 -0.1013
  959POPC   C3A12985  12.519  14.311   6.386  0.0462  0.0393 -0.2749
  959POPC   C4A12986  12.503  14.391   6.737 -0.0501 -0.2759 -0.3143
  959POPC   C1B12987  11.791  14.941   6.379 -0.2680 -0.0951  0.2085
  959POPC   C2B12988  11.637  14.851   6.796  0.4227 -0.0763 -0.1536
  959POPC   C3B12989  11.286  14.812   7.037 -0.4173 -0.2520 -0.0145
  959POPC   C4B12990  11.027  14.866   7.289 -0.1055 -0.0818 -0.1295
  960POPC   NC312991  14.237   0.533   5.543  0.4082 -0.4712 -0.0893
  960POPC   PO412992  14.410   0.242   5.835  0.6145  0.1107  0.3738
  960POPC   GL112993  14.479   0.056   6.207 -0.0097  0.5062 -0.1462
  960POPC   GL212994  14.489  -0.290   6.430 -0.2427  0.2713 -0.2745
  960POPC   C1A12995  14.506   0.204   6.609  0.1463  0.0367  0.0754
  960POPC   D2A12996  14.329   0.325   6.984  0.0789  0.1203 -0.5187
  960POPC   C3A12997  14.445   0.300   7.387  0.4100  0.1612 -0.0049
  960POPC   C4A12998  14.466   0.460   7.754  0.1712  0.2326  0.3172
  960POPC   C1B12999  14.624  -0.331   6.883 -0.1575 -0.3748  0.1290
  960POPC   C2B13000  14.631  -0.547   7.238 -0.0798 -0.1517  0.1085
  960POPC   C3B13001  14.791  -0.627   7.656  0.3008  0.0665 -0.0336
  960POPC   C4B13002  14.852  -0.419   8.033 -0.1304 -0.0440 -0.3596
  961POPC   NC313003   4.974  15.420   5.761  0.1592  0.1299 -0.0851
  961POPC   PO413004   4.827  15.210   6.136 -0.1836  0.2969  0.3071
  961POPC   GL113005   4.601  15.189   6.510  0.1441 -0.0936 -0.2066
  961POPC   GL213006   4.446  14.947   6.740  0.1698  0.1921  0.4733
  961POPC   C1A13007   4.592  15.423   6.965  0.2737 -0.1088  0.0180
  961POPC   D2A13008   4.313  15.315   7.263 -0.1121  0.3768  0.3228
  961POPC   C3A13009   4.306  14.970   7.522 -0.1324  0.0388 -0.2841
  961POPC   C4A13010   4.321  14.660   7.787 -0.0575  0.0718  0.1258
  961POPC   C1B13011   4.567  14.902   7.148 -0.0475 -0.0081  0.0260
  961POPC   C2B13012   4.764  14.771   7.527 -0.0045  0.2757  0.0470
  961POPC   C3B13013   4.792  14.695   7.968  0.2007 -0.1967 -0.0597
  961POPC   C4B13014   4.911  14.545   8.297  0.1396  0.0425 -0.0071
  962POPC   NC313015   4.146  15.815   5.973  0.1580 -0.0764 -0.0969
  962POPC   PO413016   4.392  16.140   6.197 -0.0725 -0.0825 -0.0815
  962POPC   GL113017   4.341  16.410   6.563  0.0717 -0.1179 -0.1588
  962POPC   GL213018   4.585  16.654   6.636 -0.1547  0.0112  0.1113
  962POPC   C1A13019   4.124  16.557   6.960  0.1148 -0.0592  0.3475
  962POPC   D2A13020   3.880  16.774   7.252  0.0827 -0.5583 -0.0252
  962POPC   C3A13021   4.090  17.095   7.423 -0.1087  0.3003  0.1413
  962POPC   C4A13022   4.281  17.227   7.772  0.0424 -0.0448  0.1805
  962POPC   C1B13023   4.621  16.424   7.071  0.1024 -0.2858  0.0915
  962POPC   C2B13024   4.762  16.327   7.577  0.5570  0.0340  0.1580
  962POPC   C3B13025   4.780  16.104   7.959  0.1265  0.0599  0.0649
  962POPC   C4B13026   4.409  15.752   8.160 -0.1651 -0.0153  0.3176
  963POPC   NC313027  12.866   5.421   5.430  0.2062 -0.0905  0.3262
  963POPC   PO413028  12.798   5.872   5.592  0.2572  0.2401  0.0487
  963POPC   GL113029  13.114   5.771   5.966 -0.1239 -0.1623 -0.0009
  963POPC   GL213030  13.176   5.469   5.826 -0.0326 -0.1599 -0.0653
  963POPC   C1A13031  13.222   5.796   6.420 -0.1715  0.3714  0.0314
  963POPC   D2A13032  13.246   5.771   6.885  0.3708  0.4152  0.0491
  963POPC   C3A13033  13.578   5.762   7.224  0.0627  0.2476  0.1087
  963POPC   C4A13034  13.648   5.408   7.480 -0.0523  0.2363  0.0028
  963POPC   C1B13035  13.187   5.287   6.299 -0.0149 -0.4725  0.1794
  963POPC   C2B13036  13.263   5.223   6.755  0.0204  0.1271 -0.1609
  963POPC   C3B13037  13.361   5.327   7.058  0.3150 -0.0916  0.0199
  963POPC   C4B13038  13.184   5.269   7.386  0.2392  0.0530  0.0911
  964POPC   NC313039  14.572   1.452   5.209  0.1530 -0.0784 -0.0635
  964POPC   PO413040  14.179   1.570   5.440 -0.1678  0.1984  0.0908
  964POPC   GL113041  14.490   1.502   5.743  0.0896  0.2064 -0.0547
  964POPC   GL213042  14.575   1.374   5.947  0.1062  0.2946 -0.0986
  964POPC   C1A13043  14.520   1.806   6.124  0.0036  0.3517 -0.1627
  964POPC   D2A13044  14.605   1.709   6.567 -0.1146  0.2172  0.0062
  964POPC   C3A13045  14.710   1.748   7.024  0.1202  0.1265  0.1952
  964POPC   C4A13046  14.955   1.745   7.447  0.0182 -0.2194 -0.0700
  964POPC   C1B13047  14.261   1.392   6.292 -0.1114 -0.1318 -0.1803
  964POPC   C2B13048  14.335   1.318   6.772 -0.1856 -0.0585 -0.1511
  964POPC   C3B13049  14.468   1.189   7.235 -0.0785  0.0606  0.0571
  964POPC   C4B13050  14.754   1.298   7.586 -0.3311  0.1647 -0.3481
  965POPC   NC313051  11.814   1.170   5.552 -0.0730 -0.0771  0.1253
  965POPC   PO413052  12.172   1.035   5.805 -0.0137 -0.0293  0.2021
  965POPC   GL113053  12.021   0.937   6.093 -0.0519 -0.1548 -0.0076
  965POPC   GL213054  11.699   0.890   5.955 -0.1595 -0.1326  0.3938
  965POPC   C1A13055  12.096   0.878   6.524 -0.2563 -0.0884  0.1303
  965POPC   D2A13056  12.152   0.884   7.011 -0.0166 -0.0643 -0.1010
  965POPC   C3A13057  12.430   0.684   7.194 -0.2098 -0.0435  0.1259
  965POPC   C4A13058  12.542   0.563   7.577 -0.1034  0.0549  0.2113
  965POPC   C1B13059  11.597   0.885   6.394  0.0254 -0.2311 -0.0123
  965POPC   C2B13060  11.676   0.923   6.823  0.3181  0.0984  0.2499
  965POPC   C3B13061  11.678   0.874   7.245  0.1505  0.2442 -0.2504
  965POPC   C4B13062  12.085   0.976   7.528  0.2121  0.2241 -0.1268
  966POPC   NC313063  14.517  18.238   5.607  0.1531 -0.1341  0.2408
  966POPC   PO413064  15.006  18.236   5.534  0.1193  0.0968 -0.0523
  966POPC   GL113065  15.251  18.318   5.879 -0.0691 -0.0486  0.0020
  966POPC   GL213066  14.917  18.221   6.058  0.0117  0.0774 -0.1459
  966POPC   C1A13067  15.363  18.203   6.357  0.1946 -0.0016  0.2493
  966POPC   D2A13068  15.399  17.992   6.680 -0.2000  0.0509 -0.3593
  966POPC   C3A13069  15.624  18.066   7.020 -0.1415  0.1617 -0.2540
  966POPC   C4A13070  15.671  17.979   7.453 -0.1385  0.0806 -0.0087
  966POPC   C1B13071  14.917  18.418   6.489  0.3982  0.1882 -0.0941
  966POPC   C2B13072  15.110  18.367   6.876 -0.0784  0.3909 -0.2467
  966POPC   C3B13073  15.145  18.079   7.297 -0.2011  0.1511  0.2270
  966POPC   C4B13074  15.240  18.115   7.738 -0.3121 -0.1193  0.2159
  967POPC   NC313075  17.786   8.823   5.431 -0.0394 -0.1471  0.3656
  967POPC   PO413076  17.446   9.147   5.387 -0.1264  0.0823  0.2480
  967POPC   GL113077  17.574   9.116   5.838  0.0149  0.0565  0.2590
  967POPC   GL213078  17.380   9.237   5.939 -0.1158  0.0575 -0.2644
  967POPC   C1A13079  17.710   9.063   6.284 -0.3400 -0.1930 -0.1014
  967POPC   D2A13080  17.865   8.714   6.508  0.3773  0.3032  0.1129
  967POPC   C3A13081  17.585   8.746   6.944  0.0801 -0.2095  0.0086
  967POPC   C4A13082  17.678   8.888   7.371  0.0413 -0.3827  0.0073
  967POPC   C1B13083  17.251   9.344   6.335 -0.1399 -0.0283  0.2960
  967POPC   C2B13084  17.273   9.297   6.845 -0.0094 -0.2117  0.1583
  967POPC   C3B13085  17.216   9.116   7.188 -0.0236 -0.2877 -0.0994
  967POPC   C4B13086  17.210   8.845   7.498  0.1537 -0.0309 -0.3640
  968POPC   NC313087  17.283  14.665   5.600 -0.1030  0.0521  0.3604
  968POPC   PO413088  17.247  14.206   5.617 -0.0524 -0.0143  0.0393
  968POPC   GL113089  17.306  14.138   6.049 -0.5851  0.1769  0.2407
  968POPC   GL213090  17.380  13.914   6.222 -0.0061 -0.0950 -0.0768
  968POPC   C1A13091  17.413  14.449   6.486 -0.0368 -0.0620  0.1099
  968POPC   D2A13092  17.672  14.745   6.847 -0.0400 -0.0769  0.3804
  968POPC   C3A13093  17.914  14.717   7.258 -0.3221 -0.3274  0.0552
  968POPC   C4A13094  18.358  14.578   7.349 -0.0217 -0.1664 -0.1191
  968POPC   C1B13095  17.288  13.600   6.391 -0.5022 -0.2177  0.2616
  968POPC   C2B13096  17.512  13.483   6.720 -0.2064 -0.0694  0.2942
  968POPC   C3B13097  17.490  13.367   7.160 -0.4151  0.0250  0.0318
  968POPC   C4B13098  17.176  13.412   7.442 -0.0130  0.0140  0.1851
  969POPC   NC313099   0.702   1.414   6.154 -0.1131  0.4490  0.2133
  969POPC   PO413100   0.603   1.760   6.046 -0.0414  0.0568 -0.1365
  969POPC   GL113101   0.540   1.822   6.439  0.1346 -0.0763  0.0857
  969POPC   GL213102   0.366   2.117   6.445 -0.0421 -0.0652  0.3195
  969POPC   C1A13103   0.422   1.611   6.730  0.0483 -0.0193 -0.0180
  969POPC   D2A13104   0.489   1.329   7.038  0.0775  0.5164  0.1822
  969POPC   C3A13105   0.297   1.275   7.380 -0.0036 -0.0522  0.2124
  969POPC   C4A13106   0.070   1.310   7.672 -0.0076  0.2858 -0.1934
  969POPC   C1B13107   0.066   2.012   6.751  0.1099  0.3050  0.2453
  969POPC   C2B13108   0.169   1.812   7.229 -0.3684  0.2026  0.2094
  969POPC   C3B13109   0.316   1.842   7.712 -0.1365 -0.1209 -0.4004
  969POPC   C4B13110   0.681   1.906   7.928 -0.0657  0.1999  0.0111
  970POPC   NC313111  11.017   8.520   5.526 -0.1245 -0.1009  0.1033
  970POPC   PO413112  11.325   8.337   5.621  0.1514 -0.0309  0.0742
  970POPC   GL113113  11.285   8.095   5.976  0.6120 -0.1542 -0.2725
  970POPC   GL213114  11.084   7.959   6.097 -0.0395  0.1549  0.1976
  970POPC   C1A13115  11.490   8.288   6.362  0.1973  0.0169  0.1833
  970POPC   D2A13116  11.775   8.128   6.697 -0.0261  0.2670 -0.1434
  970POPC   C3A13117  11.779   8.159   7.109  0.1387 -0.2487 -0.0560
  970POPC   C4A13118  11.733   8.197   7.629 -0.0207  0.0221  0.1898
  970POPC   C1B13119  11.181   7.931   6.539  0.2775 -0.1087  0.3845
  970POPC   C2B13120  11.302   8.260   6.855 -0.1492  0.1821 -0.0200
  970POPC   C3B13121  11.182   8.362   7.285  0.3282 -0.3148  0.2228
  970POPC   C4B13122  11.031   8.652   7.562 -0.0831  0.1227 -0.0045
  971POPC   NC313123   6.872   2.765   5.404 -0.2132  0.0828  0.0243
  971POPC   PO413124   6.995   2.967   5.772  0.3562  0.0692 -0.3642
  971POPC   GL113125   6.988   2.773   6.210  0.0483  0.0187  0.0381
  971POPC   GL213126   6.724   2.745   6.262  0.1891  0.1255 -0.4122
  971POPC   C1A13127   7.066   2.584   6.624 -0.1348  0.0571  0.2301
  971POPC   D2A13128   7.209   2.338   6.903 -0.0212 -0.1786 -0.2179
  971POPC   C3A13129   7.380   2.355   7.385  0.2433  0.0194 -0.1049
  971POPC   C4A13130   7.476   2.767   7.510  0.1735  0.0434  0.3773
  971POPC   C1B13131   6.548   2.698   6.745  0.0634  0.3561 -0.1845
  971POPC   C2B13132   6.441   2.818   7.109 -0.1647  0.2830  0.2404
  971POPC   C3B13133   6.285   2.815   7.501  0.0146  0.0247  0.1377
  971POPC   C4B13134   5.903   2.517   7.569 -0.0893 -0.1806 -0.2320
  972POPC   NC313135   0.049  18.257   5.494 -0.1116 -0.0502  0.1144
  972POPC   PO413136   0.260  18.278   5.837 -0.1368  0.1578  0.1382
  972POPC   GL113137   0.289  18.216   6.212  0.3188  0.1491  0.0800
  972POPC   GL213138   0.486  18.412   6.286 -0.1121 -0.0581  0.0627
  972POPC   C1A13139   0.266  17.923   6.584  0.0648 -0.0512  0.1598
  972POPC   D2A13140   0.367  17.701   6.936  0.0757  0.0366  0.1159
  972POPC   C3A13141   0.731  17.789   7.185 -0.2407  0.0774 -0.1129
  972POPC   C4A13142   1.147  17.806   6.974  0.1386 -0.1140  0.0165
  972POPC   C1B13143   0.234  18.429   6.662 -0.0563 -0.1208 -0.2551
  972POPC   C2B13144   0.202  18.563   7.038 -0.1160  0.0164  0.0339
  972POPC   C3B13145   0.077  18.754   7.433 -0.1558  0.2762  0.1551
  972POPC   C4B13146  -0.401  18.896   7.656 -0.0341  0.1494  0.2430
  973POPC   NC313147  18.181  16.931   5.495 -0.0735 -0.0824 -0.0622
  973POPC   PO413148  18.518  16.917   5.703 -0.3932  0.2716 -0.0866
  973POPC   GL113149  18.509  16.746   6.095 -0.0192 -0.0673 -0.0398
  973POPC   GL213150  18.601  16.436   6.119  0.0027  0.0517 -0.3542
  973POPC   C1A13151  18.458  16.769   6.590  0.2832 -0.1302  0.1549
  973POPC   D2A13152  18.524  16.879   7.022 -0.2908 -0.0115  0.0308
  973POPC   C3A13153  18.560  17.047   7.425 -0.0250 -0.1098  0.1428
  973POPC   C4A13154  18.831  17.071   7.875 -0.0706 -0.1643 -0.0647
  973POPC   C1B13155  18.842  16.488   6.463 -0.2581 -0.3365 -0.2735
  973POPC   C2B13156  18.814  16.438   6.883  0.1185  0.1343  0.1845
  973POPC   C3B13157  18.718  16.411   7.328 -0.1703  0.1840 -0.0691
  973POPC   C4B13158  18.486  16.136   7.594 -0.3006 -0.0232 -0.2030
  974POPC   NC313159  12.331   5.125   5.520  0.2181 -0.4500  0.0151
  974POPC   PO413160  12.134   5.350   5.824  0.0211  0.0195  0.0099
  974POPC   GL113161  12.301   5.250   6.186  0.2409  0.0306  0.1225
  974POPC   GL213162  12.000   4.996   6.210 -0.0783 -0.3441 -0.1739
  974POPC   C1A13163  12.363   5.422   6.617  0.0198  0.0702  0.1019
  974POPC   D2A13164  12.407   5.326   7.087 -0.0472 -0.2797  0.0017
  974POPC   C3A13165  12.294   5.655   7.338 -0.0780  0.0881 -0.0768
  974POPC   C4A13166  11.954   5.778   7.735 -0.1754  0.1269  0.2599
  974POPC   C1B13167  12.106   4.982   6.645 -0.0212 -0.5132 -0.0954
  974POPC   C2B13168  11.963   5.018   7.051 -0.0666 -0.0722 -0.0664
  974POPC   C3B13169  11.701   4.753   7.397 -0.3140  0.0807 -0.1270
  974POPC   C4B13170  11.615   4.512   7.795  0.0781  0.0048 -0.2615
  975POPC   NC313171   9.212  17.418   5.848  0.2562 -0.1830  0.0997
  975POPC   PO413172   9.189  17.018   6.069 -0.1373 -0.1635  0.0874
  975POPC   GL113173   9.384  16.918   6.505 -0.0092 -0.0540  0.1880
  975POPC   GL213174   9.651  16.852   6.539 -0.1549  0.1349  0.2188
  975POPC   C1A13175   9.382  16.850   6.936 -0.2798 -0.3142 -0.1224
  975POPC   D2A13176   9.510  16.980   7.329 -0.0599 -0.1708 -0.0569
  975POPC   C3A13177   9.229  17.166   7.542 -0.0838  0.1302 -0.3511
  975POPC   C4A13178   8.823  17.029   7.722  0.2315  0.4651 -0.3464
  975POPC   C1B13179   9.679  17.197   6.756  0.3606 -0.2495  0.2726
  975POPC   C2B13180   9.587  17.384   7.061  0.1678 -0.2718 -0.3384
  975POPC   C3B13181   9.661  17.481   7.442  0.0173 -0.2660 -0.0814
  975POPC   C4B13182   9.463  17.622   7.933  0.2641 -0.0812 -0.0527
  976POPC   NC313183   8.827   0.572   6.027 -0.1239  0.0919 -0.0103
  976POPC   PO413184   9.040   0.184   6.153  0.1236 -0.0899 -0.1161
  976POPC   GL113185   9.032   0.386   6.461  0.3519  0.2096  0.1440
  976POPC   GL213186   9.295   0.472   6.591 -0.0480  0.0965  0.0600
  976POPC   C1A13187   8.895   0.298   6.922 -0.0995 -0.0169  0.1294
  976POPC   D2A13188   8.623   0.233   7.351  0.1229 -0.1611  0.0783
  976POPC   C3A13189   8.124   0.293   7.263 -0.1640  0.3348 -0.0639
  976POPC   C4A13190   7.763   0.244   7.516  0.2710 -0.3214  0.1912
  976POPC   C1B13191   9.374   0.350   7.076  0.2295  0.0221 -0.0851
  976POPC   C2B13192   9.069   0.300   7.404  0.0278 -0.0461 -0.1781
  976POPC   C3B13193   9.014   0.290   7.776  0.1612 -0.0251 -0.3100
  976POPC   C4B13194   9.119  -0.001   8.131  0.0672  0.0237  0.0291
  977POPC   NC313195  18.233   6.782   5.362  0.0319 -0.4029  0.0250
  977POPC   PO413196  18.489   6.630   5.595  0.0293  0.0289 -0.2740
  977POPC   GL113197  18.105   6.550   5.856 -0.3026  0.2141 -0.3361
  977POPC   GL213198  18.208   6.771   6.040  0.4153 -0.2200  0.1692
  977POPC   C1A13199  17.833   6.376   6.186  0.1605 -0.0201  0.0376
  977POPC   D2A13200  17.883   6.671   6.543 -0.1109  0.3868 -0.3098
  977POPC   C3A13201  18.293   6.627   6.829  0.2470 -0.1268 -0.2624
  977POPC   C4A13202  18.619   6.828   7.054 -0.1645  0.2451  0.1631
  977POPC   C1B13203  18.310   6.472   6.301  0.3229  0.0476  0.2030
  977POPC   C2B13204  18.469   5.998   6.517  0.0082  0.1258 -0.1165
  977POPC   C3B13205  18.851   5.797   6.557 -0.0662 -0.2606  0.1786
  977POPC   C4B13206  19.295   5.875   6.643 -0.0893 -0.2063 -0.1006
  978POPC   NC313207   3.907  10.629   5.382  0.2781  0.0337 -0.1364
  978POPC   PO413208   3.496  10.525   5.490 -0.0928 -0.2814  0.0120
  978POPC   GL113209   3.425  10.700   5.881 -0.0555  0.1416 -0.0157
  978POPC   GL213210   3.412  10.522   6.118  0.0519  0.0556  0.1326
  978POPC   C1A13211   3.413  11.030   6.252  0.3387 -0.3600 -0.1188
  978POPC   D2A13212   3.139  11.192   6.445 -0.0730  0.5418  0.1975
  978POPC   C3A13213   3.146  11.428   6.964 -0.0811  0.0679 -0.1556
  978POPC   C4A13214   2.996  11.498   7.349  0.0342 -0.0718  0.1596
  978POPC   C1B13215   3.382  10.189   6.484  0.1705 -0.1823 -0.0192
  978POPC   C2B13216   3.620  10.354   6.899 -0.1753  0.0262  0.0492
  978POPC   C3B13217   3.876  10.120   7.293  0.1294 -0.0065  0.1740
  978POPC   C4B13218   4.094  10.118   7.673 -0.0971  0.1203  0.0617
  979POPC   NC313219   7.649  17.589   6.091  0.0636 -0.0385  0.1253
  979POPC   PO413220   7.281  17.422   6.290 -0.2876 -0.0788 -0.0887
  979POPC   GL113221   7.289  17.471   6.698  0.2090  0.1937 -0.1406
  979POPC   GL213222   7.513  17.734   6.623 -0.3060 -0.3284  0.3926
  979POPC   C1A13223   7.303  17.411   7.193 -0.1048 -0.0463 -0.3213
  979POPC   D2A13224   7.307  17.451   7.575  0.3573 -0.3047  0.3309
  979POPC   C3A13225   7.457  17.282   7.973 -0.0760  0.4314  0.2359
  979POPC   C4A13226   7.690  17.167   8.290 -0.1402  0.1703  0.1888
  979POPC   C1B13227   7.427  17.856   7.045  0.3158  0.0577 -0.2136
  979POPC   C2B13228   7.598  17.857   7.447  0.1816 -0.0924 -0.3011
  979POPC   C3B13229   7.952  18.062   7.751 -0.0824  0.0594  0.0381
  979POPC   C4B13230   8.121  18.095   8.137 -0.0794 -0.0397  0.2681
  980POPC   NC313231   7.487  16.947   6.338  0.1335 -0.0089  0.0689
  980POPC   PO413232   7.761  17.283   6.511 -0.2183 -0.0174 -0.0018
  980POPC   GL113233   7.951  17.276   6.772  0.0162  0.2727 -0.1140
  980POPC   GL213234   7.724  17.500   7.015 -0.1081 -0.0140  0.1524
  980POPC   C1A13235   8.237  17.255   7.103  0.0649  0.3579  0.1240
  980POPC   D2A13236   8.275  17.125   7.573 -0.0562 -0.0990 -0.1517
  980POPC   C3A13237   8.444  17.286   7.947 -0.1894 -0.0533  0.1162
  980POPC   C4A13238   8.670  17.519   8.218 -0.2618  0.2023  0.0396
  980POPC   C1B13239   7.741  17.273   7.401  0.0504  0.0044 -0.0431
  980POPC   C2B13240   7.869  17.062   7.772  0.0050  0.0759 -0.0905
  980POPC   C3B13241   7.885  16.750   8.056 -0.2172  0.0917  0.0437
  980POPC   C4B13242   7.649  16.509   8.318 -0.2300 -0.1109  0.1513
  981POPC   NC313243   7.571  16.186   6.113  0.2024  0.2492 -0.0640
  981POPC   PO413244   7.662  16.515   6.396 -0.0087  0.0085  0.2266
  981POPC   GL113245   7.482  16.260   6.653  0.0554 -0.1282 -0.3397
  981POPC   GL213246   7.194  16.323   6.473 -0.0436  0.0754 -0.2678
  981POPC   C1A13247   7.553  16.239   7.044  0.0446  0.0960  0.2272
  981POPC   D2A13248   7.724  16.394   7.335 -0.1457 -0.0999  0.1330
  981POPC   C3A13249   7.659  16.443   7.759 -0.1139  0.0859 -0.0301
  981POPC   C4A13250   7.562  16.087   8.030  0.0452 -0.0962 -0.4291
  981POPC   C1B13251   6.989  16.221   6.784  0.2044 -0.1864  0.2404
  981POPC   C2B13252   7.096  16.259   7.188 -0.0649 -0.2890 -0.2701
  981POPC   C3B13253   7.262  16.246   7.541 -0.3069  0.2127 -0.2451
  981POPC   C4B13254   7.697  15.952   7.575  0.0362 -0.3107 -0.2101
  982YOPC   NC313255  17.853   5.174   5.976 -0.3281  0.0166 -0.4252
  982YOPC   PO413256  17.468   5.299   5.862 -0.1263  0.1363  0.3223
  982YOPC   GL113257  17.109   5.514   6.147  0.1188  0.1122  0.2212
  982YOPC   GL213258  17.171   5.876   6.088 -0.1487  0.0062 -0.0288
  982YOPC   C1A13259  17.194   5.684   6.530 -0.1948 -0.0745 -0.2823
  982YOPC   D2A13260  16.939   5.821   6.831  0.2793 -0.1434  0.1038
  982YOPC   C3A13261  16.852   5.662   7.239  0.1166  0.1351 -0.0578
  982YOPC   C4A13262  16.843   5.554   7.661  0.0786 -0.0442 -0.1376
  982YOPC   C1B13263  16.741   5.942   6.293  0.0916  0.0761 -0.1512
  982YOPC   C2B13264  16.577   6.191   6.625  0.1814 -0.2923 -0.1674
  982YOPC   D3B13265  16.359   5.958   7.016  0.0584  0.5321  0.0383
  982YOPC   C4B13266  16.400   5.762   7.362 -0.3644  0.0343  0.0444
  983YOPC   NC313267   3.747  13.796   5.576 -0.1684 -0.0588 -0.1147
  983YOPC   PO413268   3.557  13.356   5.715  0.0755  0.1060  0.4845
  983YOPC   GL113269   3.557  13.207   6.061  0.1932 -0.0687  0.1438
  983YOPC   GL213270   3.461  12.900   6.009  0.0032  0.1370  0.0513
  983YOPC   C1A13271   3.842  13.344   6.385  0.2556 -0.0845 -0.0546
  983YOPC   D2A13272   3.935  13.524   6.893  0.0538 -0.2490  0.1631
  983YOPC   C3A13273   4.116  13.349   7.246 -0.0436 -0.2833  0.1519
  983YOPC   C4A13274   4.379  13.292   7.601 -0.2769 -0.0511 -0.4687
  983YOPC   C1B13275   3.426  12.919   6.481  0.1804 -0.1917 -0.2078
  983YOPC   C2B13276   3.499  12.990   6.917 -0.0612 -0.3927 -0.2643
  983YOPC   D3B13277   3.404  12.723   7.200 -0.0610 -0.3374  0.0882
  983YOPC   C4B13278   3.419  12.302   7.084  0.2348  0.0015 -0.0978
  984YOPC   NC313279   3.038  10.496   5.506 -0.1364 -0.2138  0.0172
  984YOPC   PO413280   2.831  10.413   5.915  0.3984  0.0150 -0.2829
  984YOPC   GL113281   2.880  10.233   6.362  0.3743 -0.4559  0.0519
  984YOPC   GL213282   2.798  10.454   6.485  0.1407 -0.3188 -0.1638
  984YOPC   C1A13283   2.823   9.987   6.679 -0.2652  0.2954 -0.1569
  984YOPC   D2A13284   2.839   9.822   7.110 -0.3332 -0.1078  0.1011
  984YOPC   C3A13285   2.984  10.094   7.379 -0.2881  0.2869  0.0830
  984YOPC   C4A13286   2.797  10.533   7.426 -0.1263 -0.0543  0.1641
  984YOPC   C1B13287   3.054  10.364   6.959 -0.1258 -0.0726  0.2858
  984YOPC   C2B13288   3.286  10.514   7.263  0.2389  0.0206 -0.0308
  984YOPC   D3B13289   3.203  10.669   7.707  0.0904 -0.2303  0.0550
  984YOPC   C4B13290   3.355  10.581   8.068  0.3440 -0.1794 -0.1629
  985YOPC   NC313291   4.271  10.275   6.018  0.0183  0.0214  0.1758
  985YOPC   PO413292   4.275  10.620   5.701 -0.0456  0.1169  0.4380
  985YOPC   GL113293   4.367  10.739   6.155  0.0394 -0.1934 -0.1679
  985YOPC   GL213294   4.371  11.060   6.246  0.1643 -0.3069 -0.1995
  985YOPC   C1A13295   4.424  10.694   6.669  0.3077 -0.3964  0.0643
  985YOPC   D2A13296   4.657  10.611   7.082 -0.1046  0.3318  0.0038
  985YOPC   C3A13297   4.408  10.654   7.448 -0.0886  0.1526  0.0923
  985YOPC   C4A13298   4.412  10.525   7.932  0.1003 -0.0809 -0.0394
  985YOPC   C1B13299   4.215  11.179   6.660  0.1429  0.1015 -0.2009
  985YOPC   C2B13300   4.116  11.177   7.183  0.1766  0.2723  0.0068
  985YOPC   D3B13301   4.064  11.533   7.443  0.0283 -0.2303 -0.2888
  985YOPC   C4B13302   4.211  11.830   7.654 -0.1186  0.0925 -0.2632
  986YOPC   NC313303  10.129   2.356   5.881  0.1001 -0.1596 -0.0008
  986YOPC   PO413304  10.560   2.261   5.894 -0.0737 -0.1717  0.0740
  986YOPC   GL113305  10.627   2.551   6.274  0.0677 -0.0511 -0.1093
  986YOPC   GL213306  10.419   2.185   6.345 -0.0758 -0.0451  0.0007
  986YOPC   C1A13307  10.651   2.904   6.679 -0.1009 -0.1500 -0.1467
  986YOPC   D2A13308  10.881   2.968   6.961 -0.2385 -0.1362 -0.0855
  986YOPC   C3A13309  10.778   2.977   7.365  0.0773 -0.1538 -0.1381
  986YOPC   C4A13310  10.906   3.043   7.783 -0.1276  0.0262  0.1295
  986YOPC   C1B13311  10.508   2.434   6.736  0.2020  0.2529  0.0289
  986YOPC   C2B13312  10.543   2.514   7.207 -0.2774 -0.1667  0.2968
  986YOPC   D3B13313  10.660   2.501   7.613  0.1560 -0.1874 -0.0092
  986YOPC   C4B13314  10.695   2.685   7.997 -0.0672 -0.1420  0.3192
  987YOPC   NC313315  10.309  14.029   5.714  0.1023 -0.1593  0.0250
  987YOPC   PO413316  10.327  14.358   6.062  0.0793  0.1369 -0.1254
  987YOPC   GL113317  10.132  14.117   6.394 -0.0585 -0.1684  0.5361
  987YOPC   GL213318  10.150  13.857   6.220  0.3751 -0.1374  0.0027
  987YOPC   C1A13319   9.966  14.197   6.792 -0.2643 -0.0409  0.0733
  987YOPC   D2A13320  10.059  14.042   7.167  0.2891  0.0299  0.0767
  987YOPC   C3A13321  10.074  14.176   7.507 -0.0986  0.0286 -0.0172
  987YOPC   C4A13322   9.990  14.420   7.925  0.1724  0.0968 -0.3464
  987YOPC   C1B13323  10.223  13.663   6.664 -0.1306  0.0723 -0.1733
  987YOPC   C2B13324  10.361  13.569   7.086 -0.3217  0.4381 -0.0895
  987YOPC   D3B13325  10.772  13.602   7.425 -0.1254 -0.2790  0.2804
  987YOPC   C4B13326  11.065  13.681   7.744  0.0813 -0.3262  0.2423
  988YOPC   NC313327   6.645   5.248   5.964  0.0680  0.0631 -0.1501
  988YOPC   PO413328   6.617   5.755   5.843 -0.1011  0.1469  0.0700
  988YOPC   GL113329   6.772   5.658   6.207  0.3067  0.1637 -0.2541
  988YOPC   GL213330   6.745   5.419   6.387  0.1358  0.0285  0.2189
  988YOPC   C1A13331   7.013   5.887   6.502 -0.0292  0.0328 -0.1558
  988YOPC   D2A13332   7.313   6.160   6.674  0.2453  0.0164  0.2332
  988YOPC   C3A13333   7.284   6.403   7.115  0.1150  0.1576  0.3672
  988YOPC   C4A13334   7.297   6.306   7.590  0.0383  0.2741 -0.0553
  988YOPC   C1B13335   6.867   5.168   6.644  0.3024  0.3134  0.0440
  988YOPC   C2B13336   6.810   4.915   6.799 -0.1934 -0.0993 -0.2537
  988YOPC   D3B13337   7.110   4.726   7.033  0.2103 -0.1235 -0.1238
  988YOPC   C4B13338   7.226   4.767   7.430  0.0014 -0.0139  0.1808
  989YOPC   NC313339  12.943  10.569   5.611 -0.2161 -0.1900 -0.2318
  989YOPC   PO413340  13.284  10.800   5.790  0.0190  0.2464 -0.0416
  989YOPC   GL113341  13.327  10.973   6.248 -0.0868 -0.0261 -0.1074
  989YOPC   GL213342  13.629  10.846   6.279  0.0762 -0.0551  0.0463
  989YOPC   C1A13343  13.239  11.329   6.619  0.2251 -0.1663 -0.3697
  989YOPC   D2A13344  13.138  11.746   6.746  0.1295  0.1735  0.1131
  989YOPC   C3A13345  13.386  11.832   7.162  0.1423  0.0399 -0.3164
  989YOPC   C4A13346  13.735  11.832   7.468  0.2062  0.1072  0.1903
  989YOPC   C1B13347  13.725  10.943   6.701  0.2821  0.0302  0.0080
  989YOPC   C2B13348  13.775  10.985   7.090  0.2637  0.0203  0.1895
  989YOPC   D3B13349  13.812  11.367   7.348 -0.1489  0.2443 -0.0278
  989YOPC   C4B13350  13.948  11.468   7.805  0.1495 -0.1486 -0.2399
  990YOPC   NC313351   0.794   3.258   5.811  0.0553 -0.3515 -0.0449
  990YOPC   PO413352   0.677   2.831   5.938 -0.0273  0.2634  0.1547
  990YOPC   GL113353   0.702   2.779   6.347  0.1499 -0.0439  0.1410
  990YOPC   GL213354   0.504   2.593   6.381 -0.1937  0.0582  0.1671
  990YOPC   C1A13355   0.556   2.810   6.851  0.3316  0.0413  0.0048
  990YOPC   D2A13356   0.562   2.663   7.207 -0.3039 -0.2479 -0.1202
  990YOPC   C3A13357   0.568   2.766   7.626 -0.0580  0.1607 -0.0396
  990YOPC   C4A13358   0.638   2.764   8.044  0.1634  0.2352  0.2505
  990YOPC   C1B13359   0.629   2.357   6.772 -0.0340  0.1518  0.0283
  990YOPC   C2B13360   0.522   2.078   6.992 -0.1172 -0.2848 -0.0443
  990YOPC   D3B13361   0.693   1.846   7.376  0.1964 -0.1142  0.1668
  990YOPC   C4B13362   0.668   1.453   7.633 -0.1131 -0.0950 -0.1698
  991YOPC   NC313363   3.094  13.209   5.777 -0.1321 -0.2225  0.0289
  991YOPC   PO413364   3.005  12.690   5.944 -0.2392 -0.0483  0.2943
  991YOPC   GL113365   2.990  12.548   6.290 -0.1283  0.1689  0.1348
  991YOPC   GL213366   2.745  12.285   6.265  0.0179 -0.0974  0.0877
  991YOPC   C1A13367   3.130  12.641   6.808  0.3534  0.0896  0.4099
  991YOPC   D2A13368   2.951  12.443   7.154 -0.1038 -0.1449  0.0102
  991YOPC   C3A13369   3.215  12.487   7.561 -0.1856 -0.0996  0.1965
  991YOPC   C4A13370   3.658  12.594   7.815  0.4915 -0.0998  0.1181
  991YOPC   C1B13371   2.500  12.122   6.558 -0.0303 -0.1119  0.0377
  991YOPC   C2B13372   2.493  12.122   7.016 -0.1936  0.0386  0.4689
  991YOPC   D3B13373   2.406  11.767   7.160 -0.0683 -0.0444 -0.1241
  991YOPC   C4B13374   2.545  11.512   7.581  0.1455  0.3343  0.1270
  992YOPC   NC313375   2.084   6.228   5.805  0.3366  0.1449 -0.2960
  992YOPC   PO413376   1.875   6.616   5.704  0.1463  0.0254 -0.0645
  992YOPC   GL113377   1.948   6.731   6.116  0.1665 -0.0232  0.2982
  992YOPC   GL213378   2.208   6.841   6.299  0.1253  0.0584 -0.2672
  992YOPC   C1A13379   1.818   6.495   6.453  0.2051 -0.0912 -0.2308
  992YOPC   D2A13380   1.900   6.340   6.794 -0.0751  0.1784  0.1181
  992YOPC   C3A13381   2.276   6.496   7.002  0.2389  0.3277 -0.2611
  992YOPC   C4A13382   2.465   6.640   7.389  0.2443  0.0572 -0.0886
  992YOPC   C1B13383   2.118   6.892   6.660  0.0523  0.1991 -0.0205
  992YOPC   C2B13384   1.765   6.915   6.902  0.0644  0.1231 -0.0548
  992YOPC   D3B13385   1.673   6.576   7.212  0.3161  0.0718  0.0940
  992YOPC   C4B13386   1.514   6.188   7.174 -0.4007  0.2861 -0.2334
  993YOPC   NC313387  14.461  13.316   5.566  0.0869  0.2370  0.1840
  993YOPC   PO413388  14.294  13.791   5.754 -0.2782 -0.0804 -0.1845
  993YOPC   GL113389  14.236  13.826   6.171 -0.0554 -0.2083  0.0060
  993YOPC   GL213390  13.927  13.793   6.211 -0.0388  0.2121 -0.4136
  993YOPC   C1A13391  14.369  14.074   6.539 -0.0614 -0.1622  0.1169
  993YOPC   D2A13392  14.378  14.038   6.959 -0.1562 -0.0733 -0.2005
  993YOPC   C3A13393  14.262  14.341   7.281 -0.0436  0.0971  0.2584
  993YOPC   C4A13394  14.345  14.745   7.445 -0.4495 -0.0563  0.1150
  993YOPC   C1B13395  14.011  13.786   6.607  0.2423 -0.1942 -0.4213
  993YOPC   C2B13396  13.955  13.631   7.064  0.0965 -0.2554 -0.2818
  993YOPC   D3B13397  14.012  13.775   7.332 -0.1386  0.0237  0.1006
  993YOPC   C4B13398  13.847  14.083   7.595 -0.1303 -0.0962  0.1186
  994YOPC   NC313399   8.614  17.340   6.094 -0.0472 -0.0393 -0.2389
  994YOPC   PO413400   8.385  17.084   6.216 -0.1246  0.0191  0.4015
  994YOPC   GL113401   8.511  17.250   6.554  0.2933  0.1245  0.2359
  994YOPC   GL213402   8.526  16.956   6.744  0.0658 -0.1676  0.1915
  994YOPC   C1A13403   8.423  17.574   6.754 -0.1048 -0.5606  0.1653
  994YOPC   D2A13404   8.660  17.842   6.992 -0.0928 -0.1799  0.0341
  994YOPC   C3A13405   8.748  17.666   7.443  0.1434 -0.0766  0.1040
  994YOPC   C4A13406   8.913  17.459   7.814  0.1459 -0.0377  0.1279
  994YOPC   C1B13407   8.159  16.779   6.947  0.1548 -0.1887  0.0173
  994YOPC   C2B13408   7.940  16.843   7.317 -0.0337  0.0665 -0.0241
  994YOPC   D3B13409   8.176  16.602   7.686 -0.0702 -0.0253  0.2131
  994YOPC   C4B13410   8.380  16.691   8.026 -0.0026 -0.0882 -0.2718
  995YOPC   NC313411   5.160   8.748   5.690  0.2265 -0.0466  0.1869
  995YOPC   PO413412   4.822   8.593   5.902  0.1599 -0.0417 -0.0391
  995YOPC   GL113413   4.977   8.915   6.163  0.0910 -0.1378  0.0385
  995YOPC   GL213414   5.331   9.017   6.071  0.1893 -0.0811  0.2373
  995YOPC   C1A13415   4.935   9.331   6.043  0.1015  0.0331 -0.0124
  995YOPC   D2A13416   4.754   9.620   6.266 -0.0054  0.2082  0.0063
  995YOPC   C3A13417   4.918   9.805   6.483 -0.0454  0.2472  0.2089
  995YOPC   C4A13418   5.184   9.888   6.860  0.4174  0.1028  0.0143
  995YOPC   C1B13419   5.287   8.992   6.503 -0.0016 -0.0094  0.1005
  995YOPC   C2B13420   5.311   8.964   6.945 -0.0129  0.2318  0.1377
  995YOPC   D3B13421   5.341   9.004   7.287  0.1977 -0.0123  0.1054
  995YOPC   C4B13422   5.315   8.984   7.703  0.1850  0.2055 -0.1065
  996YOPC   NC313423  15.497   5.246   5.448  0.0418 -0.0344  0.1228
  996YOPC   PO413424  15.911   5.164   5.608  0.1031 -0.1301 -0.0357
  996YOPC   GL113425  15.946   5.481   5.808  0.3200  0.0176 -0.1603
  996YOPC   GL213426  16.252   5.500   6.063  0.2342 -0.1478  0.0629
  996YOPC   C1A13427  15.817   5.783   6.086  0.1948 -0.1762  0.0633
  996YOPC   D2A13428  15.969   6.304   6.282 -0.0752  0.0152 -0.1149
  996YOPC   C3A13429  15.983   6.457   6.748 -0.0014  0.0047  0.0461
  996YOPC   C4A13430  15.993   6.404   7.232 -0.1292  0.3511 -0.3626
  996YOPC   C1B13431  16.049   5.354   6.404  0.0662  0.1635  0.2265
  996YOPC   C2B13432  15.924   5.417   6.773 -0.1099 -0.0306  0.0163
  996YOPC   D3B13433  16.305   5.416   6.971 -0.1464 -0.1372  0.1888
  996YOPC   C4B13434  16.472   5.233   7.322  0.1422 -0.0213 -0.0032
  997YOPC   NC313435   2.897  14.051   5.671 -0.3481 -0.1306 -0.1026
  997YOPC   PO413436   2.998  13.747   5.896 -0.0879  0.0277 -0.2790
  997YOPC   GL113437   3.011  13.899   6.336  0.1597  0.1953 -0.0256
  997YOPC   GL213438   3.322  14.121   6.431 -0.0158  0.1062  0.1849
  997YOPC   C1A13439   3.072  13.830   6.844 -0.1374 -0.1784 -0.0582
  997YOPC   D2A13440   2.786  13.896   7.223 -0.1165  0.1045  0.2071
  997YOPC   C3A13441   2.699  14.032   7.633 -0.1655 -0.0314 -0.0570
  997YOPC   C4A13442   2.538  13.852   7.995 -0.3123  0.1544 -0.0447
  997YOPC   C1B13443   3.732  13.806   6.540 -0.1142 -0.0863  0.0354
  997YOPC   C2B13444   4.139  13.933   6.583 -0.0136  0.2787 -0.1357
  997YOPC   D3B13445   4.187  14.359   6.672  0.0743  0.1516  0.5069
  997YOPC   C4B13446   4.267  14.505   7.096  0.3304  0.0989 -0.1615
  998YOPC   NC313447   0.383  10.436   4.908  0.0564  0.1129  0.1372
  998YOPC   PO413448   0.236  10.690   5.223 -0.0108  0.1776  0.3091
  998YOPC   GL113449   0.045  10.966   5.509 -0.1857 -0.2677 -0.0560
  998YOPC   GL213450   0.180  11.013   5.768 -0.2090 -0.1181 -0.1068
  998YOPC   C1A13451  -0.343  11.118   5.748 -0.2660 -0.1670  0.1811
  998YOPC   D2A13452  -0.717  11.194   5.903 -0.1548 -0.0666  0.0095
  998YOPC   C3A13453  -0.735  11.322   6.373 -0.1455  0.1262  0.0967
  998YOPC   C4A13454  -0.531  11.303   6.773  0.2256 -0.3580 -0.1622
  998YOPC   C1B13455   0.427  10.868   6.131  0.1334  0.1988  0.2190
  998YOPC   C2B13456   0.448  10.816   6.553 -0.2178  0.0301  0.2868
  998YOPC   D3B13457   0.144  10.658   6.958 -0.1983 -0.1115  0.0285
  998YOPC   C4B13458   0.296  10.520   7.352 -0.1159  0.3860  0.1300
  999YOPC   NC313459   2.547  12.697   5.772  0.1341 -0.0493  0.1612
  999YOPC   PO413460   2.167  12.938   5.886 -0.1124  0.0857 -0.0405
  999YOPC   GL113461   2.076  12.952   6.351  0.0674  0.1187  0.0238
  999YOPC   GL213462   2.353  13.222   6.359  0.0323  0.0438 -0.2961
  999YOPC   C1A13463   1.887  12.993   6.766 -0.4979 -0.0000 -0.0139
  999YOPC   D2A13464   1.861  13.045   7.196  0.0447 -0.0206 -0.2028
  999YOPC   C3A13465   1.631  12.961   7.506 -0.0883 -0.1895 -0.1391
  999YOPC   C4A13466   1.338  12.955   7.842  0.0633 -0.1071  0.0193
  999YOPC   C1B13467   2.471  13.057   6.711 -0.2722 -0.2298 -0.3279
  999YOPC   C2B13468   2.369  12.956   7.046  0.0662  0.1797  0.1143
  999YOPC   D3B13469   2.053  12.637   7.162  0.2206  0.4045  0.0495
  999YOPC   C4B13470   1.731  12.573   7.123  0.1663  0.0960 -0.2371
 1000YOPC   NC313471  10.514   9.799   5.887  0.0824  0.0358 -0.0839
 1000YOPC   PO413472  10.630   9.374   5.973  0.0334  0.0639 -0.1034
 1000YOPC   GL113473  10.655   9.383   6.351 -0.2891  0.1142  0.2456
 1000YOPC   GL213474  10.695   9.736   6.356 -0.3848  0.1318  0.1636
 1000YOPC   C1A13475  10.852   9.341   6.705 -0.0927  0.3044 -0.0183
 1000YOPC   D2A13476  11.014   9.544   7.043 -0.2652  0.0824  0.4913
 1000YOPC   C3A13477  11.072   9.404   7.408  0.1294  0.0204  0.0523
 1000YOPC   C4A13478  11.276   9.103   7.670 -0.4215  0.2072 -0.0761
 1000YOPC   C1B13479  11.023   9.759   6.467  0.1066  0.1379 -0.2910
 1000YOPC   C2B13480  11.346   9.795   6.804  0.0482 -0.2299  0.0319
 1000YOPC   D3B13481  11.115  10.115   7.070 -0.0474  0.0593 -0.1650
 1000YOPC   C4B13482  11.062   9.939   7.526 -0.0891  0.0965  0.0550
 1001YOPC   NC313483   2.850   5.634   5.896  0.3718  0.3089  0.3863
 1001YOPC   PO413484   3.301   5.507   5.870 -0.2413  0.0070  0.0333
 1001YOPC   GL113485   3.609   5.302   6.251 -0.0858 -0.0216  0.2471
 1001YOPC   GL213486   3.379   5.053   6.207  0.1711  0.1681  0.0006
 1001YOPC   C1A13487   3.929   5.212   6.567  0.1755 -0.1784  0.2420
 1001YOPC   D2A13488   4.138   5.561   6.842 -0.1060 -0.1275  0.1900
 1001YOPC   C3A13489   3.859   5.879   7.041  0.2114 -0.2771  0.4141
 1001YOPC   C4A13490   3.784   5.919   7.502 -0.0915 -0.0182  0.0472
 1001YOPC   C1B13491   2.984   5.108   6.550  0.0169 -0.0715  0.3362
 1001YOPC   C2B13492   2.672   4.967   6.767 -0.0101 -0.0486 -0.0259
 1001YOPC   D3B13493   2.561   5.030   7.291 -0.1948  0.1170  0.1365
 1001YOPC   C4B13494   2.391   5.185   7.641 -0.1354  0.0021 -0.0885
 1002YOPC   NC313495  14.904   4.762   5.287  0.0833 -0.4604 -0.0163
 1002YOPC   PO413496  14.553   5.168   5.471 -0.1400  0.1024  0.0592
 1002YOPC   GL113497  14.586   5.303   5.887  0.4429 -0.1409 -0.0581
 1002YOPC   GL213498  14.872   5.388   6.006  0.1214 -0.2713 -0.1760
 1002YOPC   C1A13499  14.360   5.281   6.221  0.3986  0.1172 -0.1443
 1002YOPC   D2A13500  14.257   5.084   6.716 -0.0769 -0.1445 -0.1842
 1002YOPC   C3A13501  14.195   5.009   7.232 -0.0177 -0.1595 -0.2021
 1002YOPC   C4A13502  14.094   5.227   7.628  0.3216 -0.1497 -0.1421
 1002YOPC   C1B13503  15.134   5.453   6.330  0.2035 -0.0437 -0.2031
 1002YOPC   C2B13504  15.503   5.598   6.382  0.0440  0.2955 -0.2335
 1002YOPC   D3B13505  15.576   6.059   6.508 -0.4186 -0.1382 -0.2869
 1002YOPC   C4B13506  15.663   6.107   6.918  0.1011 -0.0646 -0.0160
 1003YOPC   NC313507  18.284   9.687   5.477  0.0217  0.1122  0.2210
 1003YOPC   PO413508  18.610   9.308   5.599  0.3010  0.2588  0.4650
 1003YOPC   GL113509  18.638   9.102   5.980  0.3146  0.0804 -0.3142
 1003YOPC   GL213510  18.786   8.868   5.976  0.1206 -0.0343  0.0368
 1003YOPC   C1A13511  18.756   9.259   6.304  0.0769  0.2811 -0.1548
 1003YOPC   D2A13512  18.567   9.104   6.647  0.0459  0.1201 -0.2885
 1003YOPC   C3A13513  18.385   8.661   6.710  0.1223  0.0721  0.2695
 1003YOPC   C4A13514  18.549   8.193   6.758  0.0468 -0.3546  0.0522
 1003YOPC   C1B13515  18.592   8.603   6.229  0.3885  0.0670 -0.1578
 1003YOPC   C2B13516  18.499   8.058   6.234 -0.0237  0.1144 -0.2154
 1003YOPC   D3B13517  18.562   7.697   6.582 -0.1076 -0.2597  0.2113
 1003YOPC   C4B13518  18.489   7.294   6.745 -0.0562  0.1948  0.2087
 1004YOPC   NC313519   9.758  11.607   5.430  0.0137  0.0474 -0.1099
 1004YOPC   PO413520   9.575  11.591   5.769 -0.1684  0.2342 -0.2002
 1004YOPC   GL113521   9.582  11.839   6.121  0.1372  0.0025 -0.1033
 1004YOPC   GL213522   9.251  11.911   6.142  0.1645 -0.0405  0.1601
 1004YOPC   C1A13523   9.629  12.198   6.416 -0.0221 -0.3228 -0.0323
 1004YOPC   D2A13524   9.768  12.194   6.755  0.0377  0.0408 -0.1567
 1004YOPC   C3A13525  10.108  12.040   6.818 -0.0659 -0.2400  0.3702
 1004YOPC   C4A13526  10.316  11.699   6.692  0.2317  0.0372  0.1060
 1004YOPC   C1B13527   9.253  11.676   6.530 -0.4552 -0.5156  0.2358
 1004YOPC   C2B13528   9.144  11.678   6.944  0.0212  0.1926 -0.0529
 1004YOPC   D3B13529   9.004  11.952   7.205 -0.1484  0.2243 -0.0528
 1004YOPC   C4B13530   8.983  12.220   7.491  0.1365 -0.2021 -0.2040
 1005YOPC   NC313531  14.490   8.565   5.906 -0.2108 -0.1446 -0.1059
 1005YOPC   PO413532  14.637   8.901   6.087 -0.3058  0.1381  0.2670
 1005YOPC   GL113533  14.789   8.982   6.458 -0.1630  0.0184 -0.2894
 1005YOPC   GL213534  14.434   9.014   6.546 -0.0901 -0.3223 -0.0126
 1005YOPC   C1A13535  15.033   9.054   6.779  0.2181 -0.1064  0.1465
 1005YOPC   D2A13536  15.202   8.876   7.148 -0.0815  0.3471 -0.0370
 1005YOPC   C3A13537  15.608   8.925   7.336 -0.4225  0.2942  0.0335
 1005YOPC   C4A13538  15.793   8.936   7.749  0.1153 -0.3276  0.1040
 1005YOPC   C1B13539  14.206   9.091   6.909 -0.2157  0.3245  0.0822
 1005YOPC   C2B13540  13.931   9.158   7.240 -0.1346 -0.2132  0.0598
 1005YOPC   D3B13541  13.775   8.800   7.401  0.0363  0.0779  0.0279
 1005YOPC   C4B13542  14.012   8.380   7.557 -0.0620 -0.0677  0.1221
 1006YOPC   NC313543   1.828  14.521   5.698 -0.2882  0.1790 -0.0847
 1006YOPC   PO413544   2.165  14.819   5.733 -0.3656  0.2216  0.0339
 1006YOPC   GL113545   2.296  14.783   6.174  0.2558 -0.1460 -0.1973
 1006YOPC   GL213546   2.641  14.708   6.148  0.0582  0.0087 -0.0755
 1006YOPC   C1A13547   2.086  14.818   6.528  0.2275 -0.2678  0.0687
 1006YOPC   D2A13548   1.765  15.024   6.669  0.1324  0.0116  0.2888
 1006YOPC   C3A13549   1.458  14.849   7.018 -0.1517 -0.0937  0.3624
 1006YOPC   C4A13550   1.176  14.797   7.320 -0.1003 -0.2912 -0.1656
 1006YOPC   C1B13551   2.516  14.565   6.631 -0.3410 -0.3353  0.3966
 1006YOPC   C2B13552   2.268  14.420   6.995  0.2038  0.4078  0.2323
 1006YOPC   D3B13553   2.643  14.462   7.317  0.1168  0.0306 -0.0027
 1006YOPC   C4B13554   3.067  14.322   7.316  0.0426  0.1244 -0.4232
 1007YOPC   NC313555   4.700  11.675   5.842 -0.2387 -0.2378 -0.1311
 1007YOPC   PO413556   4.671  11.313   5.840 -0.2154 -0.1645  0.1892
 1007YOPC   GL113557   4.744  11.343   6.195 -0.2973 -0.0150 -0.0165
 1007YOPC   GL213558   4.447  11.631   6.300  0.2727  0.2914  0.0334
 1007YOPC   C1A13559   4.743  11.316   6.615  0.1321 -0.2061 -0.1314
 1007YOPC   D2A13560   4.583  11.117   6.971 -0.2466 -0.1246 -0.0262
 1007YOPC   C3A13561   4.870  11.015   7.329 -0.2526 -0.1181  0.1194
 1007YOPC   C4A13562   4.872  11.021   7.817  0.0961 -0.2405  0.3624
 1007YOPC   C1B13563   4.408  11.739   6.739 -0.0294  0.1535  0.1557
 1007YOPC   C2B13564   4.447  11.545   7.184  0.2562 -0.0031  0.3733
 1007YOPC   D3B13565   4.639  11.788   7.401 -0.0916  0.0625  0.0127
 1007YOPC   C4B13566   4.761  11.871   7.882 -0.0094 -0.0553 -0.1020
 1008YOPC   NC313567  13.589   6.998   5.732 -0.0659 -0.1022  0.2536
 1008YOPC   PO413568  13.389   6.612   5.569  0.1706 -0.0267 -0.0167
 1008YOPC   GL113569  13.611   6.493   5.965 -0.0068 -0.2516 -0.1362
 1008YOPC   GL213570  13.498   6.679   6.229 -0.1933 -0.0533  0.1193
 1008YOPC   C1A13571  13.600   6.032   6.081 -0.1304 -0.0998  0.0527
 1008YOPC   D2A13572  14.046   5.704   6.216 -0.3029 -0.3067  0.1043
 1008YOPC   C3A13573  14.220   5.562   6.697 -0.0563 -0.2756  0.3855
 1008YOPC   C4A13574  13.872   5.348   7.023  0.1919  0.3426 -0.0731
 1008YOPC   C1B13575  13.335   7.109   6.424 -0.2412 -0.1632 -0.2670
 1008YOPC   C2B13576  13.041   7.376   6.857 -0.1125  0.1152  0.1344
 1008YOPC   D3B13577  12.675   7.246   6.747 -0.0115 -0.1330 -0.1005
 1008YOPC   C4B13578  12.452   7.209   6.413 -0.3468 -0.0444 -0.0604
 1009YOPC   NC313579  15.555  13.794   5.611 -0.0571  0.3475  0.2507
 1009YOPC   PO413580  15.850  14.138   5.667 -0.5852 -0.0115 -0.1167
 1009YOPC   GL113581  16.045  14.275   6.038  0.1803  0.2730 -0.0316
 1009YOPC   GL213582  15.835  14.594   6.094 -0.0295 -0.4719  0.2345
 1009YOPC   C1A13583  15.984  14.297   6.515 -0.0778  0.0317  0.0771
 1009YOPC   D2A13584  16.179  14.307   6.848  0.1058  0.2699 -0.2760
 1009YOPC   C3A13585  16.589  14.444   6.762  0.0649 -0.0524 -0.2774
 1009YOPC   C4A13586  17.052  14.620   6.898  0.0493 -0.0847 -0.2317
 1009YOPC   C1B13587  15.728  14.676   6.550 -0.1140  0.0895 -0.0801
 1009YOPC   C2B13588  15.813  14.552   6.977  0.1666 -0.0870 -0.0350
 1009YOPC   D3B13589  16.185  14.799   7.125 -0.0069 -0.0566  0.2364
 1009YOPC   C4B13590  16.480  14.582   7.230 -0.0635  0.1276  0.4405
 1010YOPC   NC313591  16.005   9.319   5.510  0.2577 -0.1635 -0.2074
 1010YOPC   PO413592  15.670   9.339   5.847 -0.0241 -0.1308  0.0258
 1010YOPC   GL113593  15.600   9.437   6.381  0.4409 -0.2326 -0.0555
 1010YOPC   GL213594  15.307   9.371   6.498  0.2049  0.3153  0.1406
 1010YOPC   C1A13595  15.831   9.639   6.821 -0.1052 -0.1538  0.1469
 1010YOPC   D2A13596  15.998   9.762   7.348 -0.0998  0.0590  0.3863
 1010YOPC   C3A13597  15.885  10.191   7.447  0.3916 -0.1254 -0.1927
 1010YOPC   C4A13598  15.963  10.404   7.784 -0.0497  0.2018  0.1114
 1010YOPC   C1B13599  15.472   9.298   6.894 -0.1920 -0.1196  0.0319
 1010YOPC   C2B13600  15.306   9.297   7.309 -0.0763 -0.2810  0.1951
 1010YOPC   D3B13601  15.677   9.409   7.609  0.1045  0.1141  0.1679
 1010YOPC   C4B13602  15.718   9.472   8.001 -0.1056  0.1867 -0.1547
 1011YOPC   NC313603  12.829  13.330   5.616 -0.2473  0.0970 -0.1671
 1011YOPC   PO413604  13.141  13.711   5.586  0.3704 -0.0845 -0.0703
 1011YOPC   GL113605  13.108  13.433   6.000  0.0481 -0.2518  0.0264
 1011YOPC   GL213606  13.371  13.387   6.034  0.2813 -0.0702  0.5253
 1011YOPC   C1A13607  13.050  13.382   6.483 -0.0495 -0.2679  0.0053
 1011YOPC   D2A13608  13.136  13.326   6.804  0.2681 -0.2224  0.2746
 1011YOPC   C3A13609  12.893  13.650   7.043 -0.1462  0.0547 -0.1918
 1011YOPC   C4A13610  12.929  13.750   7.497  0.1374  0.0436 -0.0096
 1011YOPC   C1B13611  13.629  13.389   6.298  0.0740  0.0505 -0.1610
 1011YOPC   C2B13612  13.804  13.111   6.506 -0.0676  0.2189  0.0417
 1011YOPC   D3B13613  13.700  13.217   6.852  0.0887 -0.2875  0.1398
 1011YOPC   C4B13614  13.678  13.259   7.247 -0.1779  0.3131  0.2178
 1012YOPC   NC313615   2.364  10.089   5.886 -0.4208 -0.2502 -0.0422
 1012YOPC   PO413616   2.416   9.628   5.805 -0.0003  0.3467  0.0690
 1012YOPC   GL113617   2.364   9.672   6.157 -0.0742  0.2612  0.2105
 1012YOPC   GL213618   2.604   9.768   6.285  0.2150 -0.1018 -0.4637
 1012YOPC   C1A13619   2.017   9.727   6.430  0.3500 -0.2368  0.5276
 1012YOPC   D2A13620   1.565   9.596   6.625 -0.1134 -0.1509  0.0002
 1012YOPC   C3A13621   1.191   9.778   6.479 -0.2136 -0.0852  0.0618
 1012YOPC   C4A13622   0.945  10.156   6.492 -0.2550  0.0237 -0.0869
 1012YOPC   C1B13623   2.450   9.687   6.701  0.0906  0.1742  0.2774
 1012YOPC   C2B13624   2.051   9.803   6.934  0.2034 -0.0056 -0.0274
 1012YOPC   D3B13625   1.855  10.150   7.258  0.0545 -0.1584  0.4629
 1012YOPC   C4B13626   1.467  10.202   7.387 -0.2002 -0.4693 -0.2576
 1013YOPC   NC313627   7.495   4.079   5.705  0.0951  0.4052 -0.1873
 1013YOPC   PO413628   7.676   3.683   5.668 -0.1044  0.0584 -0.2384
 1013YOPC   GL113629   7.641   3.796   6.096  0.1108 -0.1050  0.0452
 1013YOPC   GL213630   7.815   3.955   6.206  0.3263 -0.2113 -0.0994
 1013YOPC   C1A13631   7.539   3.439   6.498  0.0072  0.0538  0.2312
 1013YOPC   D2A13632   7.397   2.992   6.563 -0.2041 -0.3530 -0.0799
 1013YOPC   C3A13633   7.440   2.887   6.984  0.0128 -0.0113 -0.0389
 1013YOPC   C4A13634   7.246   3.153   7.252  0.1652 -0.2233 -0.0759
 1013YOPC   C1B13635   7.591   3.892   6.589  0.1101  0.1528 -0.0006
 1013YOPC   C2B13636   7.600   3.949   7.072  0.0215 -0.1875 -0.1293
 1013YOPC   D3B13637   7.848   3.505   7.393  0.3843 -0.2316  0.1887
 1013YOPC   C4B13638   7.591   3.278   7.569  0.0639  0.0655  0.0113
 1014YOPC   NC313639   6.256  12.656   5.750 -0.0714 -0.2939 -0.3154
 1014YOPC   PO413640   6.443  12.964   6.042  0.0182 -0.0891  0.5278
 1014YOPC   GL113641   6.573  12.574   6.216  0.0380  0.0544 -0.0374
 1014YOPC   GL213642   6.407  12.337   6.260 -0.0632  0.0993  0.1870
 1014YOPC   C1A13643   6.548  12.578   6.729  0.2828 -0.0975 -0.4623
 1014YOPC   D2A13644   6.456  12.700   7.149  0.1561  0.1600 -0.0235
 1014YOPC   C3A13645   6.390  12.386   7.434  0.0978 -0.0366  0.0210
 1014YOPC   C4A13646   6.629  12.097   7.781 -0.0434  0.1312 -0.0598
 1014YOPC   C1B13647   6.741  12.141   6.474  0.1778  0.1612  0.1823
 1014YOPC   C2B13648   6.949  12.326   6.840 -0.1765 -0.2899 -0.1149
 1014YOPC   D3B13649   6.667  12.197   7.082 -0.0537  0.2905 -0.4612
 1014YOPC   C4B13650   6.889  12.004   7.347  0.0389 -0.0189 -0.1449
 1015YOPC   NC313651  13.909   8.627   5.403 -0.1387 -0.2967  0.1327
 1015YOPC   PO413652  14.140   8.324   5.640 -0.0529  0.1793  0.0182
 1015YOPC   GL113653  13.984   8.654   5.917 -0.2906  0.1734 -0.2478
 1015YOPC   GL213654  14.154   8.723   6.219 -0.2294 -0.1099 -0.1898
 1015YOPC   C1A13655  13.727   8.496   6.292 -0.0103  0.0359 -0.1029
 1015YOPC   D2A13656  13.738   8.346   6.672 -0.0103  0.1882  0.1098
 1015YOPC   C3A13657  13.669   8.399   7.130  0.2049 -0.1372 -0.0393
 1015YOPC   C4A13658  13.560   8.195   7.512 -0.1450 -0.1402  0.3134
 1015YOPC   C1B13659  14.081   8.682   6.611 -0.1915 -0.2077 -0.1266
 1015YOPC   C2B13660  14.180   8.629   7.094  0.2401  0.2625 -0.0775
 1015YOPC   D3B13661  14.274   8.798   7.516  0.2353 -0.0048 -0.1598
 1015YOPC   C4B13662  14.514   9.012   7.909  0.0509  0.0886  0.0461
 1016YOPC   NC313663   0.982  16.561   5.790 -0.2691 -0.2263  0.0821
 1016YOPC   PO413664   1.218  16.876   5.970 -0.0972 -0.2496 -0.2651
 1016YOPC   GL113665   1.328  16.882   6.386  0.1872 -0.0211 -0.0992
 1016YOPC   GL213666   1.571  17.040   6.479  0.0857  0.1105  0.2823
 1016YOPC   C1A13667   1.190  16.761   6.815  0.1865  0.1688  0.0614
 1016YOPC   D2A13668   1.240  16.554   7.120  0.0506 -0.2234  0.1379
 1016YOPC   C3A13669   1.552  16.503   7.363 -0.3556 -0.1328  0.0103
 1016YOPC   C4A13670   1.930  16.451   7.511  0.3548 -0.1303  0.0460
 1016YOPC   C1B13671   1.649  17.149   6.864  0.2328  0.1842  0.0974
 1016YOPC   C2B13672   1.581  17.450   7.119  0.1127 -0.2136 -0.0160
 1016YOPC   D3B13673   1.635  17.433   7.574  0.0669 -0.0911 -0.0723
 1016YOPC   C4B13674   1.938  17.624   7.740  0.0534  0.1692 -0.1670
 1017YOPC   NC313675   8.345   4.533   5.594 -0.3104 -0.0619 -0.2987
 1017YOPC   PO413676   7.950   4.268   5.793 -0.0100  0.1240 -0.1941
 1017YOPC   GL113677   8.159   4.625   6.131  0.0914 -0.0538 -0.2687
 1017YOPC   GL213678   7.814   4.609   6.170 -0.0100  0.4481  0.0014
 1017YOPC   C1A13679   8.346   4.614   6.541 -0.2274  0.0155  0.1122
 1017YOPC   D2A13680   8.595   4.356   6.682  0.1747  0.2825  0.2128
 1017YOPC   C3A13681   8.870   4.380   7.069  0.0120  0.0876 -0.1475
 1017YOPC   C4A13682   9.163   4.483   7.341  0.0549 -0.1672  0.2691
 1017YOPC   C1B13683   7.862   4.765   6.568 -0.0777  0.2258 -0.0056
 1017YOPC   C2B13684   8.008   4.885   6.932 -0.1192 -0.2073  0.0162
 1017YOPC   D3B13685   8.359   4.729   7.006  0.0344  0.1812 -0.0201
 1017YOPC   C4B13686   8.691   4.743   7.309 -0.1062  0.1679  0.1459
 1018YOPC   NC313687   1.393   8.746   5.625 -0.1602 -0.1546  0.0452
 1018YOPC   PO413688   1.613   8.447   5.861  0.0304  0.2451  0.0356
 1018YOPC   GL113689   1.667   8.326   6.257  0.0386  0.1555 -0.1117
 1018YOPC   GL213690   1.924   8.528   6.410  0.1372  0.0910  0.0776
 1018YOPC   C1A13691   1.474   8.252   6.680 -0.0720  0.1429  0.4474
 1018YOPC   D2A13692   1.403   8.345   6.943  0.1828  0.0646  0.4684
 1018YOPC   C3A13693   1.240   8.099   7.264 -0.0894  0.2203  0.1371
 1018YOPC   C4A13694   1.078   7.847   7.560 -0.2650  0.1213  0.1634
 1018YOPC   C1B13695   1.951   8.519   6.864 -0.0406  0.3306  0.1374
 1018YOPC   C2B13696   1.724   8.506   7.281  0.1132  0.2189  0.0619
 1018YOPC   D3B13697   1.883   8.656   7.644  0.0345  0.0942  0.4938
 1018YOPC   C4B13698   2.071   9.014   7.977 -0.1394 -0.1168 -0.1928
 1019YOPC   NC313699  17.880   3.010   6.058 -0.0639 -0.0340  0.0408
 1019YOPC   PO413700  17.454   2.868   5.753  0.4446  0.1302 -0.1975
 1019YOPC   GL113701  17.515   2.616   6.156 -0.1972 -0.3303  0.0212
 1019YOPC   GL213702  17.464   2.230   6.058 -0.1290 -0.3454 -0.1174
 1019YOPC   C1A13703  17.490   2.694   6.608 -0.0109  0.2566  0.1009
 1019YOPC   D2A13704  17.668   2.624   6.967  0.0949  0.2067  0.2844
 1019YOPC   C3A13705  17.838   2.324   7.305 -0.4365  0.2459 -0.3763
 1019YOPC   C4A13706  17.787   2.001   7.635  0.0780  0.4038  0.2476
 1019YOPC   C1B13707  17.517   2.190   6.526 -0.0688  0.0748  0.0690
 1019YOPC   C2B13708  17.497   2.148   6.938  0.1837  0.2222 -0.0768
 1019YOPC   D3B13709  17.355   2.248   7.420  0.0315  0.2937  0.1947
 1019YOPC   C4B13710  17.277   2.142   7.925 -0.2413  0.1592  0.0376
 1020YOPC   NC313711   5.579   1.208   6.044 -0.1682 -0.2833 -0.1024
 1020YOPC   PO413712   5.252   0.959   5.960  0.1517  0.2685 -0.2089
 1020YOPC   GL113713   5.130   1.008   6.403  0.0542 -0.0608  0.1964
 1020YOPC   GL213714   4.862   0.697   6.280  0.0970 -0.2055 -0.1006
 1020YOPC   C1A13715   5.204   1.119   6.811 -0.0269 -0.1969 -0.0028
 1020YOPC   D2A13716   5.240   1.182   7.185  0.2713  0.1248  0.1784
 1020YOPC   C3A13717   5.088   0.969   7.582 -0.0779  0.2207  0.1377
 1020YOPC   C4A13718   4.986   0.841   7.954  0.0412  0.3779  0.0141
 1020YOPC   C1B13719   4.734   0.309   6.390 -0.1052 -0.0356  0.0149
 1020YOPC   C2B13720   4.709  -0.142   6.468 -0.0757  0.4515  0.1166
 1020YOPC   D3B13721   4.416  -0.283   6.843 -0.4360  0.0151 -0.2769
 1020YOPC   C4B13722   4.391  -0.107   7.384  0.0078  0.2451 -0.3751
 1021YOPC   NC313723   3.373   1.576   5.479 -0.1893 -0.0324 -0.1581
 1021YOPC   PO413724   3.367   1.329   5.867  0.0641  0.1032 -0.0436
 1021YOPC   GL113725   3.500   1.529   6.260 -0.2033  0.1532 -0.1727
 1021YOPC   GL213726   3.870   1.521   6.390  0.0633 -0.0171  0.3253
 1021YOPC   C1A13727   3.409   1.480   6.657 -0.3395 -0.1818  0.0100
 1021YOPC   D2A13728   3.393   1.575   7.003  0.0174  0.0535 -0.0926
 1021YOPC   C3A13729   3.522   1.934   7.280 -0.0352 -0.2313 -0.0436
 1021YOPC   C4A13730   3.497   2.234   7.581  0.1771  0.0802  0.0092
 1021YOPC   C1B13731   3.877   1.675   6.854 -0.0689  0.1367 -0.2478
 1021YOPC   C2B13732   4.136   1.928   7.110  0.0352 -0.1392  0.0460
 1021YOPC   D3B13733   4.019   2.183   7.436  0.1825 -0.1149 -0.3139
 1021YOPC   C4B13734   3.973   2.331   7.899  0.4065 -0.0171  0.0078
 1022YOPC   NC313735   1.331  10.059   5.328  0.0336 -0.0355 -0.0656
 1022YOPC   PO413736   1.347   9.801   5.633 -0.1149  0.0070 -0.0712
 1022YOPC   GL113737   1.045   9.989   5.964 -0.2904 -0.1228  0.1428
 1022YOPC   GL213738   1.299  10.165   6.079  0.0324  0.2112 -0.0480
 1022YOPC   C1A13739   0.717   9.794   6.237 -0.0709  0.3967 -0.0785
 1022YOPC   D2A13740   0.716   9.717   6.694  0.0501 -0.1421 -0.2180
 1022YOPC   C3A13741   0.780  10.096   6.975  0.1529 -0.0538 -0.0598
 1022YOPC   C4A13742   0.955  10.352   7.247 -0.0482  0.1150 -0.1344
 1022YOPC   C1B13743   1.642  10.098   6.434 -0.1113  0.2231  0.0899
 1022YOPC   C2B13744   1.808  10.214   6.742 -0.0136  0.0236  0.1772
 1022YOPC   D3B13745   1.688  10.590   6.970  0.4607 -0.1534 -0.0145
 1022YOPC   C4B13746   1.714  10.750   7.365 -0.1042 -0.1173  0.2290
 1023YOPC   NC313747  10.284  12.800   5.820 -0.5967  0.2081 -0.2202
 1023YOPC   PO413748  10.141  13.228   5.738  0.1470  0.3371  0.2743
 1023YOPC   GL113749   9.988  13.299   6.042  0.2252 -0.1918  0.1575
 1023YOPC   GL213750   9.640  13.146   6.174  0.0578 -0.0681 -0.0066
 1023YOPC   C1A13751   9.935  13.287   6.569  0.0004  0.3302 -0.0993
 1023YOPC   D2A13752   9.890  13.104   6.965  0.0441 -0.1378  0.2004
 1023YOPC   C3A13753  10.161  13.095   7.244  0.2462 -0.1300  0.1637
 1023YOPC   C4A13754  10.296  13.076   7.564  0.1191  0.0860  0.1189
 1023YOPC   C1B13755   9.464  13.298   6.520  0.1927 -0.1494 -0.0516
 1023YOPC   C2B13756   9.611  13.508   6.937 -0.2371 -0.0608 -0.0526
 1023YOPC   D3B13757   9.912  13.548   7.207  0.1918  0.2202  0.1991
 1023YOPC   C4B13758  10.266  13.665   7.525  0.0705  0.0084 -0.3128
 1024YOPC   NC313759   7.144   1.934   5.957  0.0719  0.1113  0.4269
 1024YOPC   PO413760   6.899   1.526   5.901  0.1558 -0.0130  0.3047
 1024YOPC   GL113761   6.861   1.160   6.103 -0.3067 -0.2676  0.0565
 1024YOPC   GL213762   6.835   1.336   6.390 -0.0459  0.0707  0.0167
 1024YOPC   C1A13763   6.856   0.846   6.463  0.0148  0.1317  0.0218
 1024YOPC   D2A13764   6.845   0.734   6.897  0.0113 -0.1167 -0.0279
 1024YOPC   C3A13765   6.977   0.812   7.224  0.0714 -0.1032  0.2227
 1024YOPC   C4A13766   7.206   0.731   7.642 -0.1929  0.0775  0.3079
 1024YOPC   C1B13767   6.981   1.301   6.784 -0.0308 -0.1410  0.1161
 1024YOPC   C2B13768   6.884   1.330   7.183 -0.5819  0.0281 -0.1865
 1024YOPC   D3B13769   7.233   1.433   7.420  0.3134 -0.1393 -0.4058
 1024YOPC   C4B13770   7.429   1.439   7.785 -0.1044 -0.1463  0.1959
 1025YOPC   NC313771  11.346  11.437   5.282  0.0834 -0.0461 -0.2076
 1025YOPC   PO413772  11.054  11.340   5.586  0.0258  0.0854 -0.0453
 1025YOPC   GL113773  11.053  11.161   5.919  0.1517  0.2068 -0.2564
 1025YOPC   GL213774  11.409  10.940   6.029 -0.2925 -0.4559 -0.0299
 1025YOPC   C1A13775  10.980  10.951   6.226 -0.3239 -0.0480 -0.2827
 1025YOPC   D2A13776  11.035  10.792   6.634 -0.0847 -0.1129 -0.0833
 1025YOPC   C3A13777  10.935  10.850   7.013  0.2448  0.2132 -0.1096
 1025YOPC   C4A13778  10.970  10.827   7.450 -0.1533  0.0360 -0.0172
 1025YOPC   C1B13779  11.470  10.744   6.464 -0.2036  0.0605  0.0460
 1025YOPC   C2B13780  11.613  10.711   6.764 -0.0029 -0.0578  0.0459
 1025YOPC   D3B13781  11.337  10.603   7.102 -0.0790 -0.1597  0.0705
 1025YOPC   C4B13782  11.219  10.405   7.458 -0.1185 -0.2555 -0.1468
 1026YOPC   NC313783   3.697   5.743   5.982 -0.1797  0.0860  0.0768
 1026YOPC   PO413784   3.348   5.988   5.707  0.0095 -0.0879  0.0558
 1026YOPC   GL113785   3.321   5.980   6.196 -0.0554  0.0359 -0.0723
 1026YOPC   GL213786   3.069   6.245   6.404 -0.0945  0.1564 -0.2431
 1026YOPC   C1A13787   3.414   5.969   6.685  0.2281  0.2567 -0.1829
 1026YOPC   D2A13788   3.428   6.136   7.094  0.0868  0.3628 -0.0129
 1026YOPC   C3A13789   3.357   6.215   7.537  0.2918 -0.2454 -0.2555
 1026YOPC   C4A13790   3.484   6.446   7.882  0.0199 -0.2001 -0.0447
 1026YOPC   C1B13791   2.696   6.252   6.737 -0.1295 -0.0324 -0.2190
 1026YOPC   C2B13792   2.550   5.998   7.126 -0.0820 -0.2639  0.0778
 1026YOPC   D3B13793   2.730   5.736   7.382  0.0181 -0.0135 -0.2406
 1026YOPC   C4B13794   2.877   5.357   7.463 -0.3096  0.2140  0.0568
 1027YOPC   NC313795   8.107   6.400   5.368  0.0543  0.2016  0.0471
 1027YOPC   PO413796   8.277   6.894   5.477 -0.2190 -0.4739  0.1413
 1027YOPC   GL113797   8.294   6.865   5.895 -0.2808  0.0586  0.0940
 1027YOPC   GL213798   8.397   6.593   6.007 -0.0272  0.0933 -0.0850
 1027YOPC   C1A13799   8.269   7.044   6.318 -0.0430  0.1188  0.5084
 1027YOPC   D2A13800   8.012   7.035   6.732  0.2136 -0.3828 -0.1685
 1027YOPC   C3A13801   8.068   7.051   7.117  0.0777 -0.2230 -0.0824
 1027YOPC   C4A13802   8.115   7.114   7.468 -0.1319  0.0241  0.1714
 1027YOPC   C1B13803   8.224   6.583   6.470  0.2969 -0.0460 -0.1394
 1027YOPC   C2B13804   7.819   6.490   6.581  0.0226 -0.4782  0.2183
 1027YOPC   D3B13805   7.789   6.509   7.030 -0.0206 -0.0716  0.1133
 1027YOPC   C4B13806   7.690   6.707   7.505 -0.0475  0.0145 -0.0749
 1028YOPC   NC313807   3.183  16.300   5.520 -0.2105  0.0152 -0.2659
 1028YOPC   PO413808   3.208  16.578   5.776  0.1179 -0.0293 -0.0576
 1028YOPC   GL113809   3.069  16.321   6.062 -0.0441  0.0567  0.1037
 1028YOPC   GL213810   3.270  16.194   6.101 -0.2611  0.1029  0.0312
 1028YOPC   C1A13811   2.982  16.308   6.488 -0.1975 -0.5141 -0.4170
 1028YOPC   D2A13812   3.012  16.121   6.813 -0.1441  0.0844 -0.1256
 1028YOPC   C3A13813   2.802  16.124   7.237 -0.0093  0.1528 -0.0636
 1028YOPC   C4A13814   2.393  16.010   7.350 -0.0203 -0.1146  0.1077
 1028YOPC   C1B13815   3.331  15.914   6.489  0.1155 -0.0256 -0.2918
 1028YOPC   C2B13816   3.461  15.826   6.961  0.3657  0.1212 -0.1256
 1028YOPC   D3B13817   3.139  15.781   7.166  0.1952  0.2453  0.1374
 1028YOPC   C4B13818   2.860  15.687   7.357 -0.0850  0.3541  0.0198
 1029YOPC   NC313819  14.553  14.163   5.523 -0.2529  0.0685  0.1470
 1029YOPC   PO413820  14.322  14.576   5.527 -0.1232  0.3514 -0.2420
 1029YOPC   GL113821  14.412  14.714   5.861 -0.1784  0.1369  0.2162
 1029YOPC   GL213822  14.095  14.775   6.031 -0.0723  0.0612 -0.2759
 1029YOPC   C1A13823  14.421  14.624   6.296  0.0472  0.0769 -0.0624
 1029YOPC   D2A13824  14.281  14.897   6.596  0.0193  0.2298  0.3662
 1029YOPC   C3A13825  14.390  14.950   6.943  0.1080  0.2615  0.3805
 1029YOPC   C4A13826  14.508  15.175   7.278  0.0634 -0.2308  0.0062
 1029YOPC   C1B13827  13.798  14.846   6.398 -0.1335 -0.1933  0.0451
 1029YOPC   C2B13828  13.725  14.829   6.783 -0.1718  0.3416 -0.2474
 1029YOPC   D3B13829  13.901  14.718   7.165 -0.0472  0.0708 -0.1475
 1029YOPC   C4B13830  13.852  14.600   7.620 -0.1781 -0.0199 -0.1606
 1030YOPC   NC313831  12.296  17.478   6.063 -0.0219  0.0497  0.0398
 1030YOPC   PO413832  12.216  17.053   6.306 -0.1295 -0.0320  0.0054
 1030YOPC   GL113833  12.106  16.859   6.708 -0.1232 -0.0219  0.0283
 1030YOPC   GL213834  12.328  16.627   6.838 -0.0315  0.1026  0.0896
 1030YOPC   C1A13835  11.905  16.979   7.082 -0.1395  0.3589 -0.0117
 1030YOPC   D2A13836  12.133  16.935   7.388  0.0691 -0.0098 -0.3267
 1030YOPC   C3A13837  12.108  16.731   7.819  0.3048 -0.0807 -0.3798
 1030YOPC   C4A13838  12.245  16.406   8.054 -0.1110  0.0700 -0.1960
 1030YOPC   C1B13839  12.565  16.861   6.867  0.2399  0.0146  0.1752
 1030YOPC   C2B13840  12.890  17.270   6.835 -0.0629 -0.0670 -0.4287
 1030YOPC   D3B13841  13.247  17.223   6.968  0.2398  0.0344 -0.0920
 1030YOPC   C4B13842  13.610  17.014   7.062  0.1410 -0.1497  0.2855
 1031YOPC   NC313843  16.893   1.602   5.190 -0.0431  0.4818  0.0606
 1031YOPC   PO413844  16.593   1.874   5.439  0.0399  0.1353  0.1607
 1031YOPC   GL113845  16.473   1.840   5.817  0.2882 -0.2146 -0.0651
 1031YOPC   GL213846  16.586   2.206   5.952  0.1685 -0.1549 -0.0048
 1031YOPC   C1A13847  16.355   1.860   6.212  0.0196 -0.3107  0.0075
 1031YOPC   D2A13848  16.234   1.756   6.722  0.0382 -0.1414 -0.0513
 1031YOPC   C3A13849  16.250   1.643   7.176  0.0270 -0.0231 -0.0817
 1031YOPC   C4A13850  16.341   1.352   7.572  0.0438 -0.1012  0.2492
 1031YOPC   C1B13851  16.875   1.953   6.181  0.2307  0.1439 -0.1084
 1031YOPC   C2B13852  17.147   1.868   6.510  0.0346 -0.1542 -0.1859
 1031YOPC   D3B13853  17.039   1.919   7.000 -0.1577 -0.0569  0.1132
 1031YOPC   C4B13854  16.902   2.084   7.395  0.0485 -0.0499  0.0269
 1032YOPC   NC313855  12.100   9.674   5.851 -0.2791 -0.2014  0.3335
 1032YOPC   PO413856  12.342  10.032   5.955 -0.2202  0.0352  0.0769
 1032YOPC   GL113857  12.586  10.040   6.285 -0.3485 -0.2276  0.0611
 1032YOPC   GL213858  12.656  10.341   6.322 -0.1034  0.2658 -0.2388
 1032YOPC   C1A13859  12.769  10.030   6.675 -0.2274  0.4560  0.1920
 1032YOPC   D2A13860  12.937   9.910   7.069  0.0564  0.1639  0.0319
 1032YOPC   C3A13861  12.567   9.923   7.261  0.1973  0.1086  0.3067
 1032YOPC   C4A13862  12.509  10.027   7.692  0.2938  0.3407 -0.0233
 1032YOPC   C1B13863  12.840  10.525   6.672  0.4101  0.1605  0.1408
 1032YOPC   C2B13864  13.010  10.501   7.144  0.3498  0.1514  0.1910
 1032YOPC   D3B13865  12.942  10.082   7.523  0.2974 -0.0452 -0.2271
 1032YOPC   C4B13866  12.855   9.639   7.618  0.2454 -0.0095 -0.0974
 1033YOPC   NC313867   8.291  11.965   5.166 -0.0605 -0.0661  0.0500
 1033YOPC   PO413868   8.527  11.892   5.586  0.1896  0.0089  0.2203
 1033YOPC   GL113869   8.551  11.780   6.007  0.2751  0.0600 -0.0968
 1033YOPC   GL213870   8.240  11.857   6.169  0.1719  0.0517 -0.0591
 1033YOPC   C1A13871   8.813  11.903   6.435  0.0075  0.2259 -0.1766
 1033YOPC   D2A13872   8.635  12.179   6.811 -0.1107 -0.0011  0.3305
 1033YOPC   C3A13873   8.507  12.488   7.114 -0.2121  0.0251  0.1435
 1033YOPC   C4A13874   8.712  12.769   7.348  0.2086  0.0103  0.0467
 1033YOPC   C1B13875   8.217  11.833   6.624  0.0117  0.0377 -0.0564
 1033YOPC   C2B13876   8.265  11.993   7.078  0.3001  0.1572  0.1837
 1033YOPC   D3B13877   8.574  11.959   7.294  0.1967  0.0091 -0.1507
 1033YOPC   C4B13878   8.584  11.970   7.614 -0.1254 -0.2047 -0.1115
 1034YOPC   NC313879  16.011  12.016   5.752 -0.3149 -0.0623  0.1951
 1034YOPC   PO413880  16.335  12.047   5.422  0.0317  0.1780 -0.0661
 1034YOPC   GL113881  16.520  11.860   5.850  0.3009  0.2225  0.0145
 1034YOPC   GL213882  16.528  12.182   5.987  0.0571 -0.3089  0.0285
 1034YOPC   C1A13883  16.580  11.819   6.321  0.1078 -0.2616 -0.1857
 1034YOPC   D2A13884  16.385  12.102   6.603 -0.3100 -0.1933  0.0584
 1034YOPC   C3A13885  16.575  12.306   6.856 -0.0136  0.0809 -0.2786
 1034YOPC   C4A13886  16.478  12.426   7.335  0.0386 -0.1867 -0.3808
 1034YOPC   C1B13887  16.801  12.324   6.284  0.0150 -0.2385  0.2423
 1034YOPC   C2B13888  16.763  12.669   6.599  0.1089  0.0707 -0.2028
 1034YOPC   D3B13889  16.789  12.771   7.007 -0.1855 -0.0190  0.3746
 1034YOPC   C4B13890  16.931  12.662   7.444  0.1679  0.3680 -0.1507
 1035YOPC   NC313891  17.860  10.641   5.153  0.3206  0.1609  0.1969
 1035YOPC   PO413892  18.072  10.327   5.402 -0.1821 -0.2901  0.2925
 1035YOPC   GL113893  18.320  10.180   5.705 -0.0125  0.2629  0.0196
 1035YOPC   GL213894  18.589  10.462   5.738  0.2742 -0.2361 -0.4628
 1035YOPC   C1A13895  18.396  10.162   6.188  0.0787  0.0073 -0.1132
 1035YOPC   D2A13896  18.263  10.035   6.580  0.1102  0.2750 -0.0085
 1035YOPC   C3A13897  18.241  10.240   6.947 -0.0283 -0.0188 -0.1713
 1035YOPC   C4A13898  18.228  10.385   7.276  0.1549  0.0527 -0.0021
 1035YOPC   C1B13899  18.290  10.602   5.982 -0.0979 -0.3291 -0.0811
 1035YOPC   C2B13900  17.945  10.855   6.223 -0.1189 -0.0289  0.4166
 1035YOPC   D3B13901  17.986  10.835   6.681 -0.3106 -0.0933 -0.1078
 1035YOPC   C4B13902  18.149  10.896   7.058  0.3525 -0.0858  0.2622
 1036YOPC   NC313903  17.350   6.657   5.260  0.0179 -0.0106 -0.0968
 1036YOPC   PO413904  17.702   6.805   5.262 -0.2010 -0.2029  0.0035
 1036YOPC   GL113905  17.859   6.970   5.738 -0.2487  0.0972 -0.0182
 1036YOPC   GL213906  17.704   6.843   5.971 -0.1952 -0.0557 -0.5641
 1036YOPC   C1A13907  18.080   7.316   6.017  0.2012 -0.0710  0.0094
 1036YOPC   D2A13908  18.094   7.738   6.098 -0.0940  0.0874 -0.0058
 1036YOPC   C3A13909  18.072   7.772   6.525 -0.0144 -0.0026 -0.1597
 1036YOPC   C4A13910  18.113   7.897   6.931  0.0958  0.0745  0.1740
 1036YOPC   C1B13911  17.735   7.123   6.266  0.1231 -0.2321 -0.0995
 1036YOPC   C2B13912  18.054   7.164   6.497 -0.1473  0.1038 -0.0009
 1036YOPC   D3B13913  18.065   7.085   6.903  0.0205  0.3275 -0.0074
 1036YOPC   C4B13914  18.186   7.418   7.104  0.1976  0.0441  0.2107
 1037YOPC   NC313915  17.490   9.599   5.165 -0.1900 -0.0693 -0.1713
 1037YOPC   PO413916  17.270  10.041   5.445  0.2172 -0.2077  0.0899
 1037YOPC   GL113917  17.120  10.223   5.790 -0.1419  0.1312 -0.1422
 1037YOPC   GL213918  17.166   9.943   5.908 -0.0954  0.1657 -0.2055
 1037YOPC   C1A13919  16.769  10.298   6.085  0.0836  0.1387  0.1338
 1037YOPC   D2A13920  16.537  10.006   6.321 -0.0271  0.1011 -0.1731
 1037YOPC   C3A13921  16.508  10.269   6.667 -0.3923  0.4225  0.1331
 1037YOPC   C4A13922  16.374  10.010   7.069  0.1108  0.3094  0.3500
 1037YOPC   C1B13923  17.093  10.016   6.256  0.1136 -0.2208  0.3514
 1037YOPC   C2B13924  17.025  10.257   6.564  0.0399  0.0289  0.3025
 1037YOPC   D3B13925  17.299  10.206   6.945  0.0548 -0.2675 -0.0816
 1037YOPC   C4B13926  17.433   9.804   7.249 -0.0419 -0.0889 -0.3840
 1038YOPC   NC313927  14.788   9.571   5.572 -0.0002  0.0699  0.0586
 1038YOPC   PO413928  14.493   9.814   5.696  0.0249  0.1415  0.0581
 1038YOPC   GL113929  14.428   9.826   6.124 -0.2125 -0.3014  0.0688
 1038YOPC   GL213930  14.116   9.747   6.222  0.0624 -0.4161 -0.2999
 1038YOPC   C1A13931  14.706  10.102   6.378  0.0863  0.0677  0.0488
 1038YOPC   D2A13932  15.133  10.213   6.297 -0.1345 -0.0963 -0.2206
 1038YOPC   C3A13933  15.455   9.932   6.614 -0.0050  0.1445  0.1384
 1038YOPC   C4A13934  15.848  10.092   6.992 -0.5089  0.1322  0.0508
 1038YOPC   C1B13935  14.158   9.606   6.661  0.0321 -0.2737  0.1454
 1038YOPC   C2B13936  14.100   9.685   7.075  0.0778  0.0788  0.1501
 1038YOPC   D3B13937  14.346   9.826   7.438  0.0590  0.0243  0.1079
 1038YOPC   C4B13938  14.597   9.898   7.853 -0.0651 -0.2401  0.3960
 1039YOPC   NC313939  16.206   2.161   5.590  0.2830 -0.1531  0.0149
 1039YOPC   PO413940  16.045   2.492   5.722 -0.1715 -0.2224 -0.1822
 1039YOPC   GL113941  16.196   2.618   6.091  0.3351 -0.0216  0.0301
 1039YOPC   GL213942  16.146   2.817   6.297  0.0107  0.2150 -0.3260
 1039YOPC   C1A13943  16.511   2.473   6.443 -0.6118  0.0359  0.0177
 1039YOPC   D2A13944  16.595   2.077   6.726  0.1615 -0.0096 -0.0060
 1039YOPC   C3A13945  16.428   2.091   7.148 -0.1341 -0.0594 -0.0925
 1039YOPC   C4A13946  16.313   1.932   7.561  0.3269 -0.0838  0.0857
 1039YOPC   C1B13947  16.334   2.835   6.697 -0.1825 -0.0500  0.0595
 1039YOPC   C2B13948  16.550   3.014   7.051  0.1926 -0.2467 -0.0098
 1039YOPC   D3B13949  16.910   3.146   7.099  0.1122 -0.1003  0.3243
 1039YOPC   C4B13950  17.037   3.436   7.263  0.0372  0.0217 -0.0301
 1040YOPC   NC313951  17.629  17.759   5.852  0.0384  0.0313 -0.1652
 1040YOPC   PO413952  17.170  17.746   5.849  0.1831  0.1333 -0.0954
 1040YOPC   GL113953  16.851  17.790   6.117  0.0006  0.0641 -0.1043
 1040YOPC   GL213954  16.638  17.594   6.069  0.2855  0.1630  0.0875
 1040YOPC   C1A13955  16.950  17.867   6.545  0.1204 -0.0855  0.1323
 1040YOPC   D2A13956  16.842  17.733   6.923 -0.1798  0.0632  0.1514
 1040YOPC   C3A13957  16.456  17.918   7.200 -0.0471  0.0385  0.1760
 1040YOPC   C4A13958  16.196  18.017   7.564 -0.1609  0.0387  0.1381
 1040YOPC   C1B13959  16.553  17.448   6.557  0.1223 -0.1160 -0.0171
 1040YOPC   C2B13960  16.514  17.373   7.110 -0.1908 -0.0077 -0.0282
 1040YOPC   D3B13961  16.751  17.549   7.392  0.1559 -0.0115  0.3198
 1040YOPC   C4B13962  17.066  17.674   7.621  0.0926 -0.1864 -0.2358
 1041YOPC   NC313963   7.229  15.933   5.641 -0.1560  0.2407  0.1545
 1041YOPC   PO413964   7.105  16.043   6.059 -0.2167 -0.0294 -0.2781
 1041YOPC   GL113965   7.278  15.841   6.409 -0.2031 -0.0278  0.1321
 1041YOPC   GL213966   7.693  15.839   6.453  0.3808  0.0366 -0.2691
 1041YOPC   C1A13967   7.336  15.845   6.852 -0.0824 -0.1464 -0.0291
 1041YOPC   D2A13968   7.649  15.649   7.110 -0.0076 -0.2923  0.1134
 1041YOPC   C3A13969   7.559  15.463   7.569 -0.0198 -0.3062 -0.1197
 1041YOPC   C4A13970   7.280  15.247   7.884  0.2732 -0.1519  0.2298
 1041YOPC   C1B13971   7.881  15.955   6.775  0.0440  0.3051 -0.1586
 1041YOPC   C2B13972   8.027  15.992   7.103  0.0326 -0.1785  0.0177
 1041YOPC   D3B13973   8.265  16.338   7.192  0.1646  0.0113  0.1100
 1041YOPC   C4B13974   8.783  16.282   7.331 -0.1891  0.2636 -0.0432
 1042YOPC   NC313975  13.297   3.550   5.434 -0.0635  0.5178  0.0313
 1042YOPC   PO413976  12.839   3.503   5.374  0.1600  0.1008 -0.2360
 1042YOPC   GL113977  12.791   3.525   5.801  0.0491 -0.0447  0.0284
 1042YOPC   GL213978  12.493   3.529   5.846 -0.2567 -0.0705 -0.2729
 1042YOPC   C1A13979  13.125   3.619   6.038  0.0849 -0.2780 -0.2834
 1042YOPC   D2A13980  13.525   3.430   5.894  0.1069  0.0655  0.0123
 1042YOPC   C3A13981  13.914   3.579   6.154  0.1490  0.0286 -0.3442
 1042YOPC   C4A13982  14.134   3.736   6.551 -0.0891  0.4480  0.3241
 1042YOPC   C1B13983  12.690   3.825   6.203 -0.1477 -0.0373 -0.1593
 1042YOPC   C2B13984  12.651   3.962   6.589  0.0437  0.0037  0.1473
 1042YOPC   D3B13985  13.070   3.887   6.935 -0.2416 -0.1481  0.0446
 1042YOPC   C4B13986  13.444   3.890   7.243 -0.1701 -0.0320 -0.2385
 1043YOPC   NC313987  16.668   0.456   5.132 -0.0973 -0.0755 -0.0094
 1043YOPC   PO413988  16.677   0.176   5.405 -0.2006 -0.0684 -0.3309
 1043YOPC   GL113989  16.620   0.284   5.899 -0.0347 -0.1583  0.0225
 1043YOPC   GL213990  16.869   0.523   6.034  0.2135 -0.0525  0.2252
 1043YOPC   C1A13991  16.374   0.138   6.306  0.1475  0.2578  0.1206
 1043YOPC   D2A13992  16.211   0.055   6.653 -0.0073  0.1152 -0.1760
 1043YOPC   C3A13993  16.347   0.132   7.086  0.0617  0.2615  0.0582
 1043YOPC   C4A13994  16.744   0.028   7.231 -0.0318  0.2622 -0.2815
 1043YOPC   C1B13995  16.639   0.999   5.952  0.1030  0.1034 -0.1798
 1043YOPC   C2B13996  16.685   1.498   6.049 -0.1093 -0.0250 -0.2796
 1043YOPC   D3B13997  16.704   1.510   6.438  0.2377 -0.0892 -0.0219
 1043YOPC   C4B13998  16.936   1.449   6.806  0.1499 -0.1788 -0.1623
 1044YOPC   NC313999   9.673   0.569   5.666  0.3293 -0.0359 -0.1508
 1044YOPC   PO414000   9.809   0.871   6.010  0.0153 -0.0820 -0.0300
 1044YOPC   GL114001   9.627   0.808   6.408  0.1001 -0.1752 -0.2060
 1044YOPC   GL214002   9.896   1.034   6.496 -0.0574 -0.2374  0.1289
 1044YOPC   C1A14003   9.546   0.815   6.847 -0.0543  0.0618  0.1378
 1044YOPC   D2A14004   9.568   0.728   7.323  0.3310 -0.1869  0.2408
 1044YOPC   C3A14005   9.456   0.512   7.591 -0.2240 -0.1684  0.0160
 1044YOPC   C4A14006   9.496   0.076   7.536 -0.0309 -0.0911 -0.0436
 1044YOPC   C1B14007  10.114   0.832   6.716  0.0700 -0.0067 -0.1827
 1044YOPC   C2B14008  10.089   0.773   7.132  0.1131  0.1529 -0.2340
 1044YOPC   D3B14009  10.338   0.483   7.374  0.5120 -0.1967 -0.0589
 1044YOPC   C4B14010  10.414   0.338   7.845 -0.2250 -0.1562  0.0892
 1045YOPC   NC314011   8.621  15.714   5.869 -0.1090  0.1488  0.0743
 1045YOPC   PO414012   8.231  15.676   6.013  0.1709 -0.1168 -0.0866
 1045YOPC   GL114013   8.017  15.466   6.334  0.0046 -0.0435 -0.1178
 1045YOPC   GL214014   8.337  15.371   6.476  0.2036  0.0146  0.0998
 1045YOPC   C1A14015   7.883  15.399   6.723  0.2632  0.0611 -0.0215
 1045YOPC   D2A14016   8.081  15.322   7.115 -0.0662 -0.3800 -0.4558
 1045YOPC   C3A14017   8.067  15.531   7.455 -0.2046  0.0949  0.2212
 1045YOPC   C4A14018   7.982  15.646   7.886 -0.4934 -0.2794  0.1900
 1045YOPC   C1B14019   8.529  15.298   6.930  0.4785  0.2707  0.3875
 1045YOPC   C2B14020   8.456  15.158   7.397  0.1538 -0.0794 -0.2539
 1045YOPC   D3B14021   8.317  14.957   7.771  0.1004 -0.3040 -0.2416
 1045YOPC   C4B14022   8.226  14.979   8.272 -0.3072 -0.2874 -0.0108
 1046YOPC   NC314023   5.288  15.025   5.460  0.2061  0.0420 -0.0031
 1046YOPC   PO414024   5.247  15.069   5.981  0.0517 -0.0425 -0.4229
 1046YOPC   GL114025   5.236  15.000   6.438 -0.1060 -0.0048 -0.1000
 1046YOPC   GL214026   5.013  14.880   6.586  0.1137  0.1272  0.1059
 1046YOPC   C1A14027   5.503  14.994   6.806  0.0023  0.0394  0.0179
 1046YOPC   D2A14028   5.566  14.723   7.120 -0.0289 -0.1631 -0.1654
 1046YOPC   C3A14029   5.465  14.250   7.174 -0.1987 -0.0525  0.0594
 1046YOPC   C4A14030   5.270  13.890   7.392  0.1003  0.0307 -0.1307
 1046YOPC   C1B14031   5.094  14.806   7.076 -0.0753  0.1831 -0.1487
 1046YOPC   C2B14032   5.259  14.630   7.504  0.2511  0.2531  0.0086
 1046YOPC   D3B14033   5.530  14.232   7.689  0.2096 -0.1062  0.1959
 1046YOPC   C4B14034   5.717  14.154   8.076 -0.0454 -0.2669 -0.2294
 1047YOPC   NC314035  18.317  14.338   5.516 -0.2037 -0.1645  0.2362
 1047YOPC   PO414036  18.136  14.240   5.930  0.1088 -0.1540  0.0727
 1047YOPC   GL114037  17.833  14.158   6.301  0.0678 -0.2057 -0.0523
 1047YOPC   GL214038  17.916  14.484   6.474  0.2793  0.2909 -0.3058
 1047YOPC   C1A14039  17.601  14.028   6.600 -0.5735  0.1330 -0.0842
 1047YOPC   D2A14040  17.674  13.904   6.993 -0.0429  0.4453  0.0707
 1047YOPC   C3A14041  17.448  13.920   7.419 -0.0233  0.0534  0.2434
 1047YOPC   C4A14042  17.104  13.942   7.699 -0.1063 -0.0579  0.2617
 1047YOPC   C1B14043  18.004  14.339   6.850 -0.1777 -0.0014 -0.1262
 1047YOPC   C2B14044  18.035  14.146   7.259 -0.0589 -0.2243  0.1670
 1047YOPC   D3B14045  17.862  14.320   7.506 -0.1030 -0.0706  0.1071
 1047YOPC   C4B14046  17.566  14.267   7.810 -0.0496  0.1474 -0.0140
 1048YOPC   NC314047   4.221   7.808   5.839  0.0045 -0.0310 -0.0536
 1048YOPC   PO414048   4.498   7.452   5.913  0.0998 -0.1927  0.1793
 1048YOPC   GL114049   4.598   7.200   6.202  0.0820 -0.0483  0.0109
 1048YOPC   GL214050   4.902   7.000   6.097 -0.2643 -0.1636 -0.0615
 1048YOPC   C1A14051   4.693   7.366   6.605  0.2948 -0.4439  0.1881
 1048YOPC   D2A14052   4.656   7.757   6.943 -0.0945  0.6086 -0.0715
 1048YOPC   C3A14053   4.355   7.717   7.291 -0.0890 -0.0168  0.1367
 1048YOPC   C4A14054   4.484   7.737   7.789 -0.1345  0.0056 -0.3110
 1048YOPC   C1B14055   5.108   6.829   6.448  0.0155  0.0953  0.2131
 1048YOPC   C2B14056   5.518   6.954   6.674 -0.0318  0.1062 -0.0231
 1048YOPC   D3B14057   5.681   6.706   6.987 -0.0802 -0.1488  0.2995
 1048YOPC   C4B14058   5.727   6.524   7.444 -0.0587  0.1823  0.2755
 1049YOPC   NC314059   3.317  10.111   5.846  0.1039  0.1992 -0.3791
 1049YOPC   PO414060   3.784   9.895   5.963 -0.0672  0.2804  0.0661
 1049YOPC   GL114061   4.060   9.781   6.226 -0.0703  0.0505 -0.1375
 1049YOPC   GL214062   4.136   9.452   6.276  0.4037 -0.2815 -0.2936
 1049YOPC   C1A14063   4.432   9.883   6.507 -0.1068  0.0053 -0.2523
 1049YOPC   D2A14064   4.621   9.785   6.842 -0.2012 -0.1544 -0.0847
 1049YOPC   C3A14065   4.752   9.740   7.284  0.0317  0.1851  0.0779
 1049YOPC   C4A14066   4.596   9.684   7.694 -0.0353  0.1046  0.0132
 1049YOPC   C1B14067   4.163   9.500   6.715 -0.2990 -0.1780 -0.0342
 1049YOPC   C2B14068   4.211   9.576   7.145 -0.0816  0.2348 -0.2240
 1049YOPC   D3B14069   4.469   9.326   7.340 -0.2420 -0.0488  0.1766
 1049YOPC   C4B14070   4.827   9.067   7.287  0.0018  0.1765 -0.2174
 1050YOPC   NC314071   3.105  11.209   4.911  0.0495  0.1070 -0.2054
 1050YOPC   PO414072   3.467  11.412   5.087  0.0856 -0.0257 -0.1270
 1050YOPC   GL114073   3.493  11.471   5.512  0.0482  0.0675 -0.0680
 1050YOPC   GL214074   3.356  11.275   5.778  0.2919  0.1213  0.0309
 1050YOPC   C1A14075   3.781  11.496   5.911 -0.0898  0.1392  0.3640
 1050YOPC   D2A14076   3.942  11.386   6.291  0.0664 -0.3374 -0.0576
 1050YOPC   C3A14077   3.974  11.607   6.605  0.1491  0.1337 -0.0694
 1050YOPC   C4A14078   3.906  11.543   6.954 -0.0985  0.0813  0.1225
 1050YOPC   C1B14079   3.278  11.543   6.098  0.1557  0.1248  0.0843
 1050YOPC   C2B14080   3.411  11.574   6.536 -0.2464 -0.2024 -0.1308
 1050YOPC   D3B14081   3.586  11.277   6.695  0.1961 -0.1920 -0.1459
 1050YOPC   C4B14082   3.586  11.095   7.231  0.1426  0.0465 -0.0055
 1051YOPC   NC314083   9.910   4.956   5.165  0.2106 -0.1214  0.0444
 1051YOPC   PO414084   9.684   5.187   5.450  0.0568  0.0047 -0.0357
 1051YOPC   GL114085   9.506   4.887   5.744 -0.0016  0.0785  0.0369
 1051YOPC   GL214086   9.109   4.993   5.954  0.0734  0.3892  0.1368
 1051YOPC   C1A14087   9.498   4.737   6.157 -0.0688  0.0217 -0.0509
 1051YOPC   D2A14088   9.559   4.740   6.596 -0.3147 -0.1423 -0.1950
 1051YOPC   C3A14089   9.245   4.618   6.780 -0.2330  0.1042 -0.2397
 1051YOPC   C4A14090   8.802   4.831   6.703 -0.0239  0.1121  0.1824
 1051YOPC   C1B14091   9.156   5.025   6.400 -0.2100 -0.1885  0.0152
 1051YOPC   C2B14092   9.355   5.178   6.885 -0.4450  0.1863  0.0200
 1051YOPC   D3B14093   9.605   4.942   7.120  0.1078 -0.2373  0.0171
 1051YOPC   C4B14094   9.635   4.604   7.187 -0.0640  0.1482 -0.1222
 1052YOPC   NC314095   5.321  16.297   6.205 -0.0475  0.1001  0.0285
 1052YOPC   PO414096   5.436  16.754   6.303 -0.0415  0.6147 -0.0226
 1052YOPC   GL114097   5.496  16.848   6.640  0.0040 -0.1578 -0.1765
 1052YOPC   GL214098   5.614  17.154   6.543  0.0108  0.0961  0.0098
 1052YOPC   C1A14099   5.536  16.759   7.008 -0.1532 -0.0232 -0.4048
 1052YOPC   D2A14100   5.448  16.926   7.361 -0.0406 -0.1398 -0.1536
 1052YOPC   C3A14101   5.421  16.771   7.767 -0.1183 -0.3443  0.0923
 1052YOPC   C4A14102   5.566  16.829   8.174 -0.0796 -0.2115  0.1721
 1052YOPC   C1B14103   5.382  17.223   6.952  0.1410  0.0440 -0.0101
 1052YOPC   C2B14104   5.371  17.444   7.331  0.2368 -0.4159 -0.1102
 1052YOPC   D3B14105   5.304  17.282   7.772  0.2020 -0.2281  0.1426
 1052YOPC   C4B14106   5.391  17.304   8.202  0.0600  0.2381  0.1430
 1053YOPC   NC314107  13.707  17.559   5.465 -0.0697  0.2437  0.0665
 1053YOPC   PO414108  13.590  17.694   5.913  0.0561  0.1319  0.0739
 1053YOPC   GL114109  13.870  17.832   6.323  0.0407 -0.2688 -0.2655
 1053YOPC   GL214110  14.163  17.831   6.359  0.0489  0.0005 -0.3501
 1053YOPC   C1A14111  13.862  17.847   6.787  0.0852 -0.1810 -0.2736
 1053YOPC   D2A14112  14.190  17.859   6.908 -0.2992  0.1937 -0.0089
 1053YOPC   C3A14113  14.059  17.797   7.349 -0.0814  0.1442 -0.0370
 1053YOPC   C4A14114  14.291  17.679   7.660 -0.0973  0.1441 -0.2195
 1053YOPC   C1B14115  14.114  17.458   6.638  0.0015  0.0505  0.0661
 1053YOPC   C2B14116  14.000  17.049   6.725 -0.2469  0.1602 -0.2713
 1053YOPC   D3B14117  14.309  16.809   7.028 -0.0287 -0.0824  0.0253
 1053YOPC   C4B14118  14.643  16.696   7.181 -0.0844  0.0700  0.1630
 1054YOPC   NC314119   3.475  18.005   5.355  0.2522 -0.2547  0.2112
 1054YOPC   PO414120   3.164  17.756   5.679 -0.1584 -0.1945  0.1472
 1054YOPC   GL114121   2.869  17.606   6.069 -0.3546  0.0164 -0.0545
 1054YOPC   GL214122   2.789  17.227   6.186 -0.0892 -0.1252 -0.1782
 1054YOPC   C1A14123   3.179  17.553   6.428  0.0291  0.2601  0.2412
 1054YOPC   D2A14124   3.639  17.476   6.497  0.1753  0.3889  0.1579
 1054YOPC   C3A14125   3.890  17.776   6.743 -0.0776 -0.0905 -0.2078
 1054YOPC   C4A14126   4.197  17.712   6.900  0.2705  0.1686  0.1228
 1054YOPC   C1B14127   2.680  17.337   6.549  0.1886 -0.0896 -0.1720
 1054YOPC   C2B14128   2.502  17.526   6.920 -0.1549  0.2245 -0.3492
 1054YOPC   D3B14129   2.673  17.267   7.318 -0.1983 -0.2704 -0.2052
 1054YOPC   C4B14130   3.045  17.076   7.529 -0.1526  0.1435 -0.0169
 1055YOPC   NC314131   0.599  13.433   5.505  0.0419  0.0227  0.3156
 1055YOPC   PO414132   0.473  13.672   5.831 -0.0774 -0.0201 -0.0278
 1055YOPC   GL114133   0.146  13.569   6.202 -0.1718 -0.0663  0.0795
 1055YOPC   GL214134   0.432  13.323   6.253 -0.6562  0.0135  0.1316
 1055YOPC   C1A14135  -0.227  13.372   6.343  0.0716 -0.0994  0.1497
 1055YOPC   D2A14136  -0.591  13.153   6.530 -0.1424  0.1931 -0.1690
 1055YOPC   C3A14137  -0.672  13.122   6.901 -0.0498 -0.1511  0.0172
 1055YOPC   C4A14138  -0.696  12.923   7.304  0.2577  0.1560  0.1020
 1055YOPC   C1B14139   0.156  13.241   6.639  0.0282 -0.2372  0.0597
 1055YOPC   C2B14140  -0.171  13.310   6.872  0.3521 -0.0964  0.2142
 1055YOPC   D3B14141  -0.299  13.555   7.166  0.1554  0.0133 -0.0156
 1055YOPC   C4B14142  -0.510  13.768   7.534  0.1131  0.1921 -0.0578
 1056YOPC   NC314143   2.268   2.247   5.949  0.0830  0.0219  0.0369
 1056YOPC   PO414144   2.019   1.861   6.062 -0.0800 -0.3522  0.1617
 1056YOPC   GL114145   2.392   1.888   6.332  0.1792  0.0868  0.0032
 1056YOPC   GL214146   2.572   1.701   6.428  0.1488  0.1963  0.0418
 1056YOPC   C1A14147   2.485   2.104   6.783 -0.0315 -0.1566  0.2956
 1056YOPC   D2A14148   2.620   2.140   7.158 -0.0177 -0.1842  0.0594
 1056YOPC   C3A14149   2.451   2.121   7.474  0.0158 -0.1342 -0.0001
 1056YOPC   C4A14150   2.238   2.149   7.940 -0.2006  0.2086 -0.0418
 1056YOPC   C1B14151   2.878   1.809   6.850  0.1044  0.1318 -0.2031
 1056YOPC   C2B14152   3.017   1.757   7.301  0.0129 -0.2363  0.0829
 1056YOPC   D3B14153   3.204   1.809   7.751  0.0990  0.1283  0.1651
 1056YOPC   C4B14154   3.341   1.832   8.166  0.0209  0.2506 -0.1195
 1057YOPC   NC314155   5.475  14.676   6.152 -0.1122  0.0531  0.2850
 1057YOPC   PO414156   5.930  14.690   6.087  0.4105  0.0100  0.3201
 1057YOPC   GL114157   5.959  14.499   6.347 -0.1824  0.0773  0.0063
 1057YOPC   GL214158   5.807  14.574   6.616 -0.0305  0.4176  0.0304
 1057YOPC   C1A14159   6.026  14.137   6.585 -0.6224  0.1867 -0.2181
 1057YOPC   D2A14160   6.343  14.055   6.917 -0.0004 -0.1986 -0.0965
 1057YOPC   C3A14161   6.674  13.761   6.999  0.0585 -0.3596  0.0282
 1057YOPC   C4A14162   7.079  13.891   7.203 -0.1425 -0.0631  0.1186
 1057YOPC   C1B14163   5.964  14.454   6.986  0.0211  0.0904  0.1915
 1057YOPC   C2B14164   5.941  14.169   7.248  0.1328  0.0007 -0.0537
 1057YOPC   D3B14165   5.998  14.196   7.676  0.2504 -0.2521  0.0978
 1057YOPC   C4B14166   5.929  14.570   7.911  0.0133 -0.5693  0.3815
 1058YOPC   NC314167   7.157  14.312   5.685 -0.7289 -0.3530 -0.1242
 1058YOPC   PO414168   7.454  14.528   5.970 -0.2332 -0.0717 -0.0520
 1058YOPC   GL114169   7.769  14.499   6.184 -0.3874  0.0898  0.2127
 1058YOPC   GL214170   8.071  14.400   6.141 -0.2412 -0.0429 -0.0029
 1058YOPC   C1A14171   7.910  14.531   6.665 -0.1253  0.1931  0.0899
 1058YOPC   D2A14172   7.957  14.383   7.075  0.0880  0.2539 -0.1181
 1058YOPC   C3A14173   7.791  14.268   7.358  0.2871  0.2094 -0.1226
 1058YOPC   C4A14174   7.734  14.183   7.741 -0.1010 -0.0026  0.1452
 1058YOPC   C1B14175   8.151  14.071   6.537  0.0624 -0.0649  0.0602
 1058YOPC   C2B14176   8.508  13.871   6.938  0.0035  0.0854  0.1372
 1058YOPC   D3B14177   8.434  13.648   7.306 -0.0158 -0.0665 -0.0524
 1058YOPC   C4B14178   8.429  13.566   7.765  0.1695  0.2409 -0.0061
 1059YOPC   NC314179  11.771  13.894   4.854  0.1507 -0.3212 -0.5071
 1059YOPC   PO414180  11.694  13.987   5.280  0.2258 -0.0899  0.0397
 1059YOPC   GL114181  11.680  13.806   5.723 -0.1688 -0.0740 -0.1473
 1059YOPC   GL214182  11.875  13.895   5.978 -0.1830  0.1376 -0.0313
 1059YOPC   C1A14183  11.394  13.726   6.062  0.2709 -0.0858  0.0094
 1059YOPC   D2A14184  11.082  13.931   6.412 -0.2616 -0.0912 -0.1760
 1059YOPC   C3A14185  11.112  13.931   6.819  0.4509 -0.0813 -0.1269
 1059YOPC   C4A14186  11.214  13.986   7.296 -0.1951 -0.0542 -0.0997
 1059YOPC   C1B14187  11.757  13.875   6.415  0.1370  0.2431 -0.2643
 1059YOPC   C2B14188  11.615  13.840   6.785  0.1544  0.0585 -0.2315
 1059YOPC   D3B14189  11.771  13.810   7.124 -0.0445 -0.0618 -0.0645
 1059YOPC   C4B14190  11.843  13.973   7.423  0.2984  0.0455  0.0422
 1060YOPC   NC314191   4.296  17.270   5.928 -0.2411 -0.0232 -0.1705
 1060YOPC   PO414192   3.923  17.096   6.060  0.0385  0.0490 -0.0858
 1060YOPC   GL114193   3.846  17.006   6.439 -0.5300  0.2397  0.2110
 1060YOPC   GL214194   4.022  16.838   6.550 -0.2621  0.0421 -0.2267
 1060YOPC   C1A14195   3.575  17.063   6.800  0.2414  0.0759  0.0908
 1060YOPC   D2A14196   3.384  16.936   7.178 -0.0989  0.1574  0.0382
 1060YOPC   C3A14197   3.584  17.025   7.539  0.1638  0.3460  0.0374
 1060YOPC   C4A14198   3.844  16.687   7.792  0.1937 -0.1339 -0.0058
 1060YOPC   C1B14199   4.042  17.194   6.919  0.1540 -0.2731  0.1206
 1060YOPC   C2B14200   3.789  17.331   7.180  0.1292 -0.0770 -0.3975
 1060YOPC   D3B14201   3.751  17.785   7.279  0.1481  0.0712 -0.0292
 1060YOPC   C4B14202   3.673  18.133   7.028 -0.2894 -0.0953 -0.0863
 1061YOPC   NC314203   5.076   3.608   5.880  0.0652 -0.0304 -0.1566
 1061YOPC   PO414204   4.655   3.688   5.908  0.1274 -0.1626 -0.2716
 1061YOPC   GL114205   4.602   3.584   6.334  0.2603  0.0928  0.0109
 1061YOPC   GL214206   4.468   3.877   6.414 -0.1691 -0.3611  0.1291
 1061YOPC   C1A14207   4.438   3.650   6.882 -0.0751 -0.1535  0.4341
 1061YOPC   D2A14208   4.444   3.705   7.372 -0.0220 -0.2001  0.1392
 1061YOPC   C3A14209   4.432   3.967   7.736 -0.1016 -0.0397 -0.0248
 1061YOPC   C4A14210   4.144   4.243   7.929 -0.0954  0.0594 -0.0189
 1061YOPC   C1B14211   4.694   4.204   6.558  0.2223  0.0935 -0.0524
 1061YOPC   C2B14212   4.809   4.560   6.772 -0.0320 -0.0240 -0.0466
 1061YOPC   D3B14213   4.528   4.686   7.078  0.1002 -0.0470 -0.1132
 1061YOPC   C4B14214   4.355   4.736   7.550  0.0979 -0.0232  0.5071
 1062YOPC   NC314215  17.266  15.431   5.443 -0.0549 -0.1872 -0.1789
 1062YOPC   PO414216  17.583  15.678   5.592  0.1623 -0.0421  0.0530
 1062YOPC   GL114217  17.478  15.819   5.987 -0.1550  0.4947  0.0749
 1062YOPC   GL214218  17.209  15.957   6.223  0.2609 -0.1616 -0.0595
 1062YOPC   C1A14219  17.354  15.542   6.406  0.3219 -0.1265 -0.1497
 1062YOPC   D2A14220  17.498  15.472   6.890  0.3000  0.0535 -0.0309
 1062YOPC   C3A14221  17.544  15.594   7.284 -0.1473 -0.1542 -0.0230
 1062YOPC   C4A14222  17.529  15.963   7.568 -0.2006  0.0026  0.0306
 1062YOPC   C1B14223  16.913  16.137   6.464 -0.1085 -0.3831  0.0374
 1062YOPC   C2B14224  16.791  16.181   6.861  0.1543  0.1401 -0.0482
 1062YOPC   D3B14225  16.955  16.252   7.264  0.0083  0.0202  0.0856
 1062YOPC   C4B14226  17.262  16.405   7.457 -0.1061 -0.3510 -0.0531
 1063YOPC   NC314227  15.052   4.011   5.036 -0.1414  0.0409  0.1531
 1063YOPC   PO414228  15.200   3.987   5.457 -0.5930 -0.3414  0.3412
 1063YOPC   GL114229  15.254   4.030   5.904 -0.0281 -0.0402 -0.0258
 1063YOPC   GL214230  14.967   4.118   6.051 -0.0343 -0.3768 -0.2507
 1063YOPC   C1A14231  15.397   3.991   6.320 -0.1494  0.0404  0.1517
 1063YOPC   D2A14232  15.541   3.775   6.688 -0.0323  0.2755 -0.1181
 1063YOPC   C3A14233  15.163   3.667   6.947  0.2071  0.1103  0.0460
 1063YOPC   C4A14234  15.204   3.833   7.370  0.1903  0.2215 -0.0137
 1063YOPC   C1B14235  15.011   4.078   6.617 -0.5269 -0.1289 -0.1492
 1063YOPC   C2B14236  15.082   4.159   7.029  0.1958 -0.1125 -0.0519
 1063YOPC   D3B14237  14.702   4.044   7.383 -0.1206 -0.1311  0.0602
 1063YOPC   C4B14238  14.436   3.908   7.784 -0.0856 -0.0165  0.3514
 1064YOPC   NC314239  17.763  13.946   5.827  0.0382 -0.0131  0.1612
 1064YOPC   PO414240  17.779  13.516   5.566 -0.0714  0.2037 -0.3176
 1064YOPC   GL114241  17.596  13.451   5.933  0.1214  0.0623  0.0989
 1064YOPC   GL214242  17.774  13.582   6.235  0.0211 -0.0497  0.0756
 1064YOPC   C1A14243  17.466  13.137   6.127  0.0954  0.0568  0.0005
 1064YOPC   D2A14244  17.639  12.734   6.097  0.0938 -0.0012  0.4893
 1064YOPC   C3A14245  17.890  12.614   6.455 -0.1207 -0.1301 -0.2184
 1064YOPC   C4A14246  18.057  12.353   6.749 -0.1718  0.0740 -0.1015
 1064YOPC   C1B14247  17.996  13.695   6.647 -0.1391  0.0484  0.0331
 1064YOPC   C2B14248  18.368  13.982   6.754  0.1398  0.0897  0.1670
 1064YOPC   D3B14249  18.540  14.110   7.122 -0.0665 -0.1189 -0.0293
 1064YOPC   C4B14250  18.395  14.077   7.529 -0.0378 -0.2164  0.0074
 1065YOPC   NC314251   4.907   2.286   5.801 -0.2677  0.3290 -0.1074
 1065YOPC   PO414252   5.300   2.359   6.065  0.4044  0.2052 -0.0859
 1065YOPC   GL114253   5.331   2.294   6.470 -0.0922  0.0399  0.3007
 1065YOPC   GL214254   5.572   2.462   6.585 -0.1031  0.0606 -0.3043
 1065YOPC   C1A14255   5.152   2.104   6.771  0.0173  0.0803  0.2794
 1065YOPC   D2A14256   4.702   2.075   6.919  0.3894  0.1654 -0.3326
 1065YOPC   C3A14257   4.592   1.947   7.405 -0.0891 -0.0307 -0.0413
 1065YOPC   C4A14258   4.767   1.764   7.792  0.1330 -0.0582 -0.2034
 1065YOPC   C1B14259   5.386   2.505   6.979  0.2124  0.3541  0.0507
 1065YOPC   C2B14260   5.517   2.675   7.329  0.1248 -0.0803 -0.2639
 1065YOPC   D3B14261   5.427   2.579   7.801 -0.0166  0.0194 -0.0976
 1065YOPC   C4B14262   5.146   2.634   8.195  0.1654  0.3171  0.1505
 1066YOPC   NC314263   0.488  10.242   5.380 -0.1761 -0.0120  0.1066
 1066YOPC   PO414264   0.972  10.286   5.543 -0.0344 -0.0220  0.0917
 1066YOPC   GL114265   0.964  10.554   5.986 -0.1563 -0.3531 -0.0816
 1066YOPC   GL214266   1.319  10.676   6.048 -0.0944 -0.0678  0.0135
 1066YOPC   C1A14267   0.857  10.638   6.364 -0.1772  0.0033  0.2588
 1066YOPC   D2A14268   0.927  10.625   6.772 -0.1380 -0.0403  0.3030
 1066YOPC   C3A14269   0.609  10.735   7.030  0.1997  0.0575 -0.0459
 1066YOPC   C4A14270   0.595  11.016   7.377 -0.1345  0.1868  0.0975
 1066YOPC   C1B14271   1.346  11.040   6.351 -0.0850  0.0238  0.1071
 1066YOPC   C2B14272   1.608  11.414   6.248 -0.0145  0.0589 -0.0368
 1066YOPC   D3B14273   1.759  11.509   6.510 -0.1707  0.0188 -0.1187
 1066YOPC   C4B14274   1.820  11.585   6.933  0.1864 -0.1686  0.0500
 1067YOPC   NC314275  13.210   7.963   5.764  0.0923  0.2462 -0.0533
 1067YOPC   PO414276  12.793   7.764   5.655 -0.1212  0.3160 -0.1242
 1067YOPC   GL114277  12.806   7.616   6.051  0.2111 -0.1772 -0.3779
 1067YOPC   GL214278  12.565   7.715   6.335  0.1556  0.1267 -0.3555
 1067YOPC   C1A14279  12.900   7.357   6.379  0.0312  0.3951 -0.1505
 1067YOPC   D2A14280  12.856   6.911   6.410 -0.3000  0.0255  0.0342
 1067YOPC   C3A14281  12.641   6.733   6.770  0.0460  0.1516 -0.3054
 1067YOPC   C4A14282  12.384   6.537   7.130 -0.0494 -0.2394 -0.1652
 1067YOPC   C1B14283  12.656   7.719   6.683 -0.2325  0.1186  0.4190
 1067YOPC   C2B14284  12.671   7.858   7.113 -0.1524  0.0305 -0.0744
 1067YOPC   D3B14285  12.895   7.523   7.307 -0.2597  0.0143  0.1280
 1067YOPC   C4B14286  13.109   7.171   7.492  0.0082 -0.1118  0.0155
 1068YOPC   NC314287  17.693  18.090   5.182 -0.1451  0.3880  0.0060
 1068YOPC   PO414288  17.918  18.186   5.598  0.1264 -0.0239  0.0049
 1068YOPC   GL114289  17.983  18.234   6.044 -0.2975  0.2760 -0.1027
 1068YOPC   GL214290  18.258  18.144   6.282 -0.0864  0.0918  0.1892
 1068YOPC   C1A14291  17.807  18.324   6.521 -0.2064 -0.2087  0.0076
 1068YOPC   D2A14292  17.731  18.262   6.912  0.0163 -0.1416 -0.2065
 1068YOPC   C3A14293  17.574  17.900   6.920  0.0006 -0.3434 -0.0602
 1068YOPC   C4A14294  17.508  17.906   6.530  0.0385  0.1559 -0.1385
 1068YOPC   C1B14295  18.289  18.125   6.650 -0.0752  0.1031  0.1651
 1068YOPC   C2B14296  18.560  18.053   7.031  0.0401 -0.3880  0.2044
 1068YOPC   D3B14297  18.729  17.777   7.379 -0.0075 -0.1543  0.7331
 1068YOPC   C4B14298  18.655  17.461   7.656  0.0986  0.2484  0.3150
 1069YOPC   NC314299  12.507  14.454   5.531  0.1069  0.0971  0.0800
 1069YOPC   PO414300  12.403  14.110   5.652 -0.0536  0.1640 -0.1804
 1069YOPC   GL114301  12.408  13.868   6.059 -0.1202 -0.1551 -0.2420
 1069YOPC   GL214302  12.652  13.735   5.931  0.0464 -0.0435 -0.1076
 1069YOPC   C1A14303  12.316  13.835   6.500 -0.1558  0.0508  0.0351
 1069YOPC   D2A14304  12.399  13.845   6.895 -0.0527 -0.1775 -0.0434
 1069YOPC   C3A14305  12.282  13.691   7.333  0.0983 -0.0942  0.1200
 1069YOPC   C4A14306  12.177  13.856   7.752 -0.0708 -0.0722 -0.1730
 1069YOPC   C1B14307  12.881  13.879   6.385 -0.0098 -0.2430 -0.0354
 1069YOPC   C2B14308  13.053  14.122   6.863  0.1141  0.1195 -0.1719
 1069YOPC   D3B14309  12.863  14.325   7.175  0.0108 -0.0344 -0.1610
 1069YOPC   C4B14310  12.602  14.368   7.561  0.2021  0.1735 -0.2425
 1070YOPC   NC314311  15.250   9.079   5.604 -0.0679  0.1750 -0.3748
 1070YOPC   PO414312  14.982   9.288   5.903 -0.0551 -0.0009 -0.2102
 1070YOPC   GL114313  15.171   8.994   6.094 -0.0439 -0.0958 -0.2943
 1070YOPC   GL214314  15.407   8.753   5.993  0.2081 -0.1228  0.0962
 1070YOPC   C1A14315  15.413   8.903   6.495  0.2182 -0.1906  0.0100
 1070YOPC   D2A14316  15.569   8.727   6.892 -0.1287 -0.3052  0.0615
 1070YOPC   C3A14317  15.500   8.449   7.249  0.0395 -0.0461  0.2423
 1070YOPC   C4A14318  15.464   8.124   7.609  0.0799 -0.2016  0.1994
 1070YOPC   C1B14319  15.532   8.405   6.417  0.0586 -0.1619 -0.1388
 1070YOPC   C2B14320  15.365   8.070   6.499  0.3413  0.2522  0.2073
 1070YOPC   D3B14321  15.321   7.955   6.939 -0.1485 -0.3315  0.1794
 1070YOPC   C4B14322  15.441   7.639   7.133  0.0698 -0.0277 -0.0494
 1071YOPC   NC314323  11.257   7.127   5.452 -0.1360 -0.1863  0.0617
 1071YOPC   PO414324  11.209   7.506   5.348  0.0380  0.1419 -0.0221
 1071YOPC   GL114325  11.156   7.377   5.845 -0.0695 -0.2411 -0.0526
 1071YOPC   GL214326  11.360   7.556   6.015  0.0458  0.3151 -0.0731
 1071YOPC   C1A14327  11.033   7.495   6.338 -0.0025 -0.2712 -0.1388
 1071YOPC   D2A14328  10.836   7.636   6.757  0.0939  0.1131 -0.0596
 1071YOPC   C3A14329  11.079   7.724   7.094 -0.3457  0.1800  0.0866
 1071YOPC   C4A14330  11.376   7.936   7.474 -0.0915 -0.0145  0.2749
 1071YOPC   C1B14331  11.477   7.237   6.243 -0.0613 -0.1624 -0.2243
 1071YOPC   C2B14332  11.627   6.902   6.444 -0.0861 -0.0766 -0.0605
 1071YOPC   D3B14333  11.690   7.011   6.879  0.0824 -0.1627  0.1846
 1071YOPC   C4B14334  11.806   7.326   7.129 -0.0753  0.0302  0.2236
 1072YOPC   NC314335   5.540   1.891   6.209  0.1230 -0.1260  0.2883
 1072YOPC   PO414336   5.908   1.703   6.252 -0.1022  0.0889  0.0258
 1072YOPC   GL114337   5.981   2.011   6.550  0.1725 -0.1490  0.2676
 1072YOPC   GL214338   5.596   1.935   6.735 -0.2980  0.0230 -0.0742
 1072YOPC   C1A14339   5.971   1.885   7.023 -0.1299  0.3601  0.1019
 1072YOPC   D2A14340   6.025   1.708   7.470 -0.1667 -0.0566  0.1960
 1072YOPC   C3A14341   6.159   1.979   7.848  0.1629  0.3183 -0.0239
 1072YOPC   C4A14342   6.470   2.044   8.028  0.0369 -0.0068 -0.0790
 1072YOPC   C1B14343   5.549   2.089   7.224  0.1141 -0.0811  0.1822
 1072YOPC   C2B14344   5.065   2.244   7.266  0.1729  0.1712 -0.2932
 1072YOPC   D3B14345   4.861   2.358   7.698  0.0177  0.2917  0.0909
 1072YOPC   C4B14346   4.615   2.217   8.134 -0.3551  0.1168 -0.2792
 1073YOPC   NC314347  11.170  12.555   5.332 -0.0908  0.1937  0.0603
 1073YOPC   PO414348  11.023  12.936   5.483  0.1171  0.1046  0.0792
 1073YOPC   GL114349  11.214  13.152   5.752 -0.0852  0.1449  0.0764
 1073YOPC   GL214350  11.040  13.425   5.806 -0.0536 -0.2638 -0.0110
 1073YOPC   C1A14351  11.411  13.176   6.193 -0.0817 -0.3684 -0.0766
 1073YOPC   D2A14352  11.345  13.512   6.579 -0.1341  0.1803  0.3055
 1073YOPC   C3A14353  11.371  13.436   6.973 -0.0570 -0.0385  0.0312
 1073YOPC   C4A14354  11.309  13.355   7.374 -0.0824 -0.0158 -0.4195
 1073YOPC   C1B14355  10.994  13.415   6.241  0.1005 -0.0200 -0.1391
 1073YOPC   C2B14356  10.744  13.617   6.585 -0.3350 -0.4054 -0.0478
 1073YOPC   D3B14357  10.844  13.412   6.884  0.1814 -0.4252 -0.1296
 1073YOPC   C4B14358  10.675  13.156   7.245  0.1484 -0.0392  0.1268
 1074YOPC   NC314359  16.861   3.483   5.596  0.0381 -0.0097  0.0131
 1074YOPC   PO414360  17.038   3.130   5.802  0.0990 -0.0833  0.0917
 1074YOPC   GL114361  16.950   2.848   6.139  0.0594 -0.0148 -0.0352
 1074YOPC   GL214362  16.613   2.912   6.248 -0.0919  0.0915 -0.2092
 1074YOPC   C1A14363  16.991   2.434   6.247 -0.0573 -0.0867 -0.1744
 1074YOPC   D2A14364  17.046   2.347   6.673 -0.1661 -0.0148 -0.0699
 1074YOPC   C3A14365  17.130   2.510   7.036 -0.0338 -0.1297  0.0144
 1074YOPC   C4A14366  16.907   2.665   7.356  0.1710 -0.2068 -0.2575
 1074YOPC   C1B14367  16.611   3.202   6.573 -0.2286  0.0938  0.2071
 1074YOPC   C2B14368  16.603   3.538   6.915 -0.2814 -0.1900  0.0687
 1074YOPC   D3B14369  16.506   3.378   7.378 -0.1145 -0.4142 -0.1798
 1074YOPC   C4B14370  16.679   3.037   7.725  0.0887  0.2729  0.1244
 1075YOPC   NC314371   9.394   5.543   5.564  0.1473  0.0602 -0.0156
 1075YOPC   PO414372   9.374   5.864   5.322  0.2386  0.0203  0.0080
 1075YOPC   GL114373   9.546   6.027   5.702 -0.1778 -0.1943  0.3347
 1075YOPC   GL214374   9.462   6.295   5.919  0.1035 -0.1452 -0.0157
 1075YOPC   C1A14375   9.794   5.907   6.077 -0.1105 -0.0710  0.1396
 1075YOPC   D2A14376   9.926   5.811   6.392 -0.0665  0.2039  0.2392
 1075YOPC   C3A14377  10.006   5.877   6.878 -0.0329 -0.1673 -0.1039
 1075YOPC   C4A14378  10.153   5.798   7.279  0.0267 -0.2069  0.3049
 1075YOPC   C1B14379   9.443   6.230   6.302 -0.0021 -0.0612  0.0516
 1075YOPC   C2B14380   9.240   6.122   6.607 -0.3811 -0.1779 -0.0827
 1075YOPC   D3B14381   8.912   5.907   6.405  0.0255  0.0399  0.0881
 1075YOPC   C4B14382   8.580   5.552   6.284 -0.1541 -0.2601 -0.0891
 1076YOPC   NC314383  15.348  11.982   5.563  0.1460 -0.0057  0.2216
 1076YOPC   PO414384  15.604  11.704   5.773 -0.0466  0.1161 -0.1060
 1076YOPC   GL114385  15.703  11.861   6.235  0.1503 -0.1844 -0.0169
 1076YOPC   GL214386  16.077  12.033   6.246  0.1099 -0.1442 -0.0176
 1076YOPC   C1A14387  15.837  11.907   6.688  0.0920 -0.0507  0.5412
 1076YOPC   D2A14388  16.240  11.803   6.965  0.0801  0.2460 -0.1763
 1076YOPC   C3A14389  16.642  11.767   6.857 -0.1453 -0.2124 -0.0691
 1076YOPC   C4A14390  17.022  11.627   6.985 -0.2853  0.4591 -0.2806
 1076YOPC   C1B14391  16.166  11.597   6.499 -0.0853 -0.0430 -0.0149
 1076YOPC   C2B14392  16.092  11.370   6.791 -0.4119 -0.2802  0.1152
 1076YOPC   D3B14393  15.803  11.577   7.068 -0.0183 -0.1696 -0.2226
 1076YOPC   C4B14394  15.687  11.610   7.384 -0.2787  0.3371  0.0070
 1077YOPC   NC314395   9.112   7.626   5.480  0.1396  0.3694  0.0980
 1077YOPC   PO414396   8.945   8.018   5.622  0.0901 -0.0833  0.1431
 1077YOPC   GL114397   9.043   7.956   6.048 -0.0368 -0.0700  0.2810
 1077YOPC   GL214398   9.172   7.786   6.264 -0.0953 -0.1849  0.0478
 1077YOPC   C1A14399   8.714   8.052   6.371  0.0243  0.0407  0.0631
 1077YOPC   D2A14400   8.714   7.970   6.666 -0.0059 -0.1294 -0.0404
 1077YOPC   C3A14401   8.629   7.854   6.985  0.0992 -0.4253  0.0302
 1077YOPC   C4A14402   8.578   7.699   7.386  0.3111 -0.2057  0.2777
 1077YOPC   C1B14403   9.205   7.735   6.645  0.1035  0.1560 -0.1425
 1077YOPC   C2B14404   9.032   7.572   6.977 -0.2565 -0.2435  0.1007
 1077YOPC   D3B14405   9.087   7.447   7.337 -0.0657  0.3322 -0.0330
 1077YOPC   C4B14406   8.906   7.416   7.584 -0.1443  0.3037 -0.1962
 1078YOPC   NC314407   7.557   9.848   5.203 -0.0252 -0.1990 -0.0423
 1078YOPC   PO414408   7.524   9.660   5.649 -0.0428 -0.0572 -0.0198
 1078YOPC   GL114409   7.457   9.937   6.002  0.1362 -0.0343  0.0723
 1078YOPC   GL214410   7.267  10.091   6.062  0.2815 -0.0450 -0.1649
 1078YOPC   C1A14411   7.681  10.086   6.371  0.3054  0.0897  0.1041
 1078YOPC   D2A14412   7.680  10.165   6.803  0.2552 -0.0553  0.2250
 1078YOPC   C3A14413   8.045  10.181   7.107 -0.0607  0.0726 -0.2139
 1078YOPC   C4A14414   8.364  10.216   7.314  0.1408 -0.0622 -0.0118
 1078YOPC   C1B14415   7.213  10.175   6.420  0.2687  0.3172 -0.0375
 1078YOPC   C2B14416   7.022  10.216   6.819  0.1986 -0.0199  0.2536
 1078YOPC   D3B14417   7.273  10.056   7.098  0.1669  0.1561 -0.0906
 1078YOPC   C4B14418   7.629   9.867   7.191  0.1762 -0.0373 -0.0691
 1079YOPC   NC314419  16.050   4.155   5.594  0.0664 -0.2873  0.1694
 1079YOPC   PO414420  16.474   4.171   5.699  0.1907 -0.1215  0.0511
 1079YOPC   GL114421  16.287   4.278   6.184 -0.3465 -0.1287 -0.1650
 1079YOPC   GL214422  16.011   4.516   6.134 -0.0094 -0.2221 -0.1167
 1079YOPC   C1A14423  16.231   4.391   6.683  0.3379  0.1857  0.0535
 1079YOPC   D2A14424  15.973   4.392   7.048  0.0071  0.1810  0.0524
 1079YOPC   C3A14425  16.080   4.553   7.428  0.2720  0.3894  0.2227
 1079YOPC   C4A14426  16.282   4.580   7.954  0.1055  0.0542  0.2724
 1079YOPC   C1B14427  15.768   4.320   6.427 -0.0457 -0.3744 -0.0295
 1079YOPC   C2B14428  15.503   4.403   6.758  0.0922 -0.1810 -0.3834
 1079YOPC   D3B14429  15.552   4.158   7.142 -0.2183  0.1869  0.0808
 1079YOPC   C4B14430  15.676   3.770   7.191 -0.1217 -0.4121  0.2819
 1080YOPC   NC314431  10.192  14.826   6.059 -0.2640 -0.2026  0.0367
 1080YOPC   PO414432   9.758  15.055   6.247 -0.2844 -0.0766 -0.0442
 1080YOPC   GL114433   9.850  14.983   6.587 -0.2130 -0.1623  0.2784
 1080YOPC   GL214434  10.071  15.035   6.646 -0.1374  0.0032 -0.2817
 1080YOPC   C1A14435   9.751  14.645   6.805  0.0585 -0.2957 -0.0387
 1080YOPC   D2A14436   9.768  14.442   7.207  0.2428 -0.0950  0.3329
 1080YOPC   C3A14437   9.590  14.279   7.614  0.0110 -0.2047  0.1674
 1080YOPC   C4A14438   9.330  13.915   7.878  0.1915 -0.0003 -0.0430
 1080YOPC   C1B14439  10.333  15.311   6.815  0.1328 -0.0630  0.2289
 1080YOPC   C2B14440  10.671  15.643   6.967  0.0728 -0.2173  0.1508
 1080YOPC   D3B14441  10.676  15.810   7.343  0.1421  0.2250  0.0358
 1080YOPC   C4B14442  10.651  15.987   7.754  0.1587  0.2716 -0.1690
 1081YOPC   NC314443  10.602   0.411   6.054 -0.2091  0.0147  0.0103
 1081YOPC   PO414444  10.792   0.859   5.938 -0.0810  0.0429  0.1477
 1081YOPC   GL114445  10.786   0.814   6.436 -0.2281  0.0984  0.1553
 1081YOPC   GL214446  10.895   0.533   6.462 -0.2870 -0.1193 -0.1847
 1081YOPC   C1A14447  11.087   0.866   6.750  0.2392 -0.1579 -0.0276
 1081YOPC   D2A14448  11.203   0.978   7.117  0.0111 -0.1144  0.2051
 1081YOPC   C3A14449  11.249   0.802   7.537  0.0304 -0.1544  0.3740
 1081YOPC   C4A14450  11.600   0.574   7.701  0.0460 -0.0294  0.1379
 1081YOPC   C1B14451  11.297   0.380   6.785  0.0206  0.0966  0.1754
 1081YOPC   C2B14452  11.406   0.423   7.201 -0.0350  0.1678 -0.0192
 1081YOPC   D3B14453  11.315   0.232   7.580 -0.2280 -0.0157  0.0027
 1081YOPC   C4B14454  11.061   0.504   7.940  0.0319 -0.3920 -0.0614
 1082YOPC   NC314455  13.821   6.355   5.502 -0.0242  0.0265  0.0954
 1082YOPC   PO414456  14.026   6.711   5.668  0.0513 -0.2282  0.0482
 1082YOPC   GL114457  14.137   6.919   6.034 -0.0584  0.1463  0.2144
 1082YOPC   GL214458  14.373   7.169   6.054  0.0331  0.1630  0.1400
 1082YOPC   C1A14459  14.144   7.068   6.472  0.0916 -0.0710  0.2884
 1082YOPC   D2A14460  14.087   7.005   6.991 -0.0459  0.0461  0.0549
 1082YOPC   C3A14461  13.921   6.631   7.269 -0.4892  0.1578  0.4635
 1082YOPC   C4A14462  13.681   6.229   7.425  0.0541  0.0192  0.2041
 1082YOPC   C1B14463  14.528   6.768   6.361 -0.1292  0.0795  0.1286
 1082YOPC   C2B14464  14.418   6.593   6.687  0.0931 -0.1222 -0.1097
 1082YOPC   D3B14465  14.511   6.550   7.148 -0.2524 -0.0887 -0.5158
 1082YOPC   C4B14466  14.614   6.498   7.631 -0.0919  0.1934  0.1244
 1083YOPC   NC314467  13.330  14.733   5.398  0.3027 -0.0940  0.0360
 1083YOPC   PO414468  13.102  15.077   5.562  0.0733  0.3636 -0.3221
 1083YOPC   GL114469  12.853  14.694   5.871 -0.4020  0.4057 -0.0170
 1083YOPC   GL214470  12.789  14.386   5.920  0.0897 -0.1694 -0.1979
 1083YOPC   C1A14471  12.683  14.737   6.245 -0.1211 -0.1020 -0.0358
 1083YOPC   D2A14472  12.911  14.646   6.722  0.0919  0.0324 -0.3972
 1083YOPC   C3A14473  12.652  14.776   7.055  0.4177  0.3986 -0.0605
 1083YOPC   C4A14474  12.366  15.083   7.045 -0.4011 -0.2601 -0.2275
 1083YOPC   C1B14475  13.058  14.331   6.322 -0.0781 -0.1461 -0.0720
 1083YOPC   C2B14476  13.447  14.462   6.450 -0.0767  0.2082  0.1467
 1083YOPC   D3B14477  13.455  14.448   6.817 -0.0837 -0.0502  0.3853
 1083YOPC   C4B14478  13.381  14.358   7.266 -0.1373 -0.0856  0.0706
 1084YOPC   NC314479  10.851   4.918   5.482  0.0353  0.2078 -0.0695
 1084YOPC   PO414480  10.339   4.845   5.552  0.0237 -0.0426 -0.0158
 1084YOPC   GL114481  10.463   5.105   5.884  0.0334 -0.2232  0.1525
 1084YOPC   GL214482  10.675   5.214   5.961 -0.3885 -0.3053 -0.1142
 1084YOPC   C1A14483  10.236   5.084   6.273  0.3312  0.1957  0.0482
 1084YOPC   D2A14484  10.018   4.830   6.442  0.1992 -0.1567  0.0318
 1084YOPC   C3A14485  10.018   4.798   6.904 -0.0561 -0.0566  0.5102
 1084YOPC   C4A14486  10.120   4.756   7.294  0.0334 -0.1944 -0.2613
 1084YOPC   C1B14487  10.775   5.073   6.385 -0.0024  0.0301  0.0016
 1084YOPC   C2B14488  10.475   4.947   6.686  0.0410 -0.0591 -0.2282
 1084YOPC   D3B14489  10.261   5.212   7.068 -0.2872  0.3206 -0.1160
 1084YOPC   C4B14490  10.054   5.244   7.471 -0.0657 -0.0052  0.2875
 1085YOPC   NC314491   3.532   7.271   5.816 -0.0307  0.0132 -0.0670
 1085YOPC   PO414492   3.261   6.914   6.007  0.3407  0.0826  0.2014
 1085YOPC   GL114493   3.231   7.338   6.246 -0.0463  0.1473  0.1856
 1085YOPC   GL214494   2.913   7.422   6.309  0.2745  0.1886  0.4005
 1085YOPC   C1A14495   3.396   7.616   6.632  0.1400  0.0136 -0.1273
 1085YOPC   D2A14496   3.432   7.730   7.063  0.0314  0.0745 -0.2002
 1085YOPC   C3A14497   3.887   7.831   7.230 -0.0658  0.1749 -0.3941
 1085YOPC   C4A14498   4.135   7.983   7.598 -0.2471 -0.0774  0.0010
 1085YOPC   C1B14499   2.930   7.403   6.739 -0.0255 -0.1135  0.2039
 1085YOPC   C2B14500   2.813   7.539   7.176 -0.2028  0.0516  0.0142
 1085YOPC   D3B14501   3.102   7.698   7.504  0.1289 -0.0262 -0.1249
 1085YOPC   C4B14502   3.174   8.114   7.658 -0.1410  0.1363 -0.0395
 1086YOPC   NC314503   0.721  18.062   6.011 -0.1082 -0.1444 -0.2096
 1086YOPC   PO414504   0.907  17.738   5.844 -0.1926  0.3935 -0.1037
 1086YOPC   GL114505   0.785  17.600   6.213  0.0189  0.1738  0.0239
 1086YOPC   GL214506   0.424  17.488   6.304 -0.0906  0.0864  0.2808
 1086YOPC   C1A14507   0.787  17.778   6.631  0.0745 -0.2243 -0.3547
 1086YOPC   D2A14508   0.577  18.200   6.890  0.1274  0.1291  0.2022
 1086YOPC   C3A14509   0.514  18.253   7.310  0.2246  0.2200  0.3050
 1086YOPC   C4A14510   0.084  18.269   7.568  0.0065  0.1560 -0.0894
 1086YOPC   C1B14511   0.078  17.690   6.184 -0.2173 -0.0609  0.2502
 1086YOPC   C2B14512  -0.385  17.694   6.217  0.0463  0.2715 -0.1025
 1086YOPC   D3B14513  -0.488  17.748   6.644 -0.5894  0.1190  0.1580
 1086YOPC   C4B14514  -0.665  17.490   7.054  0.0014 -0.1352  0.0638
 1087YOPC   NC314515  12.987   0.005   5.841  0.3695  0.1045  0.0236
 1087YOPC   PO414516  12.896   0.374   5.938  0.0779  0.0842  0.4568
 1087YOPC   GL114517  13.139   0.488   6.160  0.1791  0.1005 -0.2395
 1087YOPC   GL214518  12.916   0.792   6.288  0.1659 -0.2559 -0.0991
 1087YOPC   C1A14519  13.240   0.444   6.623 -0.2193  0.0295 -0.0441
 1087YOPC   D2A14520  13.407   0.237   6.968  0.1446 -0.0051 -0.1969
 1087YOPC   C3A14521  13.257   0.241   7.375  0.0849  0.5799 -0.0083
 1087YOPC   C4A14522  13.022   0.474   7.625  0.1110  0.1071  0.3843
 1087YOPC   C1B14523  13.077   1.046   6.548  0.0314 -0.0973  0.1025
 1087YOPC   C2B14524  13.345   1.316   6.594 -0.0170  0.1423  0.0697
 1087YOPC   D3B14525  13.361   1.425   6.935  0.2640  0.1749  0.1478
 1087YOPC   C4B14526  13.112   1.224   7.207  0.1983 -0.1867  0.3231
 1088YOPC   NC314527  11.367  18.328   5.710 -0.0931  0.0761  0.0319
 1088YOPC   PO414528  11.465  18.470   6.107  0.1202 -0.1899  0.1119
 1088YOPC   GL114529  11.503  18.435   6.522  0.2548 -0.0082  0.1539
 1088YOPC   GL214530  11.296  18.118   6.558  0.1232 -0.1000 -0.0185
 1088YOPC   C1A14531  11.630  18.538   6.879 -0.1056  0.2088  0.0991
 1088YOPC   D2A14532  11.734  18.497   7.354  0.3028  0.0596  0.1764
 1088YOPC   C3A14533  11.662  18.443   7.852 -0.1320 -0.3651 -0.1882
 1088YOPC   C4A14534  11.599  18.342   8.282 -0.1635  0.0977  0.0324
 1088YOPC   C1B14535  11.494  18.028   6.968  0.0242  0.0960 -0.1122
 1088YOPC   C2B14536  11.496  17.653   7.245  0.0008  0.1397  0.1073
 1088YOPC   D3B14537  11.709  17.598   7.610  0.0256 -0.3013 -0.0153
 1088YOPC   C4B14538  12.009  17.725   7.890 -0.3144 -0.2441  0.0702
 1089YOPC   NC314539   8.667   6.921   5.215 -0.1817  0.0325  0.0400
 1089YOPC   PO414540   8.992   7.118   5.502  0.1481  0.2743 -0.1773
 1089YOPC   GL114541   8.856   6.916   5.811 -0.1412  0.2040 -0.2204
 1089YOPC   GL214542   8.770   7.076   6.102 -0.0014  0.1076  0.1503
 1089YOPC   C1A14543   9.073   6.542   6.104  0.0236  0.1881  0.1626
 1089YOPC   D2A14544   8.807   6.393   6.442 -0.2411 -0.3498  0.2483
 1089YOPC   C3A14545   8.785   6.485   6.858  0.0650 -0.3296  0.1540
 1089YOPC   C4A14546   8.736   6.615   7.235 -0.0034 -0.2551 -0.1345
 1089YOPC   C1B14547   8.745   6.895   6.428  0.0816 -0.3513 -0.0961
 1089YOPC   C2B14548   8.445   6.878   6.763  0.0556 -0.1400  0.0626
 1089YOPC   D3B14549   8.312   6.600   6.981  0.0321  0.3290 -0.2594
 1089YOPC   C4B14550   8.170   6.606   7.374  0.1254 -0.0666  0.0495
 1090YOPC   NC314551   4.768  13.222   5.840  0.0205  0.4301  0.0121
 1090YOPC   PO414552   5.027  13.456   6.064  0.4313 -0.0321 -0.2708
 1090YOPC   GL114553   4.900  13.518   6.418 -0.2874  0.0315 -0.0601
 1090YOPC   GL214554   4.639  13.777   6.436  0.0618 -0.3214  0.2580
 1090YOPC   C1A14555   4.786  13.324   6.767 -0.1997 -0.0637 -0.2216
 1090YOPC   D2A14556   4.458  13.107   6.977  0.0421  0.1713 -0.2268
 1090YOPC   C3A14557   4.019  12.984   6.915  0.2898  0.1763 -0.2850
 1090YOPC   C4A14558   3.908  12.876   6.463 -0.0665  0.0396 -0.1100
 1090YOPC   C1B14559   4.646  14.147   6.698 -0.0344  0.0991 -0.2218
 1090YOPC   C2B14560   4.696  14.516   6.813 -0.0963 -0.0119 -0.2533
 1090YOPC   D3B14561   4.912  14.343   7.186  0.0946  0.0213 -0.1533
 1090YOPC   C4B14562   5.005  14.220   7.615 -0.2617  0.1525  0.1718
 1091YOPC   NC314563   5.464   8.081   5.257 -0.3590  0.3300  0.1271
 1091YOPC   PO414564   5.849   7.901   5.579  0.3589 -0.2103  0.0249
 1091YOPC   GL114565   5.760   7.899   6.048  0.3133 -0.1735  0.2581
 1091YOPC   GL214566   5.861   7.682   6.226 -0.0566  0.1888  0.0009
 1091YOPC   C1A14567   5.552   8.066   6.355 -0.0645  0.1546  0.2448
 1091YOPC   D2A14568   5.702   8.145   6.853  0.4562 -0.1146 -0.0516
 1091YOPC   C3A14569   5.620   7.768   7.167 -0.3642  0.2633  0.2287
 1091YOPC   C4A14570   5.468   7.575   7.458  0.1324 -0.3133  0.1462
 1091YOPC   C1B14571   6.083   7.647   6.512 -0.0137  0.0015  0.1456
 1091YOPC   C2B14572   6.278   7.677   6.915  0.0542 -0.2774 -0.2329
 1091YOPC   D3B14573   6.107   8.007   7.187 -0.0839 -0.0707 -0.0898
 1091YOPC   C4B14574   5.976   8.458   7.124  0.0153 -0.1219 -0.0054
 1092YOPC   NC314575   7.154   5.033   5.702 -0.2858  0.0788 -0.2298
 1092YOPC   PO414576   6.856   4.849   5.674  0.2791  0.0394 -0.0905
 1092YOPC   GL114577   6.940   4.606   5.966 -0.0225  0.0786 -0.2891
 1092YOPC   GL214578   7.064   4.285   5.965  0.1936 -0.4072  0.0776
 1092YOPC   C1A14579   6.947   4.583   6.437 -0.2411  0.0306 -0.1583
 1092YOPC   D2A14580   6.846   4.351   6.807  0.0988 -0.0722 -0.1390
 1092YOPC   C3A14581   7.118   4.013   7.031 -0.1522  0.1921 -0.3042
 1092YOPC   C4A14582   7.335   3.664   7.330  0.0586  0.1172  0.3117
 1092YOPC   C1B14583   7.076   4.037   6.441 -0.1414  0.0090 -0.0947
 1092YOPC   C2B14584   6.918   3.749   6.685  0.1211 -0.0134  0.1171
 1092YOPC   D3B14585   7.187   3.493   6.821  0.0062 -0.1490 -0.5027
 1092YOPC   C4B14586   7.572   3.362   7.004  0.0562 -0.3169 -0.1170
 1093YOPC   NC314587   0.511   9.487   5.233 -0.1972  0.0566 -0.2568
 1093YOPC   PO414588   0.282   9.784   5.484  0.0938 -0.0435 -0.2234
 1093YOPC   GL114589   0.152   9.828   5.927  0.1397 -0.1664 -0.1911
 1093YOPC   GL214590  -0.058   9.517   6.008  0.2259  0.2906 -0.0410
 1093YOPC   C1A14591   0.294   9.753   6.442 -0.2624 -0.1136 -0.0425
 1093YOPC   D2A14592   0.260   9.549   6.836 -0.0381 -0.1501  0.0853
 1093YOPC   C3A14593   0.519   9.732   7.130  0.1097 -0.4065  0.3065
 1093YOPC   C4A14594   0.571  10.086   7.424  0.3138  0.0102 -0.1739
 1093YOPC   C1B14595  -0.125   9.510   6.435 -0.0761  0.0754  0.0882
 1093YOPC   C2B14596  -0.249   9.587   6.834 -0.0311  0.1562 -0.3035
 1093YOPC   D3B14597  -0.082   9.281   7.169  0.1990  0.0947 -0.0414
 1093YOPC   C4B14598   0.198   8.924   7.091 -0.1539  0.0189  0.0694
 1094YOPC   NC314599  12.425  16.770   5.930 -0.1300 -0.0383 -0.1772
 1094YOPC   PO414600  12.826  16.691   6.070  0.0221  0.2390  0.0587
 1094YOPC   GL114601  13.226  16.535   6.231  0.0720 -0.0907 -0.1551
 1094YOPC   GL214602  13.085  16.315   6.543 -0.0664  0.3349 -0.0199
 1094YOPC   C1A14603  13.577  16.499   6.576 -0.1149 -0.1231  0.0439
 1094YOPC   D2A14604  13.844  16.606   6.864 -0.1311 -0.1011  0.0442
 1094YOPC   C3A14605  13.970  16.247   7.123  0.2126 -0.0049  0.0244
 1094YOPC   C4A14606  14.257  16.042   7.526 -0.0852  0.0917 -0.0567
 1094YOPC   C1B14607  13.294  16.271   6.977 -0.0790  0.1069  0.0872
 1094YOPC   C2B14608  13.473  15.997   7.368 -0.2151 -0.0471  0.0882
 1094YOPC   D3B14609  13.259  15.839   7.669 -0.0490  0.0358 -0.0292
 1094YOPC   C4B14610  13.058  15.926   8.042  0.0165  0.2347 -0.1321
 1095YOPC   NC314611   0.529  12.882   5.566  0.2789 -0.0593 -0.1042
 1095YOPC   PO414612   0.788  12.445   5.648 -0.2034 -0.0214  0.3434
 1095YOPC   GL114613   0.751  12.555   6.087  0.1719  0.0175  0.4919
 1095YOPC   GL214614   0.672  12.884   6.098  0.2323  0.2445  0.0537
 1095YOPC   C1A14615   0.806  12.514   6.521  0.3241 -0.1240  0.1152
 1095YOPC   D2A14616   0.713  12.735   6.909 -0.0377  0.0985  0.4216
 1095YOPC   C3A14617   0.771  12.670   7.354  0.0943 -0.2124 -0.1501
 1095YOPC   C4A14618   0.658  12.554   7.791  0.0983 -0.0741  0.2520
 1095YOPC   C1B14619   0.380  12.817   6.347 -0.2924 -0.0562 -0.1009
 1095YOPC   C2B14620   0.248  12.781   6.745 -0.1369  0.0783 -0.0372
 1095YOPC   D3B14621   0.259  13.025   7.064 -0.1222 -0.1775  0.0647
 1095YOPC   C4B14622   0.473  13.091   7.492 -0.0174 -0.0860 -0.0365
 1096YOPC   NC314623  16.065   6.478   5.292 -0.3997 -0.2346  0.3764
 1096YOPC   PO414624  16.468   6.754   5.476  0.0140 -0.0318  0.1835
 1096YOPC   GL114625  16.953   6.688   5.667 -0.0769 -0.0956 -0.0962
 1096YOPC   GL214626  17.204   6.902   5.757 -0.2439  0.0861  0.3610
 1096YOPC   C1A14627  17.310   6.438   5.894  0.1131  0.0901 -0.0705
 1096YOPC   D2A14628  17.395   6.231   6.353 -0.0695  0.0357  0.1974
 1096YOPC   C3A14629  17.114   6.213   6.676 -0.2995 -0.1833  0.0417
 1096YOPC   C4A14630  16.875   6.286   7.019 -0.2751  0.2152 -0.1052
 1096YOPC   C1B14631  17.126   6.985   6.173 -0.2185  0.1801 -0.2171
 1096YOPC   C2B14632  16.769   7.038   6.382 -0.1195  0.0107  0.2130
 1096YOPC   D3B14633  16.753   7.226   6.866 -0.2468  0.1348  0.0656
 1096YOPC   C4B14634  16.712   7.344   7.311 -0.0922 -0.0605 -0.1626
 1097YOPC   NC314635  10.364  17.440   5.948  0.3529  0.0383 -0.1959
 1097YOPC   PO414636   9.887  17.665   5.869 -0.2472  0.0412  0.0564
 1097YOPC   GL114637   9.998  17.639   6.327 -0.0289 -0.1623  0.0350
 1097YOPC   GL214638  10.131  17.432   6.483 -0.1891 -0.2085  0.4183
 1097YOPC   C1A14639   9.741  17.667   6.648 -0.0123  0.0816 -0.0254
 1097YOPC   D2A14640   9.368  17.846   6.689  0.0821  0.1779 -0.1466
 1097YOPC   C3A14641   9.194  17.728   7.113 -0.2055 -0.1399  0.1611
 1097YOPC   C4A14642   9.179  17.724   7.496 -0.4118  0.3005  0.1554
 1097YOPC   C1B14643  10.165  17.490   6.876 -0.1691  0.1154  0.0044
 1097YOPC   C2B14644  10.133  17.659   7.268  0.0310  0.1484 -0.1044
 1097YOPC   D3B14645  10.337  18.034   7.376  0.1275  0.1067 -0.1757
 1097YOPC   C4B14646  10.560  18.142   7.088 -0.1817 -0.0008  0.0762
 1098YOPC   NC314647   1.827  16.953   6.017 -0.0688  0.3691  0.0558
 1098YOPC   PO414648   1.980  16.663   5.778 -0.4077  0.0865  0.2003
 1098YOPC   GL114649   2.199  16.681   6.233  0.0691  0.1762 -0.0523
 1098YOPC   GL214650   2.406  16.337   6.353 -0.0631  0.1023  0.1891
 1098YOPC   C1A14651   1.945  16.612   6.597 -0.1388  0.0485 -0.1404
 1098YOPC   D2A14652   1.767  16.703   6.960  0.1499  0.0721  0.0519
 1098YOPC   C3A14653   1.746  16.952   7.308  0.1760 -0.0634 -0.1140
 1098YOPC   C4A14654   1.873  16.982   7.701 -0.6195  0.2376 -0.1662
 1098YOPC   C1B14655   2.596  16.380   6.797 -0.0498 -0.1380 -0.0375
 1098YOPC   C2B14656   3.062  16.627   6.892 -0.1326 -0.0537  0.3657
 1098YOPC   D3B14657   3.177  16.430   7.225 -0.2793 -0.0389 -0.0699
 1098YOPC   C4B14658   3.442  16.539   7.497  0.0010 -0.1352 -0.2664
 1099YOPC   NC314659   1.505   2.930   5.319  0.0514 -0.2763 -0.2508
 1099YOPC   PO414660   1.726   2.830   5.702  0.2437 -0.1940 -0.2803
 1099YOPC   GL114661   1.520   2.708   6.125  0.0025 -0.5077  0.0285
 1099YOPC   GL214662   1.114   2.619   6.128 -0.0952  0.1304 -0.1474
 1099YOPC   C1A14663   1.559   2.724   6.562 -0.0533  0.2511 -0.1985
 1099YOPC   D2A14664   1.531   2.353   6.743  0.2171 -0.1617  0.0542
 1099YOPC   C3A14665   1.619   2.089   7.109  0.0032 -0.1473 -0.0493
 1099YOPC   C4A14666   1.845   2.159   7.437  0.3514 -0.1118 -0.2343
 1099YOPC   C1B14667   1.041   2.528   6.591  0.1996  0.3109 -0.2776
 1099YOPC   C2B14668   1.135   2.400   7.038 -0.2239 -0.0086  0.0116
 1099YOPC   D3B14669   0.899   2.304   7.320  0.1099  0.2137  0.1439
 1099YOPC   C4B14670   0.889   2.386   7.758  0.2246  0.0553 -0.3508
 1100YOPC   NC314671  11.660   3.400   5.741  0.0969  0.3761 -0.2360
 1100YOPC   PO414672  11.175   3.390   5.921  0.2296  0.1673 -0.1718
 1100YOPC   GL114673  10.974   3.617   6.249 -0.1335 -0.0157 -0.0323
 1100YOPC   GL214674  10.629   3.759   6.233 -0.0234 -0.2315 -0.0649
 1100YOPC   C1A14675  11.064   3.421   6.727  0.1247 -0.0893 -0.1878
 1100YOPC   D2A14676  11.199   3.332   7.094 -0.0495  0.2728  0.5510
 1100YOPC   C3A14677  10.869   3.440   7.497 -0.0809 -0.2100  0.3393
 1100YOPC   C4A14678  10.609   3.603   7.817 -0.0516  0.1882 -0.0648
 1100YOPC   C1B14679  10.697   3.874   6.660 -0.1067 -0.1627 -0.1835
 1100YOPC   C2B14680  10.903   3.813   7.053  0.2187  0.1159  0.1032
 1100YOPC   D3B14681  10.610   3.842   7.325  0.1333  0.1742 -0.0774
 1100YOPC   C4B14682  10.278   3.900   7.619  0.1853 -0.0599  0.3104
 1101YOPC   NC314683   2.843  12.226   5.780  0.4649  0.1056  0.0382
 1101YOPC   PO414684   2.336  12.185   5.612  0.3283  0.0192  0.1456
 1101YOPC   GL114685   2.488  11.851   5.987 -0.1254  0.2496 -0.3065
 1101YOPC   GL214686   2.839  11.628   5.780  0.0846 -0.3533  0.2640
 1101YOPC   C1A14687   2.802  11.689   6.325 -0.1302 -0.0945 -0.2109
 1101YOPC   D2A14688   2.728  11.670   6.760 -0.5015  0.0462  0.2447
 1101YOPC   C3A14689   2.678  11.299   7.033  0.1068 -0.0486  0.3012
 1101YOPC   C4A14690   2.434  11.069   7.320 -0.1132 -0.1508 -0.0682
 1101YOPC   C1B14691   2.824  11.192   6.101 -0.1288 -0.0319  0.1586
 1101YOPC   C2B14692   2.990  10.751   6.178  0.1205  0.0736  0.2395
 1101YOPC   D3B14693   3.198  10.663   6.548 -0.1958 -0.1575 -0.1750
 1101YOPC   C4B14694   3.291  10.846   6.790  0.2730 -0.0077  0.1458
 1102YOPC   NC314695  14.840  16.431   5.451  0.2317  0.1244 -0.2112
 1102YOPC   PO414696  14.972  16.244   5.748 -0.2394  0.1534  0.1114
 1102YOPC   GL114697  14.816  15.944   6.121 -0.1299  0.1315 -0.1120
 1102YOPC   GL214698  14.522  15.783   6.013  0.1168 -0.1716  0.3837
 1102YOPC   C1A14699  14.845  15.895   6.546 -0.1937  0.1662  0.1467
 1102YOPC   D2A14700  14.913  16.068   6.897  0.1169 -0.1650 -0.5413
 1102YOPC   C3A14701  14.960  15.970   7.272 -0.0254 -0.1158 -0.2240
 1102YOPC   C4A14702  15.201  15.881   7.652 -0.1750  0.0618  0.3803
 1102YOPC   C1B14703  14.287  16.042   6.315  0.1519  0.1659  0.0586
 1102YOPC   C2B14704  13.942  16.124   6.299 -0.2108 -0.1586  0.1891
 1102YOPC   D3B14705  13.826  16.024   6.672 -0.3829  0.0293 -0.1343
 1102YOPC   C4B14706  14.025  15.750   7.151  0.3245 -0.0902 -0.2292
 1103YOPC   NC314707   0.893  15.583   5.753  0.0154 -0.0968 -0.1491
 1103YOPC   PO414708   0.993  16.041   5.914  0.2801 -0.0817 -0.1649
 1103YOPC   GL114709   1.158  16.203   6.283 -0.0725 -0.0360 -0.0169
 1103YOPC   GL214710   0.948  16.522   6.310 -0.2617  0.2229  0.3965
 1103YOPC   C1A14711   1.516  16.364   6.576  0.0518  0.1696 -0.2176
 1103YOPC   D2A14712   1.814  16.213   6.901  0.0949  0.1157 -0.0113
 1103YOPC   C3A14713   2.147  16.404   7.053  0.3476 -0.1135  0.0394
 1103YOPC   C4A14714   2.222  16.751   7.214  0.0275  0.0813  0.0546
 1103YOPC   C1B14715   0.932  16.286   6.753  0.2993  0.1872  0.1372
 1103YOPC   C2B14716   0.778  16.302   7.181  0.1756 -0.1536 -0.0675
 1103YOPC   D3B14717   1.071  16.343   7.548 -0.0218  0.0529 -0.0295
 1103YOPC   C4B14718   1.072  16.466   7.982  0.1329 -0.0459 -0.1369
 1104YOPC   NC314719   2.751   3.816   6.108  0.2039  0.6787 -0.0401
 1104YOPC   PO414720   3.122   3.711   6.345 -0.1905  0.1296  0.3235
 1104YOPC   GL114721   3.057   3.724   6.833 -0.0208  0.0834 -0.0634
 1104YOPC   GL214722   3.298   3.976   6.900  0.2190 -0.2962  0.1405
 1104YOPC   C1A14723   3.029   3.671   7.256  0.0277  0.2690  0.0925
 1104YOPC   D2A14724   2.855   3.726   7.666 -0.0180 -0.2216  0.1015
 1104YOPC   C3A14725   2.906   4.104   7.971  0.0132  0.2355 -0.0123
 1104YOPC   C4A14726   3.140   4.559   8.019 -0.2139 -0.2767  0.3447
 1104YOPC   C1B14727   3.463   4.015   7.285  0.0665 -0.1229  0.3137
 1104YOPC   C2B14728   3.749   4.178   7.573 -0.3656 -0.0333 -0.1297
 1104YOPC   D3B14729   3.678   4.335   7.920  0.2153  0.1634  0.2298
 1104YOPC   C4B14730   3.600   4.584   8.278  0.1776 -0.0317  0.1798
 1105YOPC   NC314731   2.663  15.090   5.765 -0.1776  0.0424 -0.0653
 1105YOPC   PO414732   2.905  15.358   5.902  0.1004 -0.0802  0.1913
 1105YOPC   GL114733   2.823  15.192   6.305  0.2786  0.0493 -0.2460
 1105YOPC   GL214734   2.511  15.264   6.294  0.1082  0.2557  0.2827
 1105YOPC   C1A14735   2.943  15.006   6.642  0.0130 -0.2371  0.1497
 1105YOPC   D2A14736   2.949  14.776   7.053  0.5379  0.1004 -0.1664
 1105YOPC   C3A14737   3.270  14.812   7.354  0.3375 -0.0590  0.1317
 1105YOPC   C4A14738   3.453  14.976   7.740  0.2197 -0.1686 -0.1999
 1105YOPC   C1B14739   2.480  15.160   6.814 -0.1618 -0.1151 -0.1106
 1105YOPC   C2B14740   2.394  14.938   7.098 -0.0120 -0.0480 -0.2437
 1105YOPC   D3B14741   2.134  14.856   7.493  0.1100  0.0076 -0.0241
 1105YOPC   C4B14742   2.006  15.059   7.787  0.0054 -0.1173 -0.0519
 1106YOPC   NC314743  16.465  18.216   5.405 -0.2181  0.0180 -0.1890
 1106YOPC   PO414744  16.465  17.772   5.282  0.1184 -0.1955 -0.0134
 1106YOPC   GL114745  16.327  17.851   5.721 -0.1204 -0.0311  0.2354
 1106YOPC   GL214746  16.450  18.090   5.885 -0.1896 -0.2609 -0.0363
 1106YOPC   C1A14747  16.120  17.706   6.088 -0.0316  0.1940 -0.3922
 1106YOPC   D2A14748  16.172  17.701   6.417  0.0631 -0.1582  0.1164
 1106YOPC   C3A14749  16.249  17.765   6.808 -0.2489 -0.1214  0.0225
 1106YOPC   C4A14750  16.025  17.694   7.182 -0.1589  0.0611 -0.0498
 1106YOPC   C1B14751  16.487  18.035   6.350  0.1029  0.3421 -0.0453
 1106YOPC   C2B14752  16.624  18.194   6.739 -0.1628 -0.0553 -0.1488
 1106YOPC   D3B14753  16.743  18.604   6.697 -0.0363  0.1314 -0.0296
 1106YOPC   C4B14754  16.715  18.940   6.480 -0.0328  0.1854  0.0641
 1107YOPC   NC314755   2.413  16.443   5.865 -0.1080 -0.2849  0.1592
 1107YOPC   PO414756   2.427  16.924   5.798  0.1852  0.0113  0.2024
 1107YOPC   GL114757   2.738  16.750   6.102 -0.1604 -0.3981 -0.0891
 1107YOPC   GL214758   3.052  16.783   6.204  0.1118  0.2434  0.0545
 1107YOPC   C1A14759   2.616  16.824   6.547 -0.1247  0.0351 -0.1030
 1107YOPC   D2A14760   2.573  16.998   6.958 -0.0795 -0.2970  0.1583
 1107YOPC   C3A14761   2.689  16.765   7.218  0.0105  0.1361 -0.3116
 1107YOPC   C4A14762   2.888  16.532   7.569 -0.2790  0.2364 -0.3910
 1107YOPC   C1B14763   3.119  16.976   6.540  0.1838  0.1933  0.0204
 1107YOPC   C2B14764   3.040  17.241   6.827 -0.0435  0.0146 -0.1628
 1107YOPC   D3B14765   3.074  17.449   7.084 -0.0128 -0.4209  0.0575
 1107YOPC   C4B14766   3.307  17.585   7.488  0.3710  0.0936 -0.2055
 1108YOPC   NC314767  11.064   2.299   5.743  0.1356  0.0386 -0.0261
 1108YOPC   PO414768  11.095   2.438   6.150  0.2084  0.0471 -0.2688
 1108YOPC   GL114769  11.036   2.540   6.632 -0.1142  0.1774 -0.0362
 1108YOPC   GL214770  11.354   2.302   6.631  0.2305  0.0374  0.0043
 1108YOPC   C1A14771  11.064   2.490   7.070 -0.1988  0.0651  0.0324
 1108YOPC   D2A14772  11.134   2.673   7.400 -0.0531 -0.1117  0.2176
 1108YOPC   C3A14773  11.293   2.665   7.827 -0.2477  0.1368 -0.0844
 1108YOPC   C4A14774  11.163   2.342   8.090  0.3767  0.1672 -0.1409
 1108YOPC   C1B14775  11.541   2.241   6.983 -0.0379  0.2090 -0.2273
 1108YOPC   C2B14776  11.498   2.334   7.402  0.4241 -0.1010 -0.1667
 1108YOPC   D3B14777  11.822   2.422   7.761  0.2217  0.1571  0.2930
 1108YOPC   C4B14778  11.646   2.497   8.075 -0.2834 -0.3530 -0.0544
 1109YOPC   NC314779   6.000   0.254   5.801 -0.1833  0.0287  0.0784
 1109YOPC   PO414780   5.594   0.038   5.837  0.0536  0.1060 -0.0106
 1109YOPC   GL114781   5.604   0.209   6.159 -0.0873 -0.1381  0.1354
 1109YOPC   GL214782   5.286   0.414   6.160  0.0045 -0.0706 -0.1711
 1109YOPC   C1A14783   5.677   0.099   6.577 -0.1246  0.2781  0.1200
 1109YOPC   D2A14784   5.571   0.262   6.986 -0.0680  0.2005  0.2215
 1109YOPC   C3A14785   5.577   0.309   7.394  0.0322 -0.3647 -0.1360
 1109YOPC   C4A14786   5.532   0.239   7.871 -0.1625  0.0891  0.2677
 1109YOPC   C1B14787   5.193   0.564   6.587  0.2366  0.0030 -0.1942
 1109YOPC   C2B14788   5.074   0.468   6.929 -0.0112 -0.0889  0.0225
 1109YOPC   D3B14789   5.177   0.555   7.271 -0.0184 -0.6380 -0.0012
 1109YOPC   C4B14790   5.121   0.438   7.636 -0.1793 -0.2031  0.1959
 1110YOPC   NC314791   0.950  14.841   5.350  0.0818  0.4060 -0.1861
 1110YOPC   PO414792   1.186  15.218   5.508  0.2066  0.2392  0.1189
 1110YOPC   GL114793   1.024  15.124   6.000 -0.0720 -0.0160 -0.0196
 1110YOPC   GL214794   1.246  14.986   6.193  0.2035 -0.2168 -0.3337
 1110YOPC   C1A14795   0.928  15.287   6.374  0.2525 -0.2943  0.2102
 1110YOPC   D2A14796   0.759  15.460   6.721 -0.0011 -0.2313  0.3250
 1110YOPC   C3A14797   0.843  15.675   7.050  0.0666 -0.1691  0.0564
 1110YOPC   C4A14798   0.916  15.916   7.466 -0.1649 -0.2587  0.1864
 1110YOPC   C1B14799   1.255  14.910   6.560  0.1286  0.2159 -0.2919
 1110YOPC   C2B14800   0.954  14.792   6.870  0.1129  0.0214 -0.1792
 1110YOPC   D3B14801   0.933  14.405   7.126 -0.0579  0.1086 -0.0762
 1110YOPC   C4B14802   0.788  14.318   7.498 -0.0189  0.1865  0.1344
 1111YOPC   NC314803   4.971  13.916   6.105  0.0410 -0.0328 -0.0254
 1111YOPC   PO414804   5.275  14.269   6.087  0.1714 -0.0180  0.4904
 1111YOPC   GL114805   5.573  14.026   6.321  0.1744 -0.0885  0.1797
 1111YOPC   GL214806   5.413  13.650   6.308  0.0766  0.2430 -0.2081
 1111YOPC   C1A14807   5.585  13.813   6.751  0.1282 -0.0463  0.1539
 1111YOPC   D2A14808   5.508  13.617   7.077 -0.0623 -0.0173 -0.0636
 1111YOPC   C3A14809   5.739  13.733   7.481 -0.0125  0.2015 -0.0971
 1111YOPC   C4A14810   5.478  13.719   7.863  0.4579  0.0383  0.0872
 1111YOPC   C1B14811   5.357  13.357   6.686 -0.0698 -0.2733  0.1951
 1111YOPC   C2B14812   5.175  13.096   6.995 -0.1685 -0.1229 -0.0315
 1111YOPC   D3B14813   5.280  13.002   7.368  0.0258  0.3338 -0.0143
 1111YOPC   C4B14814   5.272  13.321   7.600  0.2655 -0.5511 -0.0089
 1112YOPC   NC314815  16.635  17.037   5.255 -0.2205 -0.1761  0.0760
 1112YOPC   PO414816  16.207  16.863   5.316  0.1657 -0.2715 -0.1892
 1112YOPC   GL114817  16.139  16.947   5.691  0.1258 -0.3477 -0.2643
 1112YOPC   GL214818  15.946  17.369   5.706 -0.0221 -0.0660 -0.0213
 1112YOPC   C1A14819  16.033  17.102   6.113 -0.2219 -0.0218 -0.2049
 1112YOPC   D2A14820  15.789  17.275   6.417  0.0528 -0.3384 -0.1881
 1112YOPC   C3A14821  15.992  17.251   6.780 -0.4357 -0.1115 -0.0011
 1112YOPC   C4A14822  16.032  17.177   7.138 -0.3663 -0.1950 -0.4604
 1112YOPC   C1B14823  15.676  17.513   5.973 -0.1743  0.0285  0.1233
 1112YOPC   C2B14824  15.702  17.749   6.343  0.2827 -0.2703 -0.1547
 1112YOPC   D3B14825  15.741  17.663   6.721 -0.0031  0.2587 -0.1139
 1112YOPC   C4B14826  15.473  17.565   7.077  0.0684  0.1075 -0.0355
 1113YOPC   NC314827  16.184   8.573   5.430  0.0525  0.0023 -0.1841
 1113YOPC   PO414828  16.386   8.944   5.525 -0.1006  0.4383  0.3174
 1113YOPC   GL114829  16.497   8.672   5.913  0.0383  0.4143  0.0367
 1113YOPC   GL214830  16.833   8.557   5.941  0.0634  0.0340  0.0315
 1113YOPC   C1A14831  16.399   8.805   6.321 -0.1811  0.1206 -0.0577
 1113YOPC   D2A14832  16.489   8.737   6.687 -0.0573  0.4490 -0.0904
 1113YOPC   C3A14833  16.222   8.989   7.055  0.0150 -0.0180  0.1765
 1113YOPC   C4A14834  15.992   9.235   7.234 -0.1366 -0.1065  0.1473
 1113YOPC   C1B14835  16.758   8.470   6.357 -0.1937 -0.0322 -0.0906
 1113YOPC   C2B14836  16.803   8.196   6.755 -0.1506  0.0197  0.1453
 1113YOPC   D3B14837  16.528   8.249   7.123 -0.0827 -0.3235 -0.2379
 1113YOPC   C4B14838  16.443   8.382   7.480 -0.1735 -0.1376 -0.0517
 1114YOPC   NC314839  15.173  17.147   5.182  0.3625 -0.3108 -0.1209
 1114YOPC   PO414840  15.334  16.960   5.494 -0.1946  0.1942  0.0947
 1114YOPC   GL114841  15.485  17.014   5.799 -0.0540  0.3575  0.1582
 1114YOPC   GL214842  15.758  16.735   5.957  0.0229  0.0603 -0.0945
 1114YOPC   C1A14843  15.419  17.021   6.227 -0.2273  0.0341 -0.3126
 1114YOPC   D2A14844  15.486  16.726   6.540 -0.0268 -0.0326  0.1469
 1114YOPC   C3A14845  15.155  16.606   7.007 -0.0797 -0.3401  0.0283
 1114YOPC   C4A14846  15.063  16.443   7.428  0.2538  0.2374  0.2318
 1114YOPC   C1B14847  15.544  16.404   6.093 -0.3393 -0.0633 -0.3618
 1114YOPC   C2B14848  15.387  15.956   6.230 -0.2308  0.1946 -0.0054
 1114YOPC   D3B14849  15.338  15.854   6.607 -0.2622 -0.0711 -0.0693
 1114YOPC   C4B14850  15.299  15.798   6.907 -0.2774 -0.2506 -0.1091
 1115YOPC   NC314851   3.847   0.461   5.439 -0.0667 -0.0119 -0.1684
 1115YOPC   PO414852   3.942   0.334   5.875 -0.0450  0.0794  0.1019
 1115YOPC   GL114853   4.015   0.210   6.247  0.1834  0.0405 -0.2794
 1115YOPC   GL214854   3.809   0.276   6.420 -0.0507 -0.3807  0.1456
 1115YOPC   C1A14855   4.298   0.149   6.606  0.3232  0.0045  0.0381
 1115YOPC   D2A14856   4.588   0.229   6.875 -0.2710 -0.1871 -0.2507
 1115YOPC   C3A14857   4.689   0.307   7.395 -0.0856 -0.0436  0.3281
 1115YOPC   C4A14858   4.626   0.182   7.778  0.2115  0.1203  0.0805
 1115YOPC   C1B14859   3.729   0.119   6.779  0.1062 -0.4778 -0.1145
 1115YOPC   C2B14860   3.994   0.013   7.099  0.3627 -0.0967 -0.0874
 1115YOPC   D3B14861   3.943  -0.234   7.389  0.0051 -0.1682 -0.1629
 1115YOPC   C4B14862   3.685  -0.108   7.750 -0.3226  0.2673  0.1221
 1116YOPC   NC314863   1.539  11.539   5.454 -0.2807 -0.0245  0.2204
 1116YOPC   PO414864   1.929  11.398   5.261  0.1935 -0.0552  0.4213
 1116YOPC   GL114865   1.956  11.443   5.766 -0.0396  0.0007  0.2418
 1116YOPC   GL214866   2.006  11.724   5.887 -0.2163  0.2805 -0.1930
 1116YOPC   C1A14867   2.105  11.288   6.205  0.1295 -0.4505  0.2914
 1116YOPC   D2A14868   2.421  11.367   6.397  0.0167 -0.0642  0.0887
 1116YOPC   C3A14869   2.664  11.085   6.606  0.0804  0.2099 -0.1543
 1116YOPC   C4A14870   2.714  10.762   6.982  0.1376  0.1763 -0.1211
 1116YOPC   C1B14871   2.094  11.856   6.306 -0.0231 -0.0797  0.0112
 1116YOPC   C2B14872   2.221  11.732   6.691  0.2076  0.0289  0.0654
 1116YOPC   D3B14873   2.212  11.335   6.830  0.1266  0.2054 -0.2324
 1116YOPC   C4B14874   1.928  10.993   7.044 -0.0111  0.0036  0.0085
 1117YOPC   NC314875   9.321  14.768   6.030  0.2223 -0.1502  0.1872
 1117YOPC   PO414876   9.094  15.218   6.105 -0.1017 -0.1847  0.0678
 1117YOPC   GL114877   9.323  15.059   6.460 -0.0963  0.0075  0.0847
 1117YOPC   GL214878   9.330  14.769   6.556  0.0164  0.0491 -0.0601
 1117YOPC   C1A14879   9.459  15.116   6.904  0.3548 -0.0617  0.0217
 1117YOPC   D2A14880   9.471  15.456   7.218 -0.1268 -0.5253 -0.1200
 1117YOPC   C3A14881   9.842  15.329   7.568  0.0971 -0.0320  0.3158
 1117YOPC   C4A14882  10.215  15.256   7.765  0.1007  0.1466  0.3714
 1117YOPC   C1B14883   9.256  14.564   6.931  0.0958 -0.1146 -0.3478
 1117YOPC   C2B14884   9.396  14.830   7.264 -0.0703 -0.0370 -0.0943
 1117YOPC   D3B14885   9.689  14.801   7.576  0.1339  0.1165  0.0229
 1117YOPC   C4B14886   9.779  14.933   7.936 -0.3915  0.1801 -0.5380
 1118YOPC   NC314887   8.603  10.431   5.382  0.3542 -0.0374  0.0677
 1118YOPC   PO414888   8.225  10.368   5.521 -0.2532  0.1785 -0.0949
 1118YOPC   GL114889   8.508  10.131   5.818  0.1105 -0.0676  0.0507
 1118YOPC   GL214890   8.829  10.212   5.892 -0.2074 -0.1181  0.2222
 1118YOPC   C1A14891   8.366   9.833   6.114 -0.1175  0.2225  0.1982
 1118YOPC   D2A14892   8.300   9.425   6.175  0.3811 -0.0987  0.1176
 1118YOPC   C3A14893   8.313   9.533   6.523  0.0466  0.0590  0.0861
 1118YOPC   C4A14894   8.543   9.818   6.830  0.0325  0.2322 -0.2100
 1118YOPC   C1B14895   9.258  10.133   5.824  0.1811 -0.1538  0.1551
 1118YOPC   C2B14896   9.464  10.188   6.087  0.1433  0.2684  0.0693
 1118YOPC   D3B14897   9.442   9.877   6.603  0.2170 -0.3299  0.1909
 1118YOPC   C4B14898   9.109   9.849   6.794  0.0913  0.0120  0.0418
 1119YOPC   NC314899  14.669  10.655   5.533 -0.0589 -0.2699  0.0751
 1119YOPC   PO414900  14.228  10.549   5.772 -0.0514 -0.0803 -0.1171
 1119YOPC   GL114901  13.920  10.424   6.082 -0.0990  0.4161 -0.1095
 1119YOPC   GL214902  14.146  10.232   6.233 -0.2291  0.2633  0.0513
 1119YOPC   C1A14903  13.837  10.380   6.497  0.2934 -0.0607  0.0068
 1119YOPC   D2A14904  13.914  10.270   6.949  0.3402 -0.0436  0.1000
 1119YOPC   C3A14905  13.931  10.532   7.263 -0.1455 -0.0758  0.1571
 1119YOPC   C4A14906  14.063  10.867   7.515  0.1324  0.2047 -0.0922
 1119YOPC   C1B14907  14.249  10.108   6.623  0.0837 -0.1531  0.0847
 1119YOPC   C2B14908  14.554  10.149   6.883  0.2823 -0.0902 -0.0026
 1119YOPC   D3B14909  14.366  10.298   7.245  0.0760  0.1952  0.3305
 1119YOPC   C4B14910  14.295  10.269   7.731 -0.3125 -0.1459 -0.1584
 1120YOPC   NC314911  15.335   0.101   5.366 -0.1700 -0.0513  0.0947
 1120YOPC   PO414912  15.213   0.574   5.469  0.3437  0.2401  0.3458
 1120YOPC   GL114913  15.204   0.522   5.989 -0.1104 -0.3924  0.1046
 1120YOPC   GL214914  14.916   0.383   6.177  0.0675  0.2674  0.1210
 1120YOPC   C1A14915  15.388   0.373   6.335 -0.1342  0.0648 -0.2347
 1120YOPC   D2A14916  15.814   0.305   6.460 -0.0857 -0.1588 -0.0455
 1120YOPC   C3A14917  15.963   0.456   6.841  0.0084 -0.1136  0.1351
 1120YOPC   C4A14918  15.862   0.488   7.231  0.0486 -0.2511  0.0283
 1120YOPC   C1B14919  14.966   0.426   6.660 -0.1384  0.1264 -0.0579
 1120YOPC   C2B14920  14.976   0.337   7.165  0.1390  0.0308  0.0452
 1120YOPC   D3B14921  14.770  -0.035   7.274  0.2570  0.1510 -0.1189
 1120YOPC   C4B14922  14.516  -0.179   7.611  0.0265 -0.0915 -0.0557
 1121YOPC   NC314923   6.871  17.328   6.002  0.1063  0.1816  0.0629
 1121YOPC   PO414924   7.017  17.010   6.169  0.0911  0.2479  0.0808
 1121YOPC   GL114925   6.954  17.076   6.595  0.0794 -0.0659  0.0742
 1121YOPC   GL214926   7.050  16.791   6.591 -0.0810 -0.1854  0.5118
 1121YOPC   C1A14927   6.905  17.182   6.971  0.0448  0.2660  0.2898
 1121YOPC   D2A14928   6.810  17.151   7.383 -0.0164  0.1030  0.0442
 1121YOPC   C3A14929   6.843  17.347   7.738 -0.0252 -0.1679 -0.2311
 1121YOPC   C4A14930   7.032  17.618   7.958 -0.2432  0.0003 -0.2948
 1121YOPC   C1B14931   6.906  16.677   6.997  0.1187 -0.0601 -0.1641
 1121YOPC   C2B14932   6.918  16.629   7.502  0.2014 -0.1420 -0.0759
 1121YOPC   D3B14933   6.717  16.671   7.836  0.1607 -0.0061 -0.2019
 1121YOPC   C4B14934   6.531  16.616   8.207 -0.0370  0.0719  0.0092
 1122YOPC   NC314935   7.354   0.922   5.212 -0.0953 -0.2135 -0.0901
 1122YOPC   PO414936   7.623   0.850   5.376 -0.0930  0.1668 -0.3665
 1122YOPC   GL114937   7.788   0.877   5.833  0.3948 -0.2644 -0.0577
 1122YOPC   GL214938   7.711   0.511   5.863  0.1095  0.3573 -0.5465
 1122YOPC   C1A14939   7.983   0.664   6.236  0.0838 -0.1929  0.0768
 1122YOPC   D2A14940   8.152   0.691   6.686 -0.0015  0.0859 -0.0179
 1122YOPC   C3A14941   7.833   0.687   7.089 -0.0488 -0.2093 -0.1337
 1122YOPC   C4A14942   7.476   0.486   7.214 -0.2688  0.3054  0.1151
 1122YOPC   C1B14943   7.425   0.609   6.198  0.2936  0.0860  0.0349
 1122YOPC   C2B14944   6.998   0.407   6.327  0.0044 -0.0887  0.0625
 1122YOPC   D3B14945   6.897   0.082   6.465 -0.0968 -0.2545 -0.0593
 1122YOPC   C4B14946   6.869  -0.044   6.858  0.1434  0.0685  0.0928
 1123YOPC   NC314947   6.368   0.702   5.541  0.1645  0.0031  0.0678
 1123YOPC   PO414948   5.961   0.951   5.841 -0.2416 -0.1691  0.0972
 1123YOPC   GL114949   6.038   1.122   6.284 -0.0313 -0.1170 -0.0170
 1123YOPC   GL214950   6.381   0.972   6.265 -0.2878 -0.0363 -0.0519
 1123YOPC   C1A14951   6.063   1.279   6.831  0.2355  0.3640 -0.0924
 1123YOPC   D2A14952   6.068   1.250   7.256 -0.0245 -0.2861 -0.2714
 1123YOPC   C3A14953   5.990   1.110   7.617 -0.0997 -0.1331  0.1310
 1123YOPC   C4A14954   5.966   0.991   8.054  0.3057  0.0469  0.0031
 1123YOPC   C1B14955   6.498   1.036   6.688  0.1683  0.1688  0.0401
 1123YOPC   C2B14956   6.506   1.099   7.065 -0.0240 -0.1997  0.2720
 1123YOPC   D3B14957   6.479   0.876   7.366 -0.0811  0.1804 -0.1978
 1123YOPC   C4B14958   6.662   0.701   7.666 -0.1028  0.1779  0.0276
 1124YOPC   NC314959  13.105   8.876   5.692  0.0517  0.2370 -0.0906
 1124YOPC   PO414960  13.223   9.142   5.401  0.1996 -0.1481  0.2845
 1124YOPC   GL114961  13.085   9.376   5.835  0.1133  0.0893  0.1010
 1124YOPC   GL214962  13.047   9.691   5.933  0.0355 -0.3286  0.5144
 1124YOPC   C1A14963  13.169   9.263   6.285  0.1347 -0.0058  0.1427
 1124YOPC   D2A14964  13.106   9.387   6.653 -0.3084 -0.0748 -0.0878
 1124YOPC   C3A14965  13.134   9.740   6.626  0.0252  0.1393 -0.0690
 1124YOPC   C4A14966  13.319   9.732   6.304  0.5489 -0.1970  0.1690
 1124YOPC   C1B14967  12.730   9.579   6.234 -0.0381  0.1270  0.2824
 1124YOPC   C2B14968  12.546   9.233   6.481 -0.3610  0.4170 -0.0666
 1124YOPC   D3B14969  12.507   9.312   6.961 -0.0014  0.1177 -0.3989
 1124YOPC   C4B14970  12.519   9.324   7.381 -0.4709  0.0934  0.0059
 1125YOPC   NC314971  17.167  12.473   5.183  0.0867 -0.0484 -0.0722
 1125YOPC   PO414972  17.097  12.747   5.577  0.0316 -0.5287  0.0412
 1125YOPC   GL114973  16.959  12.661   5.974 -0.0285 -0.2324  0.0168
 1125YOPC   GL214974  16.511  12.695   6.092  0.0258  0.1105  0.1842
 1125YOPC   C1A14975  17.242  12.649   6.332  0.1024  0.1164 -0.0707
 1125YOPC   D2A14976  17.440  12.854   6.620  0.2596  0.0862  0.0167
 1125YOPC   C3A14977  17.663  12.629   6.892 -0.0424 -0.0247 -0.1442
 1125YOPC   C4A14978  17.958  12.425   7.234 -0.4347 -0.2147  0.1085
 1125YOPC   C1B14979  16.268  12.480   6.387  0.1583 -0.2648  0.1939
 1125YOPC   C2B14980  15.973  12.408   6.670  0.1447  0.1255 -0.0128
 1125YOPC   D3B14981  16.049  12.346   7.102  0.1408  0.0790 -0.2038
 1125YOPC   C4B14982  16.033  12.008   7.375  0.1013  0.0728  0.2281
 1126YOPC   NC314983   8.246  18.392   6.078 -0.0172 -0.3673  0.0416
 1126YOPC   PO414984   8.696  18.287   6.146  0.0957  0.3762  0.1567
 1126YOPC   GL114985   8.487  18.352   6.504  0.1322  0.0377 -0.1226
 1126YOPC   GL214986   8.353  18.056   6.611  0.0130 -0.0076 -0.3386
 1126YOPC   C1A14987   8.398  18.711   6.782 -0.1395 -0.0358 -0.1828
 1126YOPC   D2A14988   8.574  19.139   6.888  0.1187  0.0824  0.0699
 1126YOPC   C3A14989   8.473  19.244   7.276  0.1335  0.2161  0.1531
 1126YOPC   C4A14990   8.323  19.020   7.662  0.1244  0.3373 -0.1550
 1126YOPC   C1B14991   8.382  18.255   6.966  0.0463  0.1277  0.0128
 1126YOPC   C2B14992   8.458  18.163   7.341  0.1308 -0.3050 -0.0739
 1126YOPC   D3B14993   8.271  18.405   7.587  0.3276 -0.0647  0.1488
 1126YOPC   C4B14994   8.057  18.646   7.944 -0.2064  0.0872  0.0859
 1127YOPC   NC314995   5.805   9.032   4.996 -0.1547 -0.2127 -0.0666
 1127YOPC   PO414996   5.988   8.873   5.402 -0.1568  0.0716  0.0155
 1127YOPC   GL114997   5.776   8.798   5.851 -0.0269  0.0227 -0.2332
 1127YOPC   GL214998   5.865   8.534   6.008 -0.2317  0.1054  0.1530
 1127YOPC   C1A14999   5.811   9.038   6.259  0.1531 -0.1150  0.1256
 1127YOPC   D2A15000   6.103   9.194   6.545  0.1409 -0.3981  0.2684
 1127YOPC   C3A15001   6.011   9.309   6.962 -0.0495 -0.0078 -0.0033
 1127YOPC   C4A15002   6.099   9.442   7.360 -0.0622 -0.4249  0.4341
 1127YOPC   C1B15003   5.888   8.460   6.441 -0.3050  0.1584 -0.0320
 1127YOPC   C2B15004   5.705   8.673   6.799  0.0366 -0.1483  0.0943
 1127YOPC   D3B15005   5.820   8.925   7.224 -0.0190  0.1252 -0.0058
 1127YOPC   C4B15006   5.889   9.048   7.645 -0.2085 -0.2496  0.0119
 1128YOPC   NC315007   5.925  11.620   5.108  0.2731  0.3409 -0.5339
 1128YOPC   PO415008   5.890  11.844   5.454 -0.1361 -0.0194  0.0080
 1128YOPC   GL115009   5.672  11.869   5.765 -0.1375  0.3064 -0.1103
 1128YOPC   GL215010   5.635  11.626   6.000  0.1903  0.0280  0.1020
 1128YOPC   C1A15011   5.706  12.055   6.235 -0.3228  0.0714 -0.1281
 1128YOPC   D2A15012   5.765  12.009   6.697 -0.0503 -0.2588 -0.2496
 1128YOPC   C3A15013   6.041  11.665   6.858  0.1341 -0.0822  0.1563
 1128YOPC   C4A15014   6.190  11.378   7.057 -0.3815 -0.1995 -0.3347
 1128YOPC   C1B15015   5.741  11.560   6.374 -0.1086 -0.2379  0.0734
 1128YOPC   C2B15016   5.921  11.210   6.498  0.2344  0.2423  0.1151
 1128YOPC   D3B15017   5.657  11.188   6.810 -0.4244  0.1417 -0.1184
 1128YOPC   C4B15018   5.575  11.163   7.241 -0.1222  0.0733  0.0602
 1129YOPC   NC315019   6.585  11.198   5.345  0.1794  0.6229 -0.1831
 1129YOPC   PO415020   7.007  11.216   5.520 -0.0608 -0.3278  0.2713
 1129YOPC   GL115021   7.218  11.239   5.964 -0.0071 -0.1484  0.3398
 1129YOPC   GL215022   7.531  11.091   5.975  0.1056 -0.1890  0.1515
 1129YOPC   C1A15023   7.196  11.037   6.344 -0.0395  0.3837  0.0600
 1129YOPC   D2A15024   7.272  10.681   6.560 -0.1792  0.0962 -0.0628
 1129YOPC   C3A15025   7.427  10.750   6.926  0.0376 -0.0053  0.0270
 1129YOPC   C4A15026   7.742  10.559   7.022  0.1590 -0.0054  0.0844
 1129YOPC   C1B15027   7.705  11.047   6.374 -0.1588  0.1836  0.0820
 1129YOPC   C2B15028   7.883  10.975   6.742  0.2354  0.1248 -0.0120
 1129YOPC   D3B15029   7.857  11.090   7.129  0.2379  0.2019 -0.0683
 1129YOPC   C4B15030   8.111  11.222   7.530  0.2275 -0.0010 -0.0413
 1130YOPC   NC315031  18.006  16.011   5.656 -0.0917  0.1370 -0.2029
 1130YOPC   PO415032  18.230  16.467   5.556  0.2916 -0.0113  0.0263
 1130YOPC   GL115033  18.055  16.373   5.992 -0.0405  0.1265  0.1673
 1130YOPC   GL215034  18.201  16.106   6.226 -0.3516  0.2524  0.0251
 1130YOPC   C1A15035  17.657  16.180   6.259 -0.2818 -0.1235  0.0513
 1130YOPC   D2A15036  17.603  15.928   6.569  0.0003  0.0999 -0.0033
 1130YOPC   C3A15037  17.225  15.888   6.825 -0.2940 -0.0878  0.0973
 1130YOPC   C4A15038  17.080  15.752   7.255  0.2803 -0.0772 -0.2503
 1130YOPC   C1B15039  18.415  16.272   6.569 -0.0794  0.0365  0.1481
 1130YOPC   C2B15040  18.307  16.412   7.029 -0.1978  0.1010 -0.2599
 1130YOPC   D3B15041  18.304  16.615   7.507 -0.0988  0.2937 -0.4000
 1130YOPC   C4B15042  17.975  16.757   7.879 -0.0080  0.2726  0.1127
 1131YOPC   NC315043   7.586  18.339   5.386  0.0126  0.1574  0.0445
 1131YOPC   PO415044   7.929  18.432   5.709 -0.0900 -0.2374 -0.0655
 1131YOPC   GL115045   7.779  18.609   6.198  0.0265  0.0484  0.1612
 1131YOPC   GL215046   7.953  18.668   6.432 -0.1073  0.3954 -0.0275
 1131YOPC   C1A15047   7.368  18.526   6.518  0.1181 -0.0516  0.3399
 1131YOPC   D2A15048   7.430  18.346   6.838  0.0005 -0.0474  0.3999
 1131YOPC   C3A15049   7.236  18.392   7.195  0.0085 -0.2647 -0.2623
 1131YOPC   C4A15050   7.137  18.138   7.542  0.1059 -0.0112 -0.0640
 1131YOPC   C1B15051   7.834  18.582   6.916  0.1129  0.1162  0.2064
 1131YOPC   C2B15052   7.783  18.301   7.246  0.2571  0.1582 -0.1588
 1131YOPC   D3B15053   7.575  18.344   7.674 -0.2237 -0.0340  0.1297
 1131YOPC   C4B15054   7.395  18.131   7.966 -0.1916  0.0415 -0.1756
 1132YOPC   NC315055   4.305   8.536   5.802 -0.0106 -0.2302  0.0344
 1132YOPC   PO415056   3.850   8.522   5.859  0.0846  0.1439 -0.2707
 1132YOPC   GL115057   3.967   8.750   6.130 -0.1831 -0.1841 -0.1367
 1132YOPC   GL215058   3.749   9.023   6.094 -0.1919 -0.1288  0.1265
 1132YOPC   C1A15059   4.216   8.709   6.597 -0.1955 -0.0090  0.1343
 1132YOPC   D2A15060   4.425   8.663   6.977  0.0693 -0.0330 -0.0710
 1132YOPC   C3A15061   4.425   8.731   7.372 -0.0164 -0.2680  0.4780
 1132YOPC   C4A15062   4.300   8.956   7.703  0.0101  0.0348  0.2765
 1132YOPC   C1B15063   3.912   9.108   6.524 -0.1635  0.1135  0.2249
 1132YOPC   C2B15064   4.116   9.108   6.941 -0.1165  0.1559  0.0521
 1132YOPC   D3B15065   3.999   9.101   7.302 -0.0709 -0.0133 -0.0633
 1132YOPC   C4B15066   3.764   8.849   7.636 -0.1261  0.3668 -0.0150
 1133YOPC   NC315067   3.438   3.890   6.065 -0.1565 -0.0760  0.0497
 1133YOPC   PO415068   3.708   3.647   6.317  0.2923  0.1348 -0.2949
 1133YOPC   GL115069   3.482   3.465   6.711  0.0262 -0.2874  0.0890
 1133YOPC   GL215070   3.601   3.164   6.677  0.0784  0.2787 -0.0772
 1133YOPC   C1A15071   3.584   3.514   7.161 -0.1855  0.0584  0.0517
 1133YOPC   D2A15072   3.401   3.526   7.551  0.1041  0.1011  0.0667
 1133YOPC   C3A15073   3.308   3.876   7.753 -0.0087 -0.1771  0.1087
 1133YOPC   C4A15074   3.231   4.280   7.628 -0.0075 -0.2372 -0.0169
 1133YOPC   C1B15075   3.677   3.025   7.081  0.0006 -0.0395  0.0171
 1133YOPC   C2B15076   3.595   3.017   7.489  0.1724 -0.1406 -0.1560
 1133YOPC   D3B15077   3.738   2.722   7.759  0.0707 -0.0784  0.1085
 1133YOPC   C4B15078   4.120   2.888   7.940  0.0479 -0.0158  0.2501
 1134YOPC   NC315079  17.693   0.903   6.001  0.1887 -0.1707 -0.1465
 1134YOPC   PO415080  17.406   0.567   5.935 -0.2189 -0.1727 -0.2897
 1134YOPC   GL115081  17.249   0.618   6.413  0.1421 -0.0158 -0.1483
 1134YOPC   GL215082  17.471   0.892   6.411  0.2194 -0.3236  0.1347
 1134YOPC   C1A15083  17.057   0.535   6.792 -0.5655 -0.0855 -0.0276
 1134YOPC   D2A15084  16.683   0.461   7.009  0.2032 -0.0361  0.1219
 1134YOPC   C3A15085  16.432   0.694   7.099 -0.1348 -0.1429  0.1226
 1134YOPC   C4A15086  16.121   0.911   7.101 -0.0569  0.0778 -0.1245
 1134YOPC   C1B15087  17.254   1.048   6.780  0.1596 -0.1239  0.2974
 1134YOPC   C2B15088  17.195   1.258   7.199  0.4860 -0.1468  0.0298
 1134YOPC   D3B15089  16.927   1.203   7.635  0.0653  0.3129 -0.1944
 1134YOPC   C4B15090  16.963   1.219   8.066  0.0141  0.2013 -0.1089
 1135YOPC   NC315091   1.069   4.826   5.230 -0.2350  0.2626  0.2822
 1135YOPC   PO415092   1.172   5.156   5.650  0.1326  0.0001  0.0920
 1135YOPC   GL115093   1.113   5.152   6.081  0.4209 -0.0511 -0.2734
 1135YOPC   GL215094   0.799   5.014   6.045 -0.0830 -0.0771 -0.0274
 1135YOPC   C1A15095   1.057   5.090   6.453 -0.0767 -0.3546 -0.0124
 1135YOPC   D2A15096   1.121   5.247   6.975  0.1024 -0.2303 -0.0457
 1135YOPC   C3A15097   0.996   4.975   7.168 -0.1521  0.1099  0.0005
 1135YOPC   C4A15098   1.109   4.693   7.550 -0.2766 -0.0679 -0.1755
 1135YOPC   C1B15099   0.532   5.336   6.218 -0.2824 -0.0710 -0.0464
 1135YOPC   C2B15100   0.108   5.396   6.348 -0.0617 -0.0444  0.1598
 1135YOPC   D3B15101  -0.019   5.607   6.795  0.1366 -0.2906 -0.0798
 1135YOPC   C4B15102   0.089   5.890   7.101  0.0398 -0.3489 -0.3893
 1136YOPC   NC315103   4.187  14.004   5.867 -0.3597 -0.0317 -0.0136
 1136YOPC   PO415104   4.515  13.666   5.931 -0.1439 -0.1369 -0.0580
 1136YOPC   GL115105   4.424  13.310   6.194 -0.2925  0.1209  0.0939
 1136YOPC   GL215106   4.651  13.087   6.307  0.2415 -0.2625  0.0650
 1136YOPC   C1A15107   4.345  13.413   6.559  0.2734 -0.2412 -0.0123
 1136YOPC   D2A15108   4.459  13.625   6.988  0.0577  0.0355 -0.1640
 1136YOPC   C3A15109   4.308  13.984   7.047  0.1080  0.0026  0.1424
 1136YOPC   C4A15110   3.914  14.067   7.253 -0.1436 -0.0523  0.0366
 1136YOPC   C1B15111   4.386  12.791   6.568  0.0541 -0.1703  0.0272
 1136YOPC   C2B15112   4.356  12.562   6.993  0.1002 -0.3159 -0.0539
 1136YOPC   D3B15113   4.215  12.851   7.328 -0.4109 -0.0943  0.1906
 1136YOPC   C4B15114   3.856  13.081   7.490 -0.3251 -0.0196 -0.1404
 1137YOPC   NC315115  11.036  17.628   6.292  0.3428  0.3321 -0.3229
 1137YOPC   PO415116  11.335  17.238   6.240  0.0601 -0.1597 -0.1826
 1137YOPC   GL115117  11.514  17.321   6.576 -0.1863  0.0584 -0.4247
 1137YOPC   GL215118  11.357  17.521   6.780  0.2699  0.0846  0.0495
 1137YOPC   C1A15119  11.450  17.134   6.998 -0.3119  0.0513  0.0481
 1137YOPC   D2A15120  11.480  17.206   7.495  0.1241 -0.2732 -0.1562
 1137YOPC   C3A15121  11.825  17.134   7.724  0.0150  0.2144 -0.0760
 1137YOPC   C4A15122  12.025  17.259   8.077 -0.0164 -0.1224 -0.0196
 1137YOPC   C1B15123  10.997  17.343   7.060 -0.1398  0.1209 -0.2980
 1137YOPC   C2B15124  11.037  17.518   7.503  0.0680  0.1482  0.0012
 1137YOPC   D3B15125  11.235  17.337   7.892  0.1352 -0.2937  0.1664
 1137YOPC   C4B15126  11.536  17.162   8.165  0.1679 -0.2061  0.0440
 1138YOPC   NC315127  10.347   4.357   5.671 -0.0902 -0.2812 -0.0108
 1138YOPC   PO415128  10.744   4.142   5.911 -0.0233 -0.0440 -0.0591
 1138YOPC   GL115129  10.965   4.179   6.299  0.2083 -0.2099  0.1695
 1138YOPC   GL215130  11.368   4.240   6.155 -0.0149 -0.0824  0.1870
 1138YOPC   C1A15131  11.006   4.280   6.843  0.3766  0.3358  0.0552
 1138YOPC   D2A15132  10.900   4.349   7.315 -0.2144 -0.0703  0.0359
 1138YOPC   C3A15133  10.619   4.753   7.481  0.0346  0.0212 -0.0947
 1138YOPC   C4A15134  10.849   5.071   7.634 -0.0855 -0.0978 -0.1309
 1138YOPC   C1B15135  11.397   4.455   6.470 -0.0769 -0.1115 -0.1302
 1138YOPC   C2B15136  11.476   4.656   6.827 -0.3055  0.0730  0.1850
 1138YOPC   D3B15137  11.405   4.424   7.135 -0.0167  0.0981  0.0133
 1138YOPC   C4B15138  11.237   4.589   7.536 -0.0815 -0.2841  0.0389
 1139YOPC   NC315139  13.565   4.319   5.118  0.4265 -0.0678 -0.0384
 1139YOPC   PO415140  13.930   4.541   5.024 -0.3746 -0.1903  0.0133
 1139YOPC   GL115141  13.940   4.518   5.493  0.1068 -0.0416  0.3543
 1139YOPC   GL215142  13.731   4.772   5.711 -0.0701 -0.0641  0.2422
 1139YOPC   C1A15143  14.081   4.576   5.935  0.0591 -0.0284  0.0035
 1139YOPC   D2A15144  14.292   4.791   6.231 -0.1372 -0.2029 -0.1938
 1139YOPC   C3A15145  14.139   4.574   6.593  0.0848 -0.0659  0.0522
 1139YOPC   C4A15146  13.976   4.598   6.961 -0.0294  0.1988 -0.1973
 1139YOPC   C1B15147  13.331   4.493   5.783 -0.1171 -0.0913  0.0044
 1139YOPC   C2B15148  13.163   4.111   5.902 -0.1660  0.0123  0.3257
 1139YOPC   D3B15149  13.035   4.215   6.271 -0.1349  0.1977 -0.2908
 1139YOPC   C4B15150  13.176   4.248   6.582  0.0771  0.1747 -0.2434
 1140YOPC   NC315151   9.513   3.232   5.791  0.0416  0.1089 -0.2161
 1140YOPC   PO415152   9.188   3.454   6.013  0.2687  0.1326 -0.1420
 1140YOPC   GL115153   9.412   3.402   6.292 -0.0794 -0.0791  0.1778
 1140YOPC   GL215154   9.188   3.617   6.512 -0.1680  0.2285  0.2372
 1140YOPC   C1A15155   9.328   3.144   6.617  0.0110 -0.0770  0.3597
 1140YOPC   D2A15156   9.071   3.058   6.968 -0.0909  0.1100  0.0268
 1140YOPC   C3A15157   9.033   3.234   7.305  0.2905 -0.0460  0.1240
 1140YOPC   C4A15158   8.913   3.321   7.747 -0.1443 -0.1358 -0.0853
 1140YOPC   C1B15159   8.961   3.621   6.967 -0.2425 -0.1192 -0.4174
 1140YOPC   C2B15160   8.794   3.649   7.374  0.0172 -0.0677 -0.3104
 1140YOPC   D3B15161   8.416   3.844   7.388 -0.1170 -0.0103 -0.3475
 1140YOPC   C4B15162   7.951   4.033   7.468  0.0903  0.1044 -0.1874
 1141YOPC   NC315163  15.443   9.794   6.004  0.2904  0.0366 -0.0441
 1141YOPC   PO415164  15.583  10.248   6.078 -0.1407  0.1921 -0.1664
 1141YOPC   GL115165  15.937  10.511   6.055  0.0508  0.2221 -0.1198
 1141YOPC   GL215166  15.800  10.669   6.323  0.2451  0.0270 -0.1163
 1141YOPC   C1A15167  16.351  10.564   6.321 -0.0555  0.4653 -0.3980
 1141YOPC   D2A15168  16.719  10.697   6.658  0.2025  0.0095 -0.1591
 1141YOPC   C3A15169  16.685  10.528   7.009  0.0871  0.0547 -0.0733
 1141YOPC   C4A15170  16.793  10.922   7.173  0.0251 -0.0175 -0.1155
 1141YOPC   C1B15171  15.575  10.464   6.688 -0.3799 -0.0888  0.1559
 1141YOPC   C2B15172  15.367  10.329   7.043  0.0698 -0.1690  0.0667
 1141YOPC   D3B15173  15.237  10.321   7.476  0.2563  0.1142  0.2183
 1141YOPC   C4B15174  15.488  10.461   7.805  0.0150  0.0710 -0.2306
 1142YOPC   NC315175  16.276   7.227   5.533 -0.0592 -0.2440  0.2833
 1142YOPC   PO415176  15.975   6.826   5.619 -0.1476  0.1665 -0.1670
 1142YOPC   GL115177  16.281   6.909   5.921 -0.0232  0.1685 -0.2946
 1142YOPC   GL215178  16.505   7.191   6.034  0.0706 -0.1238 -0.1199
 1142YOPC   C1A15179  16.358   6.731   6.322 -0.1435  0.0204 -0.3654
 1142YOPC   D2A15180  16.370   6.808   6.765 -0.0956 -0.0567  0.0256
 1142YOPC   C3A15181  16.407   6.544   7.025 -0.3386  0.0642  0.0559
 1142YOPC   C4A15182  16.393   6.275   7.391 -0.0426 -0.4125 -0.2027
 1142YOPC   C1B15183  16.065   7.181   6.326 -0.2348  0.0294  0.1740
 1142YOPC   C2B15184  15.805   6.902   6.558  0.2688 -0.1858 -0.1291
 1142YOPC   D3B15185  15.900   6.887   7.024 -0.3267 -0.1704  0.3228
 1142YOPC   C4B15186  15.826   6.910   7.436 -0.1053 -0.2052  0.1630
 1143YOPC   NC315187   2.081   7.094   5.859  0.3375 -0.1875 -0.1979
 1143YOPC   PO415188   1.731   7.198   5.627 -0.0630  0.4335 -0.1156
 1143YOPC   GL115189   1.607   7.212   6.060  0.0210 -0.1704 -0.1835
 1143YOPC   GL215190   1.174   7.055   6.151 -0.1743 -0.0743 -0.0986
 1143YOPC   C1A15191   1.573   6.911   6.405  0.0412 -0.3494 -0.0587
 1143YOPC   D2A15192   1.413   6.621   6.776  0.1756  0.0579 -0.0181
 1143YOPC   C3A15193   1.200   6.670   7.193  0.1539 -0.1956  0.2551
 1143YOPC   C4A15194   1.171   6.789   7.584 -0.0695 -0.2582 -0.1272
 1143YOPC   C1B15195   1.071   6.836   6.399  0.2981 -0.0623  0.0666
 1143YOPC   C2B15196   1.235   6.408   6.370  0.1668 -0.2448  0.0369
 1143YOPC   D3B15197   1.248   6.159   6.701  0.2099  0.0488  0.0307
 1143YOPC   C4B15198   0.981   6.134   7.152  0.1511  0.1518  0.2727
 1144ERGO   ROH15199  17.679  10.234   5.767  0.1515  0.2439 -0.0575
 1144ERGO    R115200  17.641  10.204   6.046  0.0026  0.2629 -0.0760
 1144ERGO    R215201  17.847  10.229   6.228 -0.0507  0.0414  0.0094
 1144ERGO    R315202  17.682  10.412   6.343  0.0853  0.2014 -0.0422
 1144ERGO    R415203  17.839  10.303   6.565 -0.1374 -0.0214  0.0222
 1144ERGO    R515204  17.622  10.313   6.553 -0.1287  0.2174 -0.0890
 1144ERGO    C115205  17.679  10.517   6.870 -0.0605  0.0925 -0.0187
 1144ERGO    C215206  17.675  10.450   7.184  0.4696 -0.1050 -0.0737
 1145ERGO   ROH15207  16.109  13.014   6.381 -0.0887  0.3257 -0.1378
 1145ERGO    R115208  16.068  12.912   6.641  0.0700  0.0678 -0.2091
 1145ERGO    R215209  16.269  12.902   6.830  0.0686  0.3495 -0.1819
 1145ERGO    R315210  16.089  13.039   6.982 -0.2437 -0.1024 -0.1233
 1145ERGO    R415211  16.308  12.972   7.166  0.0336  0.5237 -0.2141
 1145ERGO    R515212  16.096  12.929   7.195  0.1536 -0.0504 -0.1050
 1145ERGO    C115213  16.162  13.143   7.504 -0.2800  0.2007 -0.1778
 1145ERGO    C215214  16.182  13.196   7.797  0.0758 -0.1262 -0.3897
 1146ERGO   ROH15215   3.751   1.145   6.642 -0.2919  0.1267  0.1570
 1146ERGO    R115216   3.747   1.167   6.925  0.0026  0.0457  0.1723
 1146ERGO    R215217   3.550   1.050   7.080  0.0070  0.2268  0.3255
 1146ERGO    R315218   3.762   0.938   7.207  0.0034 -0.0643  0.0830
 1146ERGO    R415219   3.542   0.914   7.398  0.2077  0.3576  0.3865
 1146ERGO    R515220   3.737   1.003   7.436  0.4068  0.0648  0.0978
 1146ERGO    C115221   3.737   0.730   7.702  0.3213  0.1605  0.1944
 1146ERGO    C215222   3.583   0.377   7.802  0.0267 -0.0606  0.0302
 1147ERGO   ROH15223   9.475   9.227   6.235 -0.0946 -0.1403 -0.1097
 1147ERGO    R115224   9.424   9.382   6.467  0.0034 -0.0303 -0.1618
 1147ERGO    R215225   9.301   9.278   6.691  0.0497  0.0931 -0.0867
 1147ERGO    R315226   9.522   9.373   6.817  0.1008  0.1067 -0.1825
 1147ERGO    R415227   9.338   9.299   7.034  0.2658 -0.1114 -0.0941
 1147ERGO    R515228   9.435   9.493   7.006  0.1696 -0.0449 -0.0443
 1147ERGO    C115229   9.567   9.401   7.352  0.4396 -0.2179 -0.1884
 1147ERGO    C215230   9.760   9.347   7.724 -0.0156 -0.0527  0.0418
 1148ERGO   ROH15231   2.164  17.828   6.375 -0.0412 -0.0876 -0.1130
 1148ERGO    R115232   2.412  17.770   6.499 -0.1132 -0.0856  0.0321
 1148ERGO    R215233   2.645  17.905   6.437 -0.0538 -0.1737  0.0737
 1148ERGO    R315234   2.652  17.949   6.705 -0.1651 -0.0421  0.0567
 1148ERGO    R415235   2.932  17.961   6.621 -0.1358  0.0272  0.1441
 1148ERGO    R515236   2.850  17.837   6.779 -0.1430  0.0681  0.1774
 1148ERGO    C115237   3.106  18.036   6.980 -0.2881  0.2679  0.1690
 1148ERGO    C215238   3.040  18.241   7.235  0.1070  0.1875 -0.0148
 1149ERGO   ROH15239  10.338  10.087   6.247  0.0359  0.0350  0.1435
 1149ERGO    R115240  10.356  10.110   6.528 -0.0951 -0.1746  0.1723
 1149ERGO    R215241  10.317  10.348   6.661  0.2371 -0.1764  0.2978
 1149ERGO    R315242  10.135  10.203   6.801 -0.1085  0.0409  0.0873
 1149ERGO    R415243  10.209  10.422   6.981  0.0238 -0.1217  0.2146
 1149ERGO    R515244  10.215  10.209   7.027 -0.3231 -0.1391  0.1663
 1149ERGO    C115245   9.976  10.328   7.299 -0.4248  0.1142 -0.0313
 1149ERGO    C215246   9.673  10.446   7.497 -0.3137  0.3226  0.2768
 1150ERGO   ROH15247  17.482  16.875   6.127 -0.0018 -0.0096  0.0540
 1150ERGO    R115248  17.475  16.985   6.388  0.1840  0.0257  0.0465
 1150ERGO    R215249  17.309  16.887   6.587  0.1080  0.2373  0.0954
 1150ERGO    R315250  17.542  16.868   6.726  0.1208 -0.0235  0.0408
 1150ERGO    R415251  17.350  16.983   6.916  0.3746  0.4930 -0.0081
 1150ERGO    R515252  17.545  17.064   6.863  0.5013  0.1084 -0.1495
 1150ERGO    C115253  17.592  17.020   7.239  0.5419  0.3969 -0.1197
 1150ERGO    C215254  17.600  16.815   7.521 -0.1971 -0.1558  0.0179
 1151ERGO   ROH15255  15.143  14.430   6.070  0.0467 -0.0468 -0.0639
 1151ERGO    R115256  14.970  14.520   6.275  0.2528  0.2065  0.0009
 1151ERGO    R215257  14.829  14.347   6.438 -0.0599  0.4113 -0.0588
 1151ERGO    R315258  14.950  14.487   6.637  0.2435  0.0934 -0.0071
 1151ERGO    R415259  14.710  14.373   6.762 -0.0815  0.6252 -0.0808
 1151ERGO    R515260  14.769  14.583   6.761  0.4256  0.5069 -0.0306
 1151ERGO    C115261  14.755  14.520   7.137  0.1908  0.4515 -0.0452
 1151ERGO    C215262  14.762  14.375   7.429 -0.0077 -0.1273 -0.2740
 1152ERGO   ROH15263   9.003  18.378   6.608  0.3426 -0.0596  0.1105
 1152ERGO    R115264   9.014  18.243   6.857  0.1738 -0.0445  0.1281
 1152ERGO    R215265   9.140  18.349   7.079  0.1247 -0.0816  0.1771
 1152ERGO    R315266   8.899  18.305   7.197  0.0519  0.0358  0.0729
 1152ERGO    R415267   9.094  18.283   7.415 -0.0419 -0.1619  0.1384
 1152ERGO    R515268   8.943  18.135   7.360 -0.1182 -0.0463  0.0343
 1152ERGO    C115269   8.841  18.203   7.721 -0.2073 -0.0986  0.0179
 1152ERGO    C215270   8.584  18.354   8.037 -0.0869  0.0094 -0.0217
 1153ERGO   ROH15271  10.021   8.054   6.419  0.1034 -0.0947 -0.0180
 1153ERGO    R115272  10.091   8.047   6.693  0.3696  0.3187 -0.0673
 1153ERGO    R215273  10.088   7.814   6.842 -0.0390  0.6211  0.4194
 1153ERGO    R315274  10.344   7.884   6.897  0.2042  0.1380  0.0016
 1153ERGO    R415275  10.290   7.658   7.075 -0.0361  0.3651  0.2513
 1153ERGO    R515276  10.365   7.854   7.134  0.4633  0.2740  0.0075
 1153ERGO    C115277  10.648   7.634   7.263  0.1938 -0.2375 -0.2387
 1153ERGO    C215278  10.902   7.682   7.531 -0.0045  0.1804  0.0062
 1154ERGO   ROH15279  15.760   0.930   5.841  0.2457 -0.0789  0.0606
 1154ERGO    R115280  15.778   0.835   6.107 -0.0597 -0.0846  0.0823
 1154ERGO    R215281  15.914   0.972   6.306  0.1357 -0.3264  0.1180
 1154ERGO    R315282  15.677   0.950   6.437  0.0271  0.1667  0.0238
 1154ERGO    R415283  15.879   0.943   6.648 -0.0515 -0.3415  0.0995
 1154ERGO    R515284  15.721   0.797   6.615 -0.3751  0.0113  0.0033
 1154ERGO    C115285  15.637   0.907   6.971 -0.2624  0.1125  0.0003
 1154ERGO    C215286  15.599   1.043   7.284 -0.1438  0.0898 -0.1486
 1155ERGO   ROH15287  16.853   9.607   6.161 -0.0429  0.1514 -0.0793
 1155ERGO    R115288  16.817   9.595   6.442  0.0122  0.0428 -0.0751
 1155ERGO    R215289  17.015   9.669   6.621  0.0257  0.0444 -0.0815
 1155ERGO    R315290  16.820   9.832   6.719 -0.0094 -0.0498  0.0024
 1155ERGO    R415291  17.024   9.825   6.929  0.0481  0.0062 -0.0640
 1155ERGO    R515292  16.812   9.780   6.952  0.0788 -0.0820 -0.0058
 1155ERGO    C115293  16.846  10.067   7.201  0.0281 -0.1044  0.0251
 1155ERGO    C215294  16.954  10.061   7.374 -0.0650 -0.2059 -0.1747
 1156ERGO   ROH15295  12.194  12.158   5.959  0.0634 -0.0421 -0.0302
 1156ERGO    R115296  12.116  12.205   6.227 -0.0212 -0.1392 -0.0371
 1156ERGO    R215297  11.851  12.225   6.305 -0.0480 -0.2187 -0.1042
 1156ERGO    R315298  11.922  12.030   6.480 -0.0549 -0.2571 -0.1438
 1156ERGO    R415299  11.665  12.128   6.579  0.0901 -0.0666  0.0460
 1156ERGO    R515300  11.849  12.112   6.693  0.1649 -0.1903 -0.0928
 1156ERGO    C115301  11.622  11.889   6.904  0.1639 -0.0140  0.0962
 1156ERGO    C215302  11.603  11.751   7.066 -0.0034 -0.0260  0.0987
 1157ERGO   ROH15303  12.966  10.185   5.939  0.1601  0.2697 -0.1629
 1157ERGO    R115304  13.171  10.194   6.134  0.0896  0.0128 -0.0751
 1157ERGO    R215305  13.215  10.414   6.294  0.2739 -0.0551 -0.0359
 1157ERGO    R315306  13.191  10.232   6.495 -0.0163 -0.0510 -0.0611
 1157ERGO    R415307  13.358  10.445   6.608  0.1283 -0.2150  0.0489
 1157ERGO    R515308  13.405  10.232   6.602 -0.0716 -0.2648  0.0608
 1157ERGO    C115309  13.418  10.292   6.978 -0.2290 -0.3043  0.0745
 1157ERGO    C215310  13.387  10.267   7.451  0.0559  0.0817  0.0705
 1158ERGO   ROH15311  11.056   5.401   7.265 -0.1080 -0.3093  0.1488
 1158ERGO    R115312  11.072   5.545   7.508 -0.0437 -0.3491  0.1700
 1158ERGO    R215313  10.973   5.802   7.535  0.2813 -0.2079  0.1380
 1158ERGO    R315314  10.837   5.693   7.743  0.0202 -0.0547  0.0513
 1158ERGO    R415315  10.914   5.959   7.838  0.2021 -0.1291  0.0812
 1158ERGO    R515316  10.953   5.770   7.938 -0.0558 -0.1517  0.1298
 1158ERGO    C115317  10.753   5.947   8.209 -0.0891  0.0606 -0.0333
 1158ERGO    C215318  10.680   5.980   8.529 -0.0560 -0.1588 -0.1561
 1159ERGO   ROH15319  15.723  13.165   6.187 -0.1763  0.0932  0.0566
 1159ERGO    R115320  15.743  13.296   6.438 -0.0255  0.1146  0.0336
 1159ERGO    R215321  15.540  13.291   6.625  0.0047  0.3062  0.0700
 1159ERGO    R315322  15.736  13.198   6.788 -0.0404  0.1731  0.0502
 1159ERGO    R415323  15.503  13.231   6.963 -0.0526  0.1649  0.0396
 1159ERGO    R515324  15.701  13.314   6.995 -0.0291  0.0920  0.0997
 1159ERGO    C115325  15.665  13.108   7.313 -0.1282 -0.0423  0.0032
 1159ERGO    C215326  15.663  13.007   7.686 -0.2612 -0.3539 -0.0780
 1160ERGO   ROH15327  14.970   1.987   5.978  0.2156 -0.2129 -0.0673
 1160ERGO    R115328  14.962   1.978   6.261  0.0809 -0.4188 -0.0776
 1160ERGO    R215329  15.048   1.758   6.405  0.5789 -0.2960 -0.1897
 1160ERGO    R315330  15.204   1.942   6.531  0.0378  0.0383  0.0344
 1160ERGO    R415331  15.117   1.760   6.744  0.5646 -0.5343 -0.1820
 1160ERGO    R515332  15.096   1.977   6.742 -0.0949 -0.5587  0.0947
 1160ERGO    C115333  15.304   1.934   7.059  0.0484 -0.3592  0.0329
 1160ERGO    C215334  15.411   1.916   7.375 -0.3538 -0.3500  0.1326
 1161ERGO   ROH15335   7.865  18.162   6.677  0.1905  0.0321  0.0375
 1161ERGO    R115336   7.872  17.964   6.878  0.0821 -0.0085  0.0026
 1161ERGO    R215337   8.101  17.822   6.940  0.0328 -0.0753  0.0472
 1161ERGO    R315338   8.050  17.911   7.191 -0.0253 -0.1077  0.0466
 1161ERGO    R415339   8.241  17.692   7.228  0.3263  0.1954  0.0311
 1161ERGO    R515340   8.048  17.713   7.326  0.3242 -0.0872  0.0870
 1161ERGO    C115341   8.276  17.700   7.631  0.4425  0.3227  0.0213
 1161ERGO    C215342   8.503  17.829   7.897  0.2090  0.0748  0.0085
 1162ERGO   ROH15343   6.586   6.263   5.998 -0.1971 -0.1826  0.0708
 1162ERGO    R115344   6.676   6.205   6.260 -0.1727 -0.0572  0.0910
 1162ERGO    R215345   6.829   6.382   6.407 -0.1157 -0.0064 -0.0265
 1162ERGO    R315346   6.632   6.347   6.592 -0.0979  0.1350  0.0196
 1162ERGO    R415347   6.871   6.416   6.749  0.0307 -0.2001 -0.0237
 1162ERGO    R515348   6.743   6.241   6.777 -0.1573 -0.0695 -0.0599
 1162ERGO    C115349   6.711   6.403   7.121  0.1326 -0.1800  0.0211
 1162ERGO    C215350   6.907   6.556   7.347  0.0777 -0.1515 -0.2694
 1163ERGO   ROH15351   0.988  17.325   6.736  0.1910  0.0393 -0.0157
 1163ERGO    R115352   1.007  17.303   7.018  0.2015  0.0394 -0.0168
 1163ERGO    R215353   0.962  17.065   7.151  0.0740  0.0725 -0.0045
 1163ERGO    R315354   1.209  17.113   7.254  0.1109 -0.0688 -0.0242
 1163ERGO    R415355   1.096  16.905   7.427 -0.0048  0.0005 -0.0074
 1163ERGO    R515356   1.179  17.096   7.491  0.1139 -0.0429 -0.0198
 1163ERGO    C115357   1.406  16.857   7.684 -0.0159 -0.1742 -0.0277
 1163ERGO    C215358   1.506  16.648   7.844 -0.2084 -0.0876 -0.2586
 1164ERGO   ROH15359  15.334   7.390   6.142 -0.2083  0.1825 -0.1027
 1164ERGO    R115360  15.545   7.364   6.329 -0.1379  0.2104 -0.1787
 1164ERGO    R215361  15.623   7.572   6.494 -0.1994  0.1787 -0.1109
 1164ERGO    R315362  15.582   7.389   6.691 -0.0412  0.0675 -0.1784
 1164ERGO    R415363  15.779   7.576   6.802 -0.2394  0.2239 -0.0902
 1164ERGO    R515364  15.799   7.359   6.789 -0.0221  0.2460 -0.1639
 1164ERGO    C115365  15.832   7.406   7.166 -0.1141  0.1456 -0.1415
 1164ERGO    C215366  15.845   7.372   7.490 -0.2105  0.1267  0.1803
 1165ERGO   ROH15367   1.247  12.479   6.221  0.0717  0.0739 -0.1451
 1165ERGO    R115368   1.454  12.427   6.407  0.1081 -0.0492 -0.2192
 1165ERGO    R215369   1.711  12.366   6.331  0.1550  0.2620 -0.3122
 1165ERGO    R315370   1.775  12.574   6.494 -0.0037  0.0707  0.0042
 1165ERGO    R415371   2.017  12.405   6.488  0.2300  0.3915 -0.4846
 1165ERGO    R515372   1.909  12.474   6.666  0.2664 -0.0609 -0.2705
 1165ERGO    C115373   2.254  12.622   6.734  0.1247  0.2874 -0.2880
 1165ERGO    C215374   2.629  12.564   6.746  0.0885  0.0415  0.0077
 1166ERGO   ROH15375  11.995  17.562   6.442 -0.0318  0.0072 -0.0255
 1166ERGO    R115376  11.961  17.661   6.705 -0.1846 -0.1580  0.0207
 1166ERGO    R215377  11.861  17.506   6.911  0.0540 -0.4112 -0.0397
 1166ERGO    R315378  12.090  17.582   7.036 -0.0541 -0.1085 -0.0196
 1166ERGO    R415379  11.957  17.405   7.227  0.2701 -0.4572 -0.1189
 1166ERGO    R515380  12.027  17.607   7.266 -0.0649 -0.3636  0.0034
 1166ERGO    C115381  12.227  17.417   7.529  0.2944 -0.1997 -0.1462
 1166ERGO    C215382  12.344  17.229   7.764 -0.0021  0.3030 -0.1633
 1167ERGO   ROH15383   5.931  12.557   6.210 -0.1074 -0.1514  0.0164
 1167ERGO    R115384   5.971  12.449   6.468  0.0506 -0.0282  0.0449
 1167ERGO    R215385   6.069  12.599   6.679 -0.1655  0.1727  0.0071
 1167ERGO    R315386   5.844  12.512   6.804 -0.0433 -0.1244  0.0276
 1167ERGO    R415387   6.001  12.640   7.015 -0.1985  0.0981  0.0098
 1167ERGO    R515388   5.920  12.438   7.019  0.0715 -0.0135  0.0258
 1167ERGO    C115389   5.750  12.582   7.328 -0.1031 -0.2241  0.0307
 1167ERGO    C215390   5.611  12.733   7.588 -0.0841 -0.1596 -0.0101
 1168ERGO   ROH15391   4.466   9.013   6.198 -0.0619 -0.0747  0.0939
 1168ERGO    R115392   4.577   9.190   6.390 -0.0729  0.0052  0.0253
 1168ERGO    R215393   4.573   9.136   6.660 -0.0006  0.0726  0.0341
 1168ERGO    R315394   4.841   9.176   6.639 -0.0148  0.1489 -0.0254
 1168ERGO    R415395   4.770   9.286   6.902  0.0769 -0.2646  0.1882
 1168ERGO    R515396   4.877   9.389   6.743 -0.0096  0.0034  0.2917
 1168ERGO    C115397   5.136   9.411   7.023  0.1087 -0.3893  0.2220
 1168ERGO    C215398   5.140   9.473   7.357 -0.2025  0.2525  0.3732
 1169ERGO   ROH15399  13.272   7.668   6.259 -0.0273  0.2315  0.0020
 1169ERGO    R115400  13.303   7.676   6.540 -0.1157  0.0134  0.0203
 1169ERGO    R215401  13.374   7.906   6.675  0.1413 -0.1611  0.1915
 1169ERGO    R315402  13.149   7.854   6.818  0.0178  0.0440  0.0756
 1169ERGO    R415403  13.304   8.039   6.987  0.1423 -0.1602  0.1910
 1169ERGO    R515404  13.225   7.844   7.046 -0.0946 -0.0923  0.1087
 1169ERGO    C115405  13.052   8.067   7.302  0.0270  0.0329  0.0818
 1169ERGO    C215406  13.077   8.306   7.591 -0.2793 -0.0569 -0.0831
 1170ERGO   ROH15407  17.543   5.338   6.344  0.0683 -0.1620 -0.0658
 1170ERGO    R115408  17.503   5.242   6.608 -0.0196 -0.2340 -0.1038
 1170ERGO    R215409  17.669   5.053   6.724  0.0520 -0.1367 -0.0353
 1170ERGO    R315410  17.691   5.241   6.919 -0.2002 -0.1469  0.0059
 1170ERGO    R415411  17.826   5.004   7.028  0.1389  0.0228 -0.0540
 1170ERGO    R515412  17.666   5.118   7.123 -0.0148 -0.2240 -0.0205
 1170ERGO    C115413  17.939   5.152   7.388 -0.0475  0.1062 -0.0263
 1170ERGO    C215414  18.400   5.068   7.468  0.0229  0.1124 -0.1750
 1171ERGO   ROH15415   8.577  11.404   6.392 -0.2358  0.0054 -0.0525
 1171ERGO    R115416   8.706  11.225   6.569 -0.2191 -0.0097 -0.0789
 1171ERGO    R215417   8.947  11.283   6.690 -0.1653 -0.0526 -0.1569
 1171ERGO    R315418   8.809  11.227   6.918 -0.1103 -0.0034 -0.1118
 1171ERGO    R415419   9.083  11.139   6.974 -0.1458 -0.1761 -0.2290
 1171ERGO    R515420   8.902  11.019   6.994 -0.2075 -0.0688 -0.1768
 1171ERGO    C115421   9.033  11.002   7.352 -0.0829 -0.2019 -0.2285
 1171ERGO    C215422   9.050  11.144   7.668  0.3393  0.1780  0.1759
 1172ERGO   ROH15423   6.140   4.187   6.332 -0.0647 -0.0190  0.0970
 1172ERGO    R115424   5.979   4.229   6.561 -0.1003 -0.0225  0.0745
 1172ERGO    R215425   6.077   4.205   6.818 -0.1333 -0.0124  0.0966
 1172ERGO    R315426   5.977   4.457   6.845 -0.1469 -0.0160  0.0658
 1172ERGO    R415427   6.018   4.362   7.120 -0.2371 -0.0008  0.0695
 1172ERGO    R515428   5.833   4.442   7.036 -0.2047 -0.0082  0.0148
 1172ERGO    C115429   5.889   4.689   7.322 -0.3102  0.0026  0.0248
 1172ERGO    C215430   5.892   4.846   7.683  0.2159 -0.1099 -0.0434
 1173ERGO   ROH15431   4.031  15.239   6.612  0.0410  0.1618  0.0552
 1173ERGO    R115432   4.036  15.341   6.876  0.0325  0.1657  0.0537
 1173ERGO    R215433   4.033  15.612   6.930 -0.0546  0.1647  0.0517
 1173ERGO    R315434   3.819  15.545   7.085 -0.0164  0.0932  0.0744
 1173ERGO    R415435   3.927  15.789   7.208 -0.0936  0.1383  0.0540
 1173ERGO    R515436   3.889  15.599   7.308 -0.0152  0.1281  0.0659
 1173ERGO    C115437   3.665  15.829   7.515 -0.0804  0.0559  0.0764
 1173ERGO    C215438   3.332  16.073   7.506  0.0909 -0.1328 -0.2967
 1174ERGO   ROH15439  13.112  16.812   6.619  0.0913  0.1691 -0.0292
 1174ERGO    R115440  13.003  16.733   6.868  0.1086  0.1503 -0.0277
 1174ERGO    R215441  13.157  16.707   7.096  0.1060  0.2336 -0.0160
 1174ERGO    R315442  12.972  16.877   7.201  0.0327  0.1710 -0.0437
 1174ERGO    R415443  13.066  16.719   7.430 -0.1513  0.0139 -0.0748
 1174ERGO    R515444  12.859  16.746   7.367 -0.1025  0.0637 -0.2167
 1174ERGO    C115445  12.839  16.885   7.722 -0.3700 -0.1730 -0.1351
 1174ERGO    C215446  12.534  16.863   7.961 -0.1381 -0.2923 -0.1728
 1175ERGO   ROH15447   1.208   8.539   6.189  0.4075 -0.0208  0.0433
 1175ERGO    R115448   1.175   8.571   6.469  0.2123 -0.0210  0.0225
 1175ERGO    R215449   1.118   8.815   6.585  0.1728 -0.0114 -0.0105
 1175ERGO    R315450   0.909   8.679   6.693  0.0695  0.0237 -0.1659
 1175ERGO    R415451   1.004   8.852   6.909  0.1790 -0.2621  0.0215
 1175ERGO    R515452   0.976   8.636   6.919  0.0257 -0.2551 -0.2023
 1175ERGO    C115453   0.741   8.746   7.199  0.0856 -0.3750 -0.1059
 1175ERGO    C215454   0.632   8.755   7.487  0.1712  0.1808 -0.0155
 1176ERGO   ROH15455  10.288   4.196   6.219  0.1733 -0.0117 -0.0457
 1176ERGO    R115456  10.416   4.258   6.464 -0.0143  0.2078  0.0007
 1176ERGO    R215457  10.323   4.454   6.635 -0.5074 -0.0481  0.0467
 1176ERGO    R315458  10.327   4.252   6.817 -0.0831 -0.1072 -0.0189
 1176ERGO    R415459  10.388   4.492   6.973 -0.3373 -0.0660  0.0170
 1176ERGO    R515460  10.505   4.309   6.966 -0.0652  0.1086 -0.1201
 1176ERGO    C115461  10.429   4.324   7.339  0.1601 -0.1318 -0.0618
 1176ERGO    C215462  10.363   4.371   7.732  0.0760 -0.1593 -0.0373
 1177ERGO   ROH15463  11.910  16.075   6.439  0.1544  0.0580 -0.0694
 1177ERGO    R115464  11.797  15.944   6.663  0.0316  0.1299 -0.0882
 1177ERGO    R215465  11.939  15.762   6.816 -0.1083  0.0444 -0.0588
 1177ERGO    R315466  11.865  15.926   7.020 -0.0462  0.0933 -0.0752
 1177ERGO    R415467  11.924  15.670   7.149  0.0381  0.1371 -0.0257
 1177ERGO    R515468  11.740  15.785   7.168  0.0311  0.1194  0.0158
 1177ERGO    C115469  11.846  15.770   7.534  0.1815  0.2369 -0.0219
 1177ERGO    C215470  11.974  15.736   7.820  0.0489  0.0689 -0.1185
 1178ERGO   ROH15471  10.750  16.133   6.500 -0.0443 -0.2740 -0.0731
 1178ERGO    R115472  10.887  16.111   6.747  0.0426 -0.1328 -0.1095
 1178ERGO    R215473  10.973  16.332   6.889 -0.2312 -0.0429 -0.0904
 1178ERGO    R315474  10.831  16.217   7.090 -0.0236 -0.2774 -0.0734
 1178ERGO    R415475  10.972  16.440   7.218 -0.2610 -0.1161 -0.0653
 1178ERGO    R515476  10.975  16.232   7.281  0.0265 -0.1369 -0.1151
 1178ERGO    C115477  10.838  16.394   7.598 -0.0835 -0.3790 -0.0347
 1178ERGO    C215478  10.859  16.465   8.040 -0.1485 -0.2450 -0.2435
 1179ERGO   ROH15479   4.009   0.710   6.410  0.0643 -0.0854 -0.0849
 1179ERGO    R115480   4.153   0.627   6.639  0.0178 -0.1181 -0.0672
 1179ERGO    R215481   4.108   0.735   6.889  0.0859 -0.0310 -0.0912
 1179ERGO    R315482   4.074   0.474   6.960 -0.0711  0.0055 -0.0296
 1179ERGO    R415483   4.106   0.618   7.214  0.3894 -0.0011 -0.0759
 1179ERGO    R515484   4.220   0.445   7.147  0.1425 -0.1169 -0.2116
 1179ERGO    C115485   4.072   0.306   7.471  0.4187  0.0506 -0.0092
 1179ERGO    C215486   4.105   0.109   7.800 -0.1105  0.0373 -0.0305
 1180ERGO   ROH15487   1.044  15.818   6.574 -0.1068  0.0066 -0.0035
 1180ERGO    R115488   1.260  15.834   6.756 -0.1493 -0.1163  0.0597
 1180ERGO    R215489   1.288  16.042   6.936 -0.0795 -0.1271  0.0651
 1180ERGO    R315490   1.301  15.840   7.117 -0.2526 -0.1333  0.0712
 1180ERGO    R415491   1.353  16.082   7.273 -0.2028 -0.1652  0.0938
 1180ERGO    R515492   1.478  15.904   7.265 -0.2866 -0.2221  0.1468
 1180ERGO    C115493   1.404  15.916   7.639 -0.4371 -0.1932  0.1163
 1180ERGO    C215494   1.294  15.996   8.031  0.3720  0.0389  0.1173
 1181ERGO   ROH15495  14.291  13.348   6.080  0.0126 -0.2328 -0.0224
 1181ERGO    R115496  14.410  13.314   6.335 -0.0009  0.0258  0.0203
 1181ERGO    R215497  14.479  13.527   6.497 -0.3873  0.1834 -0.0195
 1181ERGO    R315498  14.325  13.396   6.679 -0.2296 -0.0153 -0.0230
 1181ERGO    R415499  14.501  13.567   6.840 -0.3513  0.1149 -0.0126
 1181ERGO    R515500  14.473  13.352   6.862 -0.1436  0.0753 -0.0653
 1181ERGO    C115501  14.370  13.468   7.210 -0.1823 -0.1115 -0.0119
 1181ERGO    C215502  14.302  13.420   7.630 -0.2995 -0.1652 -0.1753
 1182ERGO   ROH15503   5.247  16.001   6.565  0.0967  0.2157  0.1303
 1182ERGO    R115504   5.137  15.946   6.820  0.0092  0.1490  0.0778
 1182ERGO    R215505   5.227  15.739   6.979 -0.0173  0.1356  0.0705
 1182ERGO    R315506   5.257  15.936   7.164 -0.1210  0.1038  0.1231
 1182ERGO    R415507   5.185  15.698   7.320  0.3239 -0.0618  0.0937
 1182ERGO    R515508   5.086  15.892   7.326  0.0684 -0.1901  0.2541
 1182ERGO    C115509   5.189  15.859   7.691  0.4251 -0.2068  0.1567
 1182ERGO    C215510   5.236  15.921   8.097 -0.1528  0.0725  0.0456
 1183ERGO   ROH15511  11.461  11.247   6.414 -0.0387  0.1890 -0.1063
 1183ERGO    R115512  11.298  11.260   6.645  0.0419  0.0155 -0.0388
 1183ERGO    R215513  11.363  11.131   6.880  0.3584  0.2087 -0.0186
 1183ERGO    R315514  11.333  11.379   6.987  0.0050  0.2070 -0.0994
 1183ERGO    R415515  11.294  11.196   7.213  0.2518  0.2134 -0.0409
 1183ERGO    R515516  11.158  11.354   7.148  0.0279  0.0080 -0.0996
 1183ERGO    C115517  11.225  11.466   7.506 -0.1420  0.2144 -0.1298
 1183ERGO    C215518  11.188  11.326   7.822 -0.0711 -0.2984  0.0622
 1184ERGO   ROH15519  15.911   2.151   6.126  0.0757 -0.4369  0.2018
 1184ERGO    R115520  15.903   2.181   6.407  0.1675 -0.2270  0.1836
 1184ERGO    R215521  16.122   2.261   6.555  0.1631  0.0650  0.0331
 1184ERGO    R315522  15.951   2.451   6.646  0.0472 -0.0017 -0.0410
 1184ERGO    R415523  16.142   2.413   6.865  0.1216  0.2455 -0.0508
 1184ERGO    R515524  15.925   2.401   6.879  0.1267  0.1027 -0.0060
 1184ERGO    C115525  15.993   2.680   7.131 -0.0113  0.2879 -0.1691
 1184ERGO    C215526  16.196   2.792   7.381 -0.3049 -0.0125 -0.1508
 1185ERGO   ROH15527  12.409  10.813   6.422  0.2319  0.0207 -0.0078
 1185ERGO    R115528  12.293  10.692   6.650  0.0585  0.0326 -0.0882
 1185ERGO    R215529  12.351  10.773   6.907  0.0714 -0.1320 -0.0397
 1185ERGO    R315530  12.081  10.798   6.927  0.0872  0.1158 -0.0968
 1185ERGO    R415531  12.168  10.713   7.194 -0.0709 -0.2992 -0.1635
 1185ERGO    R515532  12.016  10.618   7.070 -0.1347 -0.0003 -0.3315
 1185ERGO    C115533  11.808  10.701   7.379 -0.1388 -0.1639 -0.2893
 1185ERGO    C215534  11.498  10.886   7.582 -0.0502  0.1231  0.0813
 1186ERGO   ROH15535   3.178   5.568   6.458 -0.1443 -0.1781  0.2634
 1186ERGO    R115536   3.274   5.483   6.711 -0.0185 -0.2348  0.1978
 1186ERGO    R215537   3.466   5.287   6.738  0.1530 -0.0911  0.0507
 1186ERGO    R315538   3.593   5.478   6.884  0.0251 -0.0613  0.1244
 1186ERGO    R415539   3.689   5.224   6.995  0.2596 -0.0435 -0.0293
 1186ERGO    R515540   3.600   5.389   7.107  0.1448 -0.1748  0.0767
 1186ERGO    C115541   3.938   5.366   7.282  0.2016  0.0123 -0.0069
 1186ERGO    C215542   4.188   5.380   7.596 -0.3023 -0.2457  0.4832
 1187ERGO   ROH15543  10.729  13.012   5.964  0.1824 -0.1011 -0.2267
 1187ERGO    R115544  10.735  12.951   6.240  0.0471  0.0475 -0.1907
 1187ERGO    R215545  10.928  12.789   6.353 -0.0882  0.0016 -0.0339
 1187ERGO    R315546  10.964  13.002   6.518 -0.0261  0.0689 -0.1318
 1187ERGO    R415547  11.024  12.769   6.685 -0.3419  0.1009  0.0488
 1187ERGO    R515548  10.882  12.928   6.730 -0.2457  0.2534 -0.1435
 1187ERGO    C115549  11.114  12.957   7.032 -0.4313  0.2220  0.0050
 1187ERGO    C215550  11.118  12.841   7.394  0.3056  0.0034  0.0436
 1188ERGO   ROH15551  15.551  14.080   6.093  0.2047  0.0723  0.0331
 1188ERGO    R115552  15.506  14.241   6.321  0.0458  0.0247  0.0370
 1188ERGO    R215553  15.297  14.197   6.497  0.0205 -0.1138 -0.0274
 1188ERGO    R315554  15.496  14.192   6.681 -0.0288 -0.0168  0.0292
 1188ERGO    R415555  15.249  14.183   6.838 -0.0673 -0.1244 -0.0395
 1188ERGO    R515556  15.413  14.325   6.862 -0.1391 -0.0490  0.0022
 1188ERGO    C115557  15.408  14.171   7.211 -0.1647 -0.0393  0.0066
 1188ERGO    C215558  15.529  14.152   7.626 -0.0664  0.5579  0.4272
 1189ERGO   ROH15559   7.064  17.980   6.600  0.2011  0.1509  0.1097
 1189ERGO    R115560   6.882  17.898   6.801  0.0191  0.2352 -0.0178
 1189ERGO    R215561   6.961  17.756   7.025 -0.2472 -0.0710 -0.1063
 1189ERGO    R315562   6.835  17.958   7.157 -0.0039  0.0020  0.0191
 1189ERGO    R415563   6.854  17.741   7.353 -0.1501 -0.0875 -0.0752
 1189ERGO    R515564   6.673  17.847   7.294 -0.0649  0.1125  0.0316
 1189ERGO    C115565   6.674  17.921   7.668  0.1349 -0.0287  0.0607
 1189ERGO    C215566   6.589  17.864   8.046 -0.2164  0.0267  0.0728
 1190ERGO   ROH15567  13.011  17.956   6.374 -0.1065 -0.1888  0.0299
 1190ERGO    R115568  13.109  17.984   6.638 -0.1781 -0.0791  0.0469
 1190ERGO    R215569  13.073  17.790   6.831 -0.0329 -0.1047  0.0591
 1190ERGO    R315570  13.344  17.808   6.853 -0.0514  0.1496  0.0962
 1190ERGO    R415571  13.257  17.672   7.099  0.0646 -0.0668  0.0078
 1190ERGO    R515572  13.381  17.851   7.086 -0.1129  0.0590  0.1183
 1190ERGO    C115573  13.618  17.620   7.275  0.1039  0.1941  0.0128
 1190ERGO    C215574  13.854  17.462   7.646  0.1514  0.0666 -0.2056
 1191ERGO   ROH15575   7.517  16.778   6.768  0.0972 -0.1636  0.0319
 1191ERGO    R115576   7.529  16.856   7.040 -0.0702 -0.1214  0.0267
 1191ERGO    R215577   7.305  16.935   7.182 -0.1858 -0.2809 -0.0742
 1191ERGO    R315578   7.385  16.741   7.354 -0.1017 -0.1950 -0.0128
 1191ERGO    R415579   7.287  16.957   7.526  0.0437 -0.0716 -0.0709
 1191ERGO    R515580   7.482  16.860   7.538  0.0412 -0.0969 -0.1445
 1191ERGO    C115581   7.351  16.786   7.889  0.2564  0.1312 -0.0114
 1191ERGO    C215582   7.220  16.570   8.070 -0.0915 -0.2197  0.0794
 1192ERGO   ROH15583  13.319  12.505   5.921  0.0475  0.2921  0.1039
 1192ERGO    R115584  13.231  12.425   6.177 -0.0113  0.1140  0.0314
 1192ERGO    R215585  13.348  12.217   6.316  0.0637  0.1120 -0.0128
 1192ERGO    R315586  13.373  12.405   6.511 -0.1325  0.0458  0.0758
 1192ERGO    R415587  13.422  12.150   6.647  0.1513  0.0547 -0.0450
 1192ERGO    R515588  13.278  12.302   6.706 -0.0055 -0.1376  0.0328
 1192ERGO    C115589  13.489  12.288   7.023  0.0182 -0.0407  0.0193
 1192ERGO    C215590  13.581  12.337   7.347  0.0170 -0.1114 -0.4545
 1193ERGO   ROH15591   1.875   2.118   6.450 -0.0905 -0.1216 -0.0123
 1193ERGO    R115592   2.044   2.232   6.645 -0.1648  0.1876 -0.1212
 1193ERGO    R215593   1.993   2.477   6.762 -0.5812  0.0700 -0.0321
 1193ERGO    R315594   2.015   2.335   6.993 -0.1126  0.0529 -0.0768
 1193ERGO    R415595   2.060   2.614   7.072 -0.3764  0.0969 -0.0869
 1193ERGO    R515596   2.190   2.444   7.114 -0.1026  0.2577 -0.2734
 1193ERGO    C115597   2.118   2.560   7.470  0.1828  0.0965 -0.1609
 1193ERGO    C215598   1.844   2.660   7.666 -0.0002 -0.2169  0.1131
 1194ERGO   ROH15599  13.302  13.914   6.034 -0.0860 -0.0449  0.1293
 1194ERGO    R115600  13.424  13.825   6.273 -0.0274 -0.0209  0.1083
 1194ERGO    R215601  13.456  13.989   6.494  0.0997  0.0260  0.0565
 1194ERGO    R315602  13.327  13.787   6.622  0.0844  0.0963  0.1531
 1194ERGO    R415603  13.497  13.909   6.827  0.2759  0.0282  0.0362
 1194ERGO    R515604  13.491  13.698   6.772  0.1389  0.0275  0.0535
 1194ERGO    C115605  13.400  13.672   7.142  0.3641  0.0955  0.1150
 1194ERGO    C215606  13.445  13.840   7.369  0.0471  0.0455 -0.3302
 1195ERGO   ROH15607   6.545   9.084   6.335 -0.0133 -0.1076  0.0495
 1195ERGO    R115608   6.587   9.060   6.614 -0.0517 -0.0439  0.0615
 1195ERGO    R215609   6.776   9.210   6.750  0.0078 -0.0908  0.0352
 1195ERGO    R315610   6.563   9.277   6.905  0.0225  0.0568 -0.0074
 1195ERGO    R415611   6.793   9.281   7.087 -0.0161 -0.1122  0.0407
 1195ERGO    R515612   6.607   9.170   7.115 -0.1000  0.0205 -0.0014
 1195ERGO    C115613   6.604   9.385   7.430 -0.0161  0.0137  0.0039
 1195ERGO    C215614   6.771   9.576   7.671 -0.0967  0.1542  0.0022
 1196ERGO   ROH15615   2.465  10.827   5.930  0.1087  0.4108  0.1680
 1196ERGO    R115616   2.375  10.875   6.194  0.0889  0.2290  0.1953
 1196ERGO    R215617   2.162  10.738   6.304  0.0324  0.2038  0.0599
 1196ERGO    R315618   2.342  10.682   6.501 -0.0092 -0.0065  0.0397
 1196ERGO    R415619   2.079  10.678   6.635  0.0129  0.5479  0.1216
 1196ERGO    R515620   2.255  10.795   6.694  0.2471  0.2699  0.0008
 1196ERGO    C115621   2.200  10.590   7.011 -0.0374  0.5508  0.1386
 1196ERGO    C215622   2.185  10.620   7.327  0.2088 -0.0939 -0.0632
 1197ERGO   ROH15623  15.887  16.065   6.133  0.1855 -0.0189  0.1341
 1197ERGO    R115624  15.912  16.194   6.384  0.0963  0.0026  0.1304
 1197ERGO    R215625  15.698  16.309   6.515  0.0539  0.0140  0.0380
 1197ERGO    R315626  15.778  16.148   6.719 -0.0228  0.0360  0.0891
 1197ERGO    R415627  15.590  16.337   6.842  0.0110  0.1224  0.0172
 1197ERGO    R515628  15.794  16.295   6.908 -0.0077  0.0782  0.0586
 1197ERGO    C115629  15.602  16.202   7.224 -0.0861  0.2063  0.0530
 1197ERGO    C215630  15.532  16.291   7.505  0.0940  0.0713  0.0216
 1198ERGO   ROH15631  15.385  15.321   6.834  0.2198 -0.0093  0.1594
 1198ERGO    R115632  15.361  15.312   7.116  0.1876  0.2825  0.1694
 1198ERGO    R215633  15.203  15.489   7.258 -0.0913  0.2295 -0.0617
 1198ERGO    R315634  15.093  15.261   7.357  0.2156  0.1796  0.1786
 1198ERGO    R415635  14.947  15.478   7.490 -0.3168  0.1428 -0.3085
 1198ERGO    R515636  15.049  15.312   7.587 -0.1096  0.4694  0.0611
 1198ERGO    C115637  14.695  15.258   7.719 -0.1599  0.0456 -0.2267
 1198ERGO    C215638  14.396  15.112   7.810 -0.1417 -0.0450 -0.0429
 1199ERGO   ROH15639  14.377   7.682   6.146  0.0549 -0.0666  0.0493
 1199ERGO    R115640  14.414   7.516   6.373 -0.0967 -0.1145  0.0395
 1199ERGO    R215641  14.533   7.606   6.605  0.1100 -0.2732 -0.0038
 1199ERGO    R315642  14.304   7.515   6.720  0.0191  0.0457  0.0781
 1199ERGO    R415643  14.489   7.553   6.944  0.1822 -0.2725  0.0061
 1199ERGO    R515644  14.379   7.372   6.896 -0.1140 -0.1034  0.0167
 1199ERGO    C115645  14.248   7.437   7.249  0.1388  0.0272  0.0886
 1199ERGO    C215646  14.144   7.465   7.611  0.0714 -0.2722  0.1731
 1200ERGO   ROH15647   1.080  12.892   6.352 -0.1553  0.1164 -0.1699
 1200ERGO    R115648   1.000  13.135   6.474  0.0882  0.1105  0.0065
 1200ERGO    R215649   0.758  13.164   6.603  0.0486  0.3031 -0.1184
 1200ERGO    R315650   0.914  13.246   6.809  0.0319 -0.0869  0.0605
 1200ERGO    R415651   0.640  13.283   6.905  0.0010  0.2954 -0.1329
 1200ERGO    R515652   0.797  13.433   6.901  0.2586  0.0501  0.0876
 1200ERGO    C115653   0.718  13.430   7.274 -0.0425 -0.0750  0.0266
 1200ERGO    C215654   0.794  13.554   7.552 -0.2075 -0.0343  0.2413
 1201ERGO   ROH15655  15.247   2.896   6.451 -0.0410 -0.1163  0.0169
 1201ERGO    R115656  15.048   2.929   6.650  0.0395 -0.1566  0.1048
 1201ERGO    R215657  15.110   2.978   6.915  0.1464  0.1411  0.0276
 1201ERGO    R315658  14.946   3.192   6.880 -0.1064 -0.0621 -0.0648
 1201ERGO    R415659  14.966   3.161   7.171  0.1770  0.2596 -0.0391
 1201ERGO    R515660  14.783   3.171   7.054  0.0611 -0.0545  0.0989
 1201ERGO    C115661  14.730   3.468   7.287 -0.0425  0.1378 -0.1648
 1201ERGO    C215662  14.620   3.589   7.482  0.2136  0.3070 -0.0919
 1202ERGO   ROH15663  10.896  18.452   6.327 -0.1301 -0.2787 -0.2009
 1202ERGO    R115664  10.999  18.528   6.579 -0.1201 -0.1273 -0.2517
 1202ERGO    R215665  10.863  18.483   6.816 -0.0346 -0.1302 -0.2135
 1202ERGO    R315666  11.094  18.360   6.887  0.0596  0.0417 -0.2093
 1202ERGO    R415667  10.960  18.415   7.140 -0.2036 -0.4245 -0.2190
 1202ERGO    R515668  11.163  18.472   7.087 -0.2163 -0.1184 -0.0096
 1202ERGO    C115669  11.233  18.260   7.397 -0.2134 -0.4343 -0.2182
 1202ERGO    C215670  11.303  18.035   7.731 -0.3371  0.1003  0.3387
 1203ERGO   ROH15671   6.825  17.680   6.344  0.2243 -0.0307  0.2116
 1203ERGO    R115672   6.590  17.662   6.500  0.1826  0.2061  0.1797
 1203ERGO    R215673   6.538  17.448   6.667 -0.1103  0.1963  0.0787
 1203ERGO    R315674   6.507  17.643   6.854  0.1235  0.1558  0.1641
 1203ERGO    R415675   6.429  17.395   6.990 -0.0401  0.1655  0.0979
 1203ERGO    R515676   6.311  17.577   6.975  0.1082  0.2763  0.2086
 1203ERGO    C115677   6.336  17.547   7.355  0.2203  0.1098  0.1894
 1203ERGO    C215678   6.359  17.541   7.629 -0.3600  0.0946  0.0875
 1204ERGO   ROH15679  12.988   2.545   6.183 -0.0917 -0.2598 -0.0097
 1204ERGO    R115680  13.092   2.577   6.444 -0.1009  0.0466 -0.0388
 1204ERGO    R215681  12.998   2.769   6.619 -0.3486  0.0328 -0.1438
 1204ERGO    R315682  12.963   2.556   6.784 -0.0349  0.0779 -0.0137
 1204ERGO    R415683  13.000   2.784   6.965 -0.1760  0.1975 -0.1505
 1204ERGO    R515684  13.112   2.597   6.967  0.0187  0.3201 -0.1143
 1204ERGO    C115685  12.969   2.592   7.320  0.2188  0.3357 -0.0322
 1204ERGO    C215686  13.088   2.503   7.674 -0.2105  0.0085  0.1391
 1205ERGO   ROH15687  17.547   4.282   6.435  0.1458  0.1544  0.0485
 1205ERGO    R115688  17.613   4.241   6.707 -0.0250 -0.0198  0.0646
 1205ERGO    R215689  17.623   4.447   6.891  0.0787 -0.1053  0.1502
 1205ERGO    R315690  17.450   4.289   7.029 -0.1367 -0.0014  0.0069
 1205ERGO    R415691  17.578   4.456   7.234 -0.1457 -0.1248  0.1239
 1205ERGO    R515692  17.566   4.238   7.233 -0.3081 -0.1209  0.0808
 1205ERGO    C115693  17.390   4.313   7.563 -0.4785 -0.0388 -0.0260
 1205ERGO    C215694  17.489   4.549   7.843  0.0760  0.0294 -0.1314
 1206ERGO   ROH15695   7.202   8.281   6.234  0.2027  0.1074  0.0068
 1206ERGO    R115696   7.105   8.245   6.498 -0.0079  0.2380 -0.0504
 1206ERGO    R215697   7.238   8.092   6.686 -0.3387  0.0356  0.0270
 1206ERGO    R315698   7.222   8.319   6.835 -0.0980  0.0582  0.0213
 1206ERGO    R415699   7.198   8.101   7.029 -0.2371  0.0888  0.0374
 1206ERGO    R515700   7.061   8.268   7.004 -0.0972  0.2094  0.0677
 1206ERGO    C115701   7.161   8.320   7.369  0.0481  0.1409  0.0383
 1206ERGO    C215702   7.313   8.607   7.524  0.2634 -0.0318  0.1666
 1207ERGO   ROH15703   6.274   8.987   7.986 -0.1173 -0.2758  0.0130
 1207ERGO    R115704   6.395   8.740   8.054 -0.0165 -0.2025  0.1036
 1207ERGO    R215705   6.534   8.588   7.870  0.0214 -0.2272  0.1528
 1207ERGO    R315706   6.733   8.604   8.055  0.0360 -0.0749  0.1255
 1207ERGO    R415707   6.827   8.405   7.860  0.0676 -0.1572  0.2201
 1207ERGO    R515708   6.811   8.378   8.077  0.0963 -0.0450  0.2382
 1207ERGO    C115709   7.184   8.312   8.029  0.1082  0.0267  0.2337
 1207ERGO    C215710   7.436   8.115   7.769 -0.1723  0.1462 -0.2169
 1208ERGO   ROH15711   1.157   4.618   6.265  0.1239  0.0532 -0.0698
 1208ERGO    R115712   1.218   4.612   6.541  0.1577 -0.0111 -0.0792
 1208ERGO    R215713   1.023   4.600   6.736  0.1669  0.2836 -0.0524
 1208ERGO    R315714   1.164   4.384   6.820 -0.1278  0.0838 -0.0519
 1208ERGO    R415715   1.039   4.492   7.064 -0.0916  0.1778 -0.0709
 1208ERGO    R515716   1.252   4.450   7.033 -0.1251 -0.0759  0.0002
 1208ERGO    C115717   1.182   4.225   7.333 -0.5188 -0.0714 -0.0810
 1208ERGO    C215718   1.027   4.218   7.705  0.2357 -0.1226 -0.0111
 1209ERGO   ROH15719  15.468  12.221   6.496 -0.1174 -0.0247  0.0596
 1209ERGO    R115720  15.518  12.290   6.766 -0.0321 -0.0755  0.0563
 1209ERGO    R215721  15.338  12.235   6.969 -0.0489  0.0552  0.0711
 1209ERGO    R315722  15.552  12.112   7.082 -0.1313 -0.1158  0.0462
 1209ERGO    R415723  15.378  12.182   7.308 -0.0005  0.1414  0.0801
 1209ERGO    R515724  15.589  12.233   7.286  0.0491 -0.0720 -0.0068
 1209ERGO    C115725  15.603  12.035   7.612 -0.0497  0.0312  0.0619
 1209ERGO    C215726  15.778  11.938   7.973  0.1837 -0.1259 -0.0744
 1210ERGO   ROH15727  18.430  17.208   6.243  0.0921  0.0724 -0.1246
 1210ERGO    R115728  18.503  17.258   6.512  0.1039  0.0035 -0.1126
 1210ERGO    R215729  18.468  17.505   6.632  0.0957 -0.0229 -0.0379
 1210ERGO    R315730  18.333  17.360   6.817  0.1097 -0.0885 -0.0820
 1210ERGO    R415731  18.416  17.601   6.960 -0.0666 -0.0634 -0.0528
 1210ERGO    R515732  18.453  17.396   7.021  0.0145 -0.0352 -0.0439
 1210ERGO    C115733  18.258  17.520   7.325 -0.1477 -0.1486 -0.1029
 1210ERGO    C215734  18.162  17.657   7.627 -0.1786 -0.2446  0.1886
 1211ERGO   ROH15735  14.675   0.787   5.818 -0.1845  0.0960 -0.0684
 1211ERGO    R115736  14.706   0.867   6.088 -0.1965  0.1271 -0.0764
 1211ERGO    R215737  14.490   0.916   6.254 -0.2067 -0.1261 -0.0118
 1211ERGO    R315738  14.614   0.735   6.415  0.0530  0.0129 -0.0503
 1211ERGO    R415739  14.481   0.918   6.600  0.0206 -0.0577 -0.0043
 1211ERGO    R515740  14.691   0.863   6.601  0.0698  0.1200 -0.1300
 1211ERGO    C115741  14.592   0.749   6.952  0.3967  0.1126 -0.0360
 1211ERGO    C215742  14.677   0.776   7.354  0.2564  0.2006  0.0895
 1212ERGO   ROH15743   5.225  18.399   6.384 -0.3342  0.2382 -0.1154
 1212ERGO    R115744   5.181  18.533   6.629 -0.5365  0.1299 -0.0869
 1212ERGO    R215745   4.985  18.455   6.809 -0.4194 -0.2151 -0.0808
 1212ERGO    R315746   5.194  18.448   6.983 -0.3861  0.0767 -0.1079
 1212ERGO    R415747   4.958  18.393   7.148 -0.2707 -0.2729 -0.0813
 1212ERGO    R515748   5.108  18.547   7.183 -0.4934 -0.0634 -0.0939
 1212ERGO    C115749   5.137  18.349   7.508 -0.1528 -0.0329 -0.1072
 1212ERGO    C215750   5.177  18.327   7.862 -0.1725 -0.0166 -0.1972
 1213ERGO   ROH15751   1.567  18.045   6.797 -0.1838  0.2896 -0.0025
 1213ERGO    R115752   1.635  18.023   7.071  0.0028  0.1828 -0.0554
 1213ERGO    R215753   1.520  18.180   7.267  0.1013  0.0772  0.0925
 1213ERGO    R315754   1.462  17.940   7.380  0.2224  0.0158  0.0251
 1213ERGO    R415755   1.550  18.109   7.603 -0.0101  0.0438  0.0953
 1213ERGO    R515756   1.629  17.913   7.550  0.1599  0.1108  0.1013
 1213ERGO    C115757   1.513  17.842   7.906  0.0387 -0.0334  0.0336
 1213ERGO    C215758   1.371  17.815   8.288  0.2702  0.0073  0.2978
 1214ERGO   ROH15759   0.701   0.158   6.664 -0.0772  0.1603 -0.1660
 1214ERGO    R115760   0.690   0.184   6.946 -0.2018  0.0798 -0.1637
 1214ERGO    R215761   0.896   0.295   7.094 -0.1644 -0.1847 -0.0187
 1214ERGO    R315762   0.698   0.457   7.187 -0.0455 -0.0055 -0.0692
 1214ERGO    R415763   0.816   0.338   7.427 -0.3455 -0.2863 -0.0462
 1214ERGO    R515764   0.606   0.337   7.372 -0.3161 -0.0108 -0.1990
 1214ERGO    C115765   0.585   0.515   7.709 -0.3393 -0.1773 -0.1096
 1214ERGO    C215766   0.642   0.502   8.001  0.2503  0.4347  0.3071
 1215ERGO   ROH15767   2.436   0.295   6.126 -0.1790  0.2161  0.0014
 1215ERGO    R115768   2.424   0.432   6.374 -0.0352  0.1072  0.0701
 1215ERGO    R215769   2.222   0.389   6.559  0.0112  0.1029  0.1261
 1215ERGO    R315770   2.431   0.340   6.726  0.0553 -0.0605  0.0246
 1215ERGO    R415771   2.200   0.371   6.903  0.1330 -0.1198  0.1238
 1215ERGO    R515772   2.389   0.478   6.917  0.1603 -0.1789  0.1310
 1215ERGO    C115773   2.383   0.315   7.261  0.2454 -0.4029  0.0271
 1215ERGO    C215774   2.263   0.319   7.557 -0.0848  0.2288  0.0234
 1216ERGO   ROH15775   1.960   7.492   6.160 -0.2412 -0.0713 -0.1672
 1216ERGO    R115776   1.835   7.477   6.414 -0.0245 -0.2865 -0.0672
 1216ERGO    R215777   1.940   7.332   6.624  0.4537 -0.0240 -0.1052
 1216ERGO    R315778   1.919   7.569   6.756  0.0472 -0.0277 -0.1532
 1216ERGO    R415779   1.932   7.367   6.968  0.3532  0.0381 -0.1143
 1216ERGO    R515780   1.779   7.520   6.944  0.1033 -0.2174 -0.1634
 1216ERGO    C115781   1.908   7.609   7.292 -0.0870  0.0708 -0.1647
 1216ERGO    C215782   1.983   7.451   7.555  0.0172 -0.1137  0.1148
 1217ERGO   ROH15783   4.429   5.604   6.406  0.0112  0.2466  0.2956
 1217ERGO    R115784   4.585   5.387   6.500 -0.0501  0.1595  0.1967
 1217ERGO    R215785   4.818   5.422   6.646  0.0391  0.0295  0.0872
 1217ERGO    R315786   4.692   5.258   6.823  0.0444  0.0727  0.1315
 1217ERGO    R415787   4.976   5.208   6.866  0.0439  0.0512  0.1052
 1217ERGO    R515788   4.823   5.059   6.825  0.0239  0.0595  0.1501
 1217ERGO    C115789   4.951   4.930   7.160  0.0517  0.1044  0.1573
 1217ERGO    C215790   4.905   4.859   7.490 -0.0061 -0.1187  0.2714
 1218ERGO   ROH15791   9.695   2.788   6.519  0.1145 -0.0592  0.0653
 1218ERGO    R115792   9.561   2.713   6.757  0.0297 -0.0248  0.0284
 1218ERGO    R215793   9.692   2.686   7.000 -0.0308 -0.1316  0.0476
 1218ERGO    R315794   9.502   2.861   7.084  0.0456 -0.0444  0.0409
 1218ERGO    R415795   9.633   2.770   7.330  0.1260  0.0381  0.0345
 1218ERGO    R515796   9.419   2.766   7.288  0.1050  0.0695  0.1219
 1218ERGO    C115797   9.420   2.983   7.602  0.2890  0.2189  0.0206
 1218ERGO    C215798   9.429   2.958   7.908 -0.0883  0.1320 -0.0675
 1219ERGO   ROH15799   1.299   9.220   6.409 -0.1229 -0.1859  0.0202
 1219ERGO    R115800   1.141   9.289   6.634 -0.0754 -0.0206  0.0034
 1219ERGO    R215801   1.238   9.283   6.892 -0.0653  0.0225 -0.0025
 1219ERGO    R315802   1.150   9.540   6.897  0.0684  0.0718 -0.0879
 1219ERGO    R415803   1.208   9.478   7.177 -0.0855  0.0874 -0.0480
 1219ERGO    R515804   1.021   9.556   7.097 -0.0126  0.1739 -0.1447
 1219ERGO    C115805   1.107   9.832   7.346  0.0282  0.1715 -0.1547
 1219ERGO    C215806   1.049  10.109   7.662  0.0936  0.1520 -0.0860
 1220ERGO   ROH15807   3.524  16.707   6.182  0.0703 -0.1696 -0.0523
 1220ERGO    R115808   3.501  16.659   6.460  0.1529  0.0370 -0.0077
 1220ERGO    R215809   3.431  16.413   6.564 -0.2828  0.2247  0.1783
 1220ERGO    R315810   3.661  16.443   6.706 -0.1171 -0.1524  0.0043
 1220ERGO    R415811   3.486  16.286   6.881 -0.2734  0.2047  0.1683
 1220ERGO    R515812   3.588  16.472   6.932  0.1004  0.0370  0.0514
 1220ERGO    C115813   3.734  16.241   7.198 -0.1124 -0.1608 -0.0008
 1220ERGO    C215814   3.877  16.334   7.443 -0.0438 -0.0275  0.1529
 1221ERGO   ROH15815   8.847   2.044   6.356 -0.0555 -0.1215  0.0078
 1221ERGO    R115816   8.786   2.189   6.591 -0.0671 -0.0063 -0.0639
 1221ERGO    R215817   8.613   2.094   6.784 -0.2108  0.1608 -0.0947
 1221ERGO    R315818   8.823   2.140   6.950 -0.2467  0.0839 -0.0360
 1221ERGO    R415819   8.589   2.130   7.127 -0.2650  0.1046 -0.0934
 1221ERGO    R515820   8.736   2.291   7.115 -0.2379  0.0638 -0.0273
 1221ERGO    C115821   8.772   2.194   7.482 -0.3303 -0.0003 -0.0374
 1221ERGO    C215822   8.745   2.355   7.817 -0.1671 -0.2116  0.1629
 1222ERGO   ROH15823  11.941   2.565   6.470 -0.0217 -0.0293  0.0757
 1222ERGO    R115824  11.872   2.504   6.738 -0.0763 -0.1243  0.0406
 1222ERGO    R215825  12.009   2.316   6.888  0.0481 -0.0038  0.0792
 1222ERGO    R315826  12.035   2.522   7.063 -0.2322  0.0063  0.1124
 1222ERGO    R415827  12.164   2.295   7.196  0.2661  0.2020 -0.0120
 1222ERGO    R515828  12.006   2.421   7.278  0.0737 -0.1043  0.1065
 1222ERGO    C115829  12.277   2.475   7.541  0.1298  0.3313 -0.0339
 1222ERGO    C215830  12.594   2.606   7.712  0.3100  0.0775  0.0904
 1223ERGO   ROH15831   5.222  12.356   6.242 -0.0394  0.2333 -0.0309
 1223ERGO    R115832   5.317  12.282   6.498 -0.0769  0.0944 -0.0551
 1223ERGO    R215833   5.437  12.462   6.670  0.1689 -0.0602 -0.0539
 1223ERGO    R315834   5.247  12.375   6.843  0.0937  0.1436 -0.0342
 1223ERGO    R415835   5.427  12.538   7.007  0.3284 -0.1169 -0.0365
 1223ERGO    R515836   5.366  12.333   7.046  0.0790 -0.0473 -0.0672
 1223ERGO    C115837   5.242  12.501   7.366  0.3509  0.0414 -0.0077
 1223ERGO    C215838   5.101  12.677   7.734  0.0069  0.3836 -0.0631
 1224ERGO   ROH15839   5.784   5.618   6.340  0.0464 -0.1831 -0.0098
 1224ERGO    R115840   5.780   5.557   6.616  0.1375 -0.2041 -0.0131
 1224ERGO    R215841   6.011   5.512   6.762  0.2084  0.1245 -0.0193
 1224ERGO    R315842   5.910   5.708   6.921 -0.0764 -0.0288 -0.0054
 1224ERGO    R415843   6.093   5.559   7.094  0.1633  0.2300 -0.0227
 1224ERGO    R515844   5.884   5.604   7.135  0.0926 -0.0823 -0.0074
 1224ERGO    C115845   6.045   5.770   7.437 -0.1302  0.1474 -0.0117
 1224ERGO    C215846   6.210   5.880   7.723 -0.2943 -0.0022 -0.1064
 1225ERGO   ROH15847  17.995   4.182   6.495 -0.0666  0.0282 -0.0026
 1225ERGO    R115848  18.053   4.047   6.737 -0.0610  0.1184  0.0463
 1225ERGO    R215849  18.102   4.181   6.974 -0.2135  0.2028  0.0295
 1225ERGO    R315850  17.903   4.022   7.068 -0.1481  0.1056  0.0067
 1225ERGO    R415851  18.003   4.165   7.304 -0.0828 -0.0203  0.0602
 1225ERGO    R515852  17.982   3.949   7.282 -0.0503 -0.0134 -0.0673
 1225ERGO    C115853  17.758   4.007   7.586  0.0544 -0.2414  0.0565
 1225ERGO    C215854  17.550   3.901   7.889  0.0046  0.2751  0.0802
 1226ERGO   ROH15855   7.894   3.342   6.140 -0.0331 -0.2026 -0.1988
 1226ERGO    R115856   7.913   3.143   6.340 -0.2098 -0.1184 -0.0974
 1226ERGO    R215857   8.094   3.157   6.547 -0.0307 -0.2896 -0.2450
 1226ERGO    R315858   7.872   3.127   6.701  0.0298  0.1584 -0.0533
 1226ERGO    R415859   8.097   3.081   6.884  0.1190 -0.4708 -0.2849
 1226ERGO    R515860   7.928   2.947   6.850 -0.2430 -0.0617 -0.2017
 1226ERGO    C115861   7.890   3.008   7.225  0.2628 -0.1557 -0.1281
 1226ERGO    C215862   7.975   2.910   7.573  0.0994  0.1575 -0.0008
 1227ERGO   ROH15863   5.309   2.884   6.480  0.1986  0.0802  0.0554
 1227ERGO    R115864   5.248   2.947   6.750  0.0557 -0.0286  0.0496
 1227ERGO    R215865   5.444   2.977   6.943 -0.0397  0.0091  0.1393
 1227ERGO    R315866   5.323   3.217   6.981 -0.1719 -0.0600  0.1633
 1227ERGO    R415867   5.409   3.135   7.248  0.0337  0.0397  0.1322
 1227ERGO    R515868   5.208   3.194   7.190 -0.0400 -0.0983  0.2340
 1227ERGO    C115869   5.275   3.452   7.462 -0.0477 -0.0073  0.1506
 1227ERGO    C215870   5.406   3.796   7.581 -0.2319  0.3462  0.2159
 1228ERGO   ROH15871   5.953  16.667   6.775 -0.3340  0.1342 -0.0376
 1228ERGO    R115872   6.022  16.598   7.041 -0.1958 -0.0243 -0.1119
 1228ERGO    R215873   5.949  16.752   7.258  0.1154 -0.0256  0.0037
 1228ERGO    R315874   5.843  16.518   7.348 -0.0423  0.0415 -0.0056
 1228ERGO    R415875   5.909  16.667   7.591 -0.0180  0.0136 -0.0025
 1228ERGO    R515876   5.972  16.465   7.542 -0.1246 -0.0235  0.0283
 1228ERGO    C115877   5.786  16.399   7.869 -0.2437  0.0995 -0.0147
 1228ERGO    C215878   5.544  16.322   8.039 -0.0438 -0.1412  0.1169
 1229ERGO   ROH15879   2.323   4.533   6.452  0.2312 -0.0186 -0.0998
 1229ERGO    R115880   2.236   4.546   6.721  0.1057  0.3850 -0.1557
 1229ERGO    R215881   2.346   4.391   6.921 -0.4983  0.1140 -0.0231
 1229ERGO    R315882   2.383   4.631   7.043  0.1958  0.0742 -0.1087
 1229ERGO    R415883   2.378   4.436   7.262 -0.3529  0.1330 -0.0370
 1229ERGO    R515884   2.254   4.615   7.245  0.1422  0.5003 -0.0926
 1229ERGO    C115885   2.430   4.688   7.575  0.3833  0.1067 -0.1254
 1229ERGO    C215886   2.569   4.557   7.896 -0.1701  0.2089  0.1618
 1230ERGO   ROH15887   9.648  15.438   6.610 -0.0341 -0.0721  0.0682
 1230ERGO    R115888   9.864  15.451   6.792  0.0353  0.0565 -0.0220
 1230ERGO    R215889   9.994  15.688   6.852 -0.0614  0.1305 -0.0969
 1230ERGO    R315890   9.935  15.618   7.108  0.0793  0.1213 -0.0661
 1230ERGO    R415891  10.185  15.768   7.129  0.0907  0.1177 -0.1973
 1230ERGO    R515892  10.147  15.569   7.207  0.1329  0.1162 -0.1838
 1230ERGO    C115893  10.240  15.749   7.530  0.3114  0.1018 -0.2267
 1230ERGO    C215894  10.217  15.781   7.822 -0.1160 -0.1326 -0.1523
 1231ERGO   ROH15895  10.663  18.092   6.400 -0.0977  0.2949 -0.2419
 1231ERGO    R115896  10.471  18.130   6.605 -0.2288  0.3745 -0.3785
 1231ERGO    R215897  10.201  18.163   6.551 -0.3027 -0.3328 -0.5429
 1231ERGO    R315898  10.175  17.955   6.724  0.1134  0.0042 -0.0417
 1231ERGO    R415899   9.934  18.117   6.766 -0.2343 -0.3762 -0.4658
 1231ERGO    R515900  10.075  18.052   6.919 -0.1043  0.2724 -0.2778
 1231ERGO    C115901   9.754  17.895   7.053  0.1962 -0.0849  0.0497
 1231ERGO    C215902   9.544  18.000   7.359  0.2516 -0.2272  0.2630
 1232ERGO   ROH15903   7.201  14.646   6.355  0.0574  0.2115  0.0370
 1232ERGO    R115904   7.262  14.469   6.567 -0.0898  0.0895 -0.0210
 1232ERGO    R215905   7.436  14.537   6.772  0.0459 -0.1585 -0.0554
 1232ERGO    R315906   7.226  14.467   6.929  0.0084  0.0490 -0.0097
 1232ERGO    R415907   7.458  14.458   7.107  0.0545 -0.2152 -0.0685
 1232ERGO    R515908   7.313  14.299   7.075 -0.1281 -0.0629 -0.0498
 1232ERGO    C115909   7.273  14.347   7.451  0.0243 -0.0536 -0.0332
 1232ERGO    C215910   7.252  14.388   7.787  0.2021  0.0487  0.0825
 1233ERGO   ROH15911   7.879   9.047   5.999 -0.2408 -0.3974  0.0582
 1233ERGO    R115912   7.839   9.021   6.278 -0.1437 -0.3444  0.0776
 1233ERGO    R215913   8.026   9.105   6.463 -0.1488 -0.1570  0.0016
 1233ERGO    R315914   7.816   9.245   6.564 -0.2214 -0.2759  0.0177
 1233ERGO    R415915   7.958   9.146   6.800 -0.0364 -0.0332  0.0097
 1233ERGO    R515916   7.746   9.119   6.756 -0.0351 -0.2313  0.1153
 1233ERGO    C115917   7.722   9.301   7.090 -0.0389 -0.0725  0.0297
 1233ERGO    C215918   7.627   9.461   7.444 -0.0919  0.1760  0.1068
 1234ERGO   ROH15919   8.998  12.914   6.315 -0.1072 -0.0770 -0.1270
 1234ERGO    R115920   9.023  13.085   6.539 -0.0489 -0.0367 -0.1653
 1234ERGO    R215921   8.936  13.015   6.791 -0.0672  0.0467 -0.1511
 1234ERGO    R315922   9.191  13.076   6.862 -0.0469 -0.0185 -0.1651
 1234ERGO    R415923   9.038  13.102   7.110 -0.0503  0.1380 -0.1805
 1234ERGO    R515924   9.169  13.252   7.022  0.0098  0.0560 -0.2367
 1234ERGO    C115925   9.337  13.210   7.361 -0.0212  0.1300 -0.2108
 1234ERGO    C215926   9.310  13.212   7.679 -0.2317 -0.3139 -0.0049
 1235ERGO   ROH15927   5.093   6.347   6.341 -0.0778 -0.1138 -0.0073
 1235ERGO    R115928   5.212   6.362   6.598 -0.0335 -0.1499 -0.0254
 1235ERGO    R215929   5.083   6.474   6.815  0.1155  0.0815 -0.0537
 1235ERGO    R315930   5.138   6.234   6.930 -0.1452  0.0604  0.0327
 1235ERGO    R415931   5.143   6.426   7.152  0.4083  0.2059 -0.0854
 1235ERGO    R515932   5.300   6.285   7.099  0.1287 -0.0872 -0.1768
 1235ERGO    C115933   5.229   6.172   7.456  0.3342  0.2585 -0.0228
 1235ERGO    C215934   5.197   5.999   7.823 -0.0392 -0.1862 -0.2531
 1236ERGO   ROH15935  11.493   3.193   6.236  0.0962 -0.2353 -0.2909
 1236ERGO    R115936  11.672   3.280   6.438 -0.0840  0.0773 -0.2587
 1236ERGO    R215937  11.590   3.429   6.655 -0.4264 -0.2295 -0.1655
 1236ERGO    R315938  11.710   3.231   6.796  0.0583 -0.0388 -0.2894
 1236ERGO    R415939  11.660   3.442   6.993 -0.2635 -0.1975 -0.1994
 1236ERGO    R515940  11.851   3.345   6.952 -0.0834  0.1991 -0.3333
 1236ERGO    C115941  11.814   3.262   7.323  0.2865  0.0002 -0.3354
 1236ERGO    C215942  11.920   3.388   7.715  0.1647 -0.0049 -0.0898
 1237ERGO   ROH15943  14.580  12.225   6.061 -0.1404 -0.1392 -0.0702
 1237ERGO    R115944  14.438  12.254   6.304 -0.0801 -0.1361 -0.0350
 1237ERGO    R215945  14.545  12.183   6.548  0.0022 -0.0813 -0.0536
 1237ERGO    R315946  14.480  12.439   6.615 -0.0324 -0.0853 -0.0719
 1237ERGO    R415947  14.447  12.287   6.863  0.0134 -0.0636 -0.0559
 1237ERGO    R515948  14.299  12.416   6.769 -0.0143 -0.0969 -0.0542
 1237ERGO    C115949  14.330  12.587   7.109 -0.0125 -0.0570 -0.0744
 1237ERGO    C215950  14.368  12.626   7.460 -0.0174 -0.3815  0.2962
 1238ERGO   ROH15951   2.572   8.312   6.222  0.0675 -0.1142  0.1360
 1238ERGO    R115952   2.558   8.224   6.491  0.0091 -0.0659  0.1493
 1238ERGO    R215953   2.656   8.373   6.702 -0.0515 -0.0202  0.1464
 1238ERGO    R315954   2.405   8.340   6.800 -0.0733 -0.0194  0.0909
 1238ERGO    R415955   2.552   8.473   7.016 -0.1674  0.1313  0.0614
 1238ERGO    R515956   2.438   8.287   7.031 -0.1315  0.1158  0.1299
 1238ERGO    C115957   2.255   8.499   7.291 -0.2553  0.2202 -0.0401
 1238ERGO    C215958   2.373   8.707   7.597  0.0012  0.3849  0.0032
 1239ERGO   ROH15959   8.831  15.156   6.551 -0.2361  0.1319  0.1670
 1239ERGO    R115960   8.879  14.931   6.715 -0.0598  0.1081  0.0864
 1239ERGO    R215961   8.958  14.953   6.979 -0.1136  0.0762  0.1094
 1239ERGO    R315962   8.743  14.794   7.024  0.0163 -0.1299  0.0156
 1239ERGO    R415963   8.852  14.850   7.291 -0.3730  0.2891  0.0938
 1239ERGO    R515964   8.810  14.653   7.206 -0.0364  0.1453  0.2517
 1239ERGO    C115965   8.588  14.642   7.516 -0.4020  0.2195 -0.0034
 1239ERGO    C215966   8.573  14.444   7.754 -0.3908 -0.2038 -0.2229
 1240ERGO   ROH15967   2.061   5.481   6.394  0.0382  0.3194 -0.0497
 1240ERGO    R115968   2.070   5.405   6.666  0.0577  0.1700 -0.0914
 1240ERGO    R215969   2.300   5.424   6.819  0.0318  0.2208 -0.0624
 1240ERGO    R315970   2.140   5.569   6.984 -0.0693  0.0323  0.0097
 1240ERGO    R415971   2.367   5.490   7.151 -0.0711  0.0025  0.0042
 1240ERGO    R515972   2.156   5.458   7.195 -0.0709 -0.1204 -0.0671
 1240ERGO    C115973   2.257   5.665   7.500 -0.2260 -0.3015  0.1107
 1240ERGO    C215974   2.203   5.878   7.772 -0.1007  0.1198  0.4639
 1241ERGO   ROH15975   2.042   7.929   6.422 -0.0938 -0.1155 -0.1775
 1241ERGO    R115976   2.026   8.053   6.676 -0.2623 -0.0481 -0.2203
 1241ERGO    R215977   1.816   8.008   6.850 -0.1568 -0.3509 -0.1711
 1241ERGO    R315978   2.015   7.943   7.023 -0.0092  0.0581 -0.1757
 1241ERGO    R415979   1.799   8.044   7.194 -0.1986 -0.3049 -0.1774
 1241ERGO    R515980   2.006   8.113   7.191 -0.3166  0.0874 -0.2114
 1241ERGO    C115981   1.978   8.005   7.556 -0.0845  0.1058 -0.1853
 1241ERGO    C215982   1.859   8.177   7.861 -0.0689 -0.3841  0.2660
 1242ERGO   ROH15983  10.285   3.390   6.171  0.1275 -0.2243 -0.0329
 1242ERGO    R115984  10.388   3.261   6.401 -0.0884 -0.2785  0.0354
 1242ERGO    R215985  10.543   3.393   6.589  0.0607 -0.4165  0.0066
 1242ERGO    R315986  10.356   3.298   6.762 -0.1003 -0.0935  0.0174
 1242ERGO    R415987  10.543   3.449   6.930  0.2326 -0.4759  0.0178
 1242ERGO    R515988  10.480   3.243   6.959 -0.1641 -0.3723 -0.0131
 1242ERGO    C115989  10.367   3.393   7.291  0.1815 -0.2072  0.0344
 1242ERGO    C215990  10.241   3.424   7.540 -0.3702 -0.3104  0.0756
 1243ERGO   ROH15991   4.056   3.551   6.618 -0.1223 -0.0215  0.0361
 1243ERGO    R115992   3.983   3.420   6.858 -0.0545  0.0385  0.0905
 1243ERGO    R215993   4.142   3.228   6.977 -0.0555  0.0093  0.0533
 1243ERGO    R315994   4.119   3.390   7.194  0.0875  0.0555  0.0341
 1243ERGO    R415995   4.275   3.161   7.289  0.1224  0.0703 -0.0087
 1243ERGO    R515996   4.092   3.240   7.379  0.1853  0.1019  0.0824
 1243ERGO    C115997   4.330   3.275   7.675  0.3601  0.1493 -0.0629
 1243ERGO    C215998   4.260   3.363   8.051 -0.1786 -0.1079  0.1044
 1244ERGO   ROH15999  11.935   7.380   6.089  0.0012  0.0690  0.0478
 1244ERGO    R116000  11.888   7.442   6.361 -0.1164  0.1301  0.0139
 1244ERGO    R216001  12.078   7.405   6.558 -0.2458  0.0572  0.1227
 1244ERGO    R316002  12.030   7.667   6.610 -0.1369  0.0891  0.0648
 1244ERGO    R416003  12.186   7.572   6.840 -0.2175  0.0499  0.1160
 1244ERGO    R516004  11.993   7.675   6.846 -0.1778  0.1416  0.0610
 1244ERGO    C116005  12.204   7.917   7.053 -0.0987  0.0756  0.0578
 1244ERGO    C216006  12.264   8.065   7.365 -0.0170  0.0722  0.0917
 1245ERGO   ROH16007   3.788  10.277   6.302  0.0245 -0.0812 -0.1367
 1245ERGO    R116008   3.960  10.163   6.496  0.0534 -0.0578 -0.1480
 1245ERGO    R216009   4.203  10.275   6.563  0.0152  0.0132 -0.1159
 1245ERGO    R316010   4.102  10.264   6.815  0.0027 -0.0640 -0.1243
 1245ERGO    R416011   4.386  10.200   6.847  0.0235  0.0611 -0.1088
 1245ERGO    R516012   4.218  10.082   6.919  0.0745 -0.0220 -0.1364
 1245ERGO    C116013   4.398  10.148   7.249  0.0166  0.0165 -0.1127
 1245ERGO    C216014   4.550  10.184   7.481 -0.1178 -0.0474  0.1691
 1246ERGO   ROH16015   8.308  15.887   6.586  0.0555  0.0948  0.1513
 1246ERGO    R116016   8.465  15.775   6.793  0.1557  0.0928  0.0758
 1246ERGO    R216017   8.544  15.920   7.015  0.1223  0.0457  0.1199
 1246ERGO    R316018   8.427  15.715   7.150  0.2559 -0.0718  0.0599
 1246ERGO    R416019   8.598  15.847   7.348  0.0869  0.0522  0.1266
 1246ERGO    R516020   8.598  15.635   7.297  0.2825  0.0567  0.1001
 1246ERGO    C116021   8.519  15.613   7.669  0.1918 -0.0545  0.0742
 1246ERGO    C216022   8.407  15.360   7.986  0.1169  0.0754 -0.0126
 1247ERGO   ROH16023   8.820   3.211   6.315 -0.3924  0.0741 -0.2776
 1247ERGO    R116024   8.785   3.250   6.593 -0.1611 -0.1557 -0.2120
 1247ERGO    R216025   8.597   3.424   6.697  0.1178 -0.0196  0.0838
 1247ERGO    R316026   8.517   3.205   6.835 -0.0623 -0.0619 -0.0834
 1247ERGO    R416027   8.486   3.427   7.024  0.3562 -0.2058  0.1693
 1247ERGO    R516028   8.597   3.243   7.058  0.1489 -0.3874 -0.0971
 1247ERGO    C116029   8.346   3.223   7.344  0.3259 -0.3540  0.0621
 1247ERGO    C216030   8.336   3.267   7.644  0.2612  0.2372 -0.0331
 1248ERGO   ROH16031   6.779   2.246   6.216 -0.0085  0.0076  0.0617
 1248ERGO    R116032   6.697   2.300   6.481  0.1835 -0.0140  0.1272
 1248ERGO    R216033   6.509   2.146   6.612  0.0020  0.1944  0.1143
 1248ERGO    R316034   6.704   2.126   6.801  0.0555 -0.2083  0.0270
 1248ERGO    R416035   6.456   2.065   6.944  0.0196  0.0536  0.0840
 1248ERGO    R516036   6.604   2.215   6.999  0.2607 -0.1903  0.1252
 1248ERGO    C116037   6.609   2.000   7.314  0.0801 -0.4064 -0.0156
 1248ERGO    C216038   6.685   1.883   7.595  0.2123 -0.3030  0.0416
 1249ERGO   ROH16039  14.089   5.070   5.866 -0.0766 -0.1288 -0.0461
 1249ERGO    R116040  13.876   5.073   6.053 -0.1385 -0.3134 -0.1107
 1249ERGO    R216041  13.795   4.848   6.191  0.3487 -0.2907  0.2362
 1249ERGO    R316042  13.835   5.006   6.408 -0.0660  0.1698 -0.0036
 1249ERGO    R416043  13.642   4.804   6.497  0.5171 -0.2763  0.3232
 1249ERGO    R516044  13.619   5.020   6.511 -0.1072 -0.2972 -0.0034
 1249ERGO    C116045  13.591   4.927   6.880  0.2260  0.1644  0.1486
 1249ERGO    C216046  13.586   4.854   7.234  0.0807  0.1426  0.0508
 1250ERGO   ROH16047  14.360  15.222   6.100 -0.0258 -0.0678  0.0643
 1250ERGO    R116048  14.288  15.386   6.320  0.0311  0.0271  0.0137
 1250ERGO    R216049  14.419  15.375   6.563 -0.0326 -0.0096  0.0501
 1250ERGO    R316050  14.450  15.642   6.522  0.1563 -0.0387 -0.0031
 1250ERGO    R416051  14.373  15.618   6.804 -0.0492  0.0856 -0.0494
 1250ERGO    R516052  14.276  15.742   6.653  0.1285  0.1032 -0.1484
 1250ERGO    C116053  14.374  16.010   6.906  0.1185  0.1136 -0.1573
 1250ERGO    C216054  14.469  16.213   7.125 -0.0926  0.1327 -0.1986
 1251ERGO   ROH16055  11.389  14.305   6.423 -0.0757 -0.0401 -0.0473
 1251ERGO    R116056  11.427  14.417   6.680 -0.0917  0.0175 -0.0702
 1251ERGO    R216057  11.409  14.268   6.912  0.0243  0.0427 -0.0467
 1251ERGO    R316058  11.657  14.370   6.959 -0.0205  0.1790 -0.0991
 1251ERGO    R416059  11.546  14.320   7.225  0.1029 -0.0017 -0.0734
 1251ERGO    R516060  11.629  14.508   7.152 -0.0397  0.0841 -0.0306
 1251ERGO    C116061  11.858  14.445   7.451  0.1068  0.1004 -0.1382
 1251ERGO    C216062  12.053  14.314   7.738 -0.2463 -0.0480  0.0243
 1252ERGO   ROH16063  12.562   8.737   5.699 -0.2917 -0.0986  0.0159
 1252ERGO    R116064  12.391   8.736   5.925 -0.1899 -0.1308  0.0945
 1252ERGO    R216065  12.427   8.563   6.138 -0.0142 -0.0733  0.1180
 1252ERGO    R316066  12.426   8.793   6.283 -0.0514 -0.0422  0.0665
 1252ERGO    R416067  12.442   8.580   6.483 -0.2149  0.0059  0.1229
 1252ERGO    R516068  12.295   8.741   6.477 -0.1747  0.0327  0.0009
 1252ERGO    C116069  12.449   8.807   6.820 -0.3666  0.0812  0.0775
 1252ERGO    C216070  12.365   8.828   7.168 -0.0062 -0.2984 -0.0822
 1253ERGO   ROH16071  10.867   2.089   6.661  0.0196 -0.0476  0.1730
 1253ERGO    R116072  10.955   1.895   6.847  0.0612 -0.0442  0.1569
 1253ERGO    R216073  11.219   1.878   6.931  0.0569  0.0284  0.1826
 1253ERGO    R316074  11.107   1.897   7.178  0.0253 -0.0404  0.1738
 1253ERGO    R416075  11.390   1.852   7.230  0.0263 -0.0283  0.1955
 1253ERGO    R516076  11.225   1.737   7.311  0.0252 -0.0631  0.1487
 1253ERGO    C116077  11.385   1.855   7.636 -0.0213 -0.1259  0.1946
 1253ERGO    C216078  11.365   1.985   7.842 -0.1029  0.1269 -0.2722
 1254ERGO   ROH16079   8.625   7.723   5.900 -0.2902 -0.2236 -0.0759
 1254ERGO    R116080   8.575   7.549   6.118 -0.1582 -0.1371  0.0245
 1254ERGO    R216081   8.765   7.494   6.311 -0.0867  0.0494  0.0096
 1254ERGO    R316082   8.570   7.576   6.481 -0.0854  0.0447  0.0132
 1254ERGO    R416083   8.718   7.371   6.630 -0.1614 -0.0480 -0.0383
 1254ERGO    R516084   8.503   7.376   6.595 -0.1555  0.0238 -0.0640
 1254ERGO    C116085   8.508   7.376   6.976 -0.2037 -0.1092 -0.0628
 1254ERGO    C216086   8.539   7.101   7.280  0.2937 -0.0906  0.3370
 1255ERGO   ROH16087   6.108  16.212   6.808  0.0224 -0.1552 -0.0684
 1255ERGO    R116088   6.085  16.171   7.087  0.0287  0.0513 -0.0353
 1255ERGO    R216089   6.071  15.919   7.200 -0.1614  0.1344  0.1379
 1255ERGO    R316090   6.280  16.009   7.348 -0.0648  0.0651  0.0433
 1255ERGO    R416091   6.148  15.811   7.519 -0.0349  0.0878  0.0913
 1255ERGO    R516092   6.196  16.017   7.572  0.0470  0.0698  0.0849
 1255ERGO    C116093   6.390  15.833   7.843  0.1295 -0.0044 -0.0247
 1255ERGO    C216094   6.610  15.838   8.064 -0.1323 -0.0753 -0.0980
 1256ERGO   ROH16095  17.666   8.503   5.856  0.2019  0.0822  0.0940
 1256ERGO    R116096  17.602   8.671   6.075  0.1213  0.1293  0.0335
 1256ERGO    R216097  17.349   8.774   6.115  0.0567 -0.0472  0.0412
 1256ERGO    R316098  17.378   8.661   6.361  0.1908  0.0865  0.0896
 1256ERGO    R416099  17.150   8.843   6.389 -0.0033 -0.1196  0.0170
 1256ERGO    R516100  17.329   8.838   6.514  0.0196  0.1158  0.0123
 1256ERGO    C116101  17.061   8.777   6.779  0.0878 -0.0361  0.0483
 1256ERGO    C216102  16.910   8.679   6.901  0.3121 -0.3799  0.0391
 1257ERGO   ROH16103   9.148  17.401   6.393  0.1835 -0.1853  0.0110
 1257ERGO    R116104   9.161  17.390   6.676  0.1546 -0.1466  0.0136
 1257ERGO    R216105   8.951  17.469   6.837  0.1984  0.0297 -0.0164
 1257ERGO    R316106   8.981  17.220   6.943  0.0133  0.0257  0.0307
 1257ERGO    R416107   8.736  17.325   7.066 -0.1087  0.0959 -0.2576
 1257ERGO    R516108   8.909  17.244   7.170 -0.2470  0.0551 -0.0500
 1257ERGO    C116109   8.638  17.007   7.297 -0.4612  0.1306 -0.3538
 1257ERGO    C216110   8.584  16.764   7.376 -0.2647  0.1473 -0.1563
 1258ERGO   ROH16111  12.089   0.068   6.292  0.1224 -0.2455 -0.1746
 1258ERGO    R116112  12.225   0.044   6.539  0.0806 -0.1420 -0.1416
 1258ERGO    R216113  12.213   0.238   6.735 -0.0394 -0.1105 -0.1848
 1258ERGO    R316114  12.133   0.030   6.891  0.0149 -0.1109 -0.1561
 1258ERGO    R416115  12.270   0.212   7.075 -0.0308 -0.0406 -0.1801
 1258ERGO    R516116  12.312   0.000   7.047  0.0271 -0.0378 -0.1508
 1258ERGO    C116117  12.228   0.001   7.419  0.0252 -0.0003 -0.1505
 1258ERGO    C216118  12.130   0.132   7.718  0.0164  0.0228  0.3597
 1259ERGO   ROH16119   2.440   1.277   6.641  0.0457 -0.0263 -0.0153
 1259ERGO    R116120   2.446   1.447   6.867 -0.0802 -0.0621  0.0152
 1259ERGO    R216121   2.372   1.361   7.119 -0.0066 -0.1654  0.0011
 1259ERGO    R316122   2.618   1.455   7.188 -0.0766  0.0148  0.0120
 1259ERGO    R416123   2.486   1.399   7.443 -0.0939  0.0320  0.0098
 1259ERGO    R516124   2.579   1.587   7.383 -0.1983  0.0686 -0.0463
 1259ERGO    C116125   2.783   1.510   7.696 -0.2105  0.3160  0.0251
 1259ERGO    C216126   2.987   1.406   7.960  0.1282 -0.1073 -0.0086
 1260ERGO   ROH16127   9.503   5.329   5.991 -0.1027  0.0514 -0.0047
 1260ERGO    R116128   9.631   5.214   6.216  0.0972  0.1238 -0.0772
 1260ERGO    R216129   9.838   5.338   6.350 -0.0420  0.3534 -0.0549
 1260ERGO    R316130   9.678   5.299   6.567  0.0369  0.0386 -0.0504
 1260ERGO    R416131   9.923   5.416   6.676 -0.0096  0.0428  0.0123
 1260ERGO    R516132   9.828   5.230   6.740  0.1073 -0.0698 -0.1617
 1260ERGO    C116133   9.823   5.424   7.069  0.0835 -0.4335  0.0556
 1260ERGO    C216134   9.656   5.637   7.345 -0.3567  0.0132  0.1037
 1261ERGO   ROH16135  15.651  11.377   6.175 -0.0678 -0.0792  0.0073
 1261ERGO    R116136  15.760  11.249   6.402 -0.0209  0.0338  0.0522
 1261ERGO    R216137  15.648  11.269   6.653 -0.0515  0.0475  0.0484
 1261ERGO    R316138  15.652  10.997   6.643  0.0771  0.0492  0.1092
 1261ERGO    R416139  15.708  11.063   6.924  0.0099  0.1264  0.0926
 1261ERGO    R516140  15.828  10.936   6.794  0.0810  0.1585  0.1404
 1261ERGO    C116141  15.746  10.688   7.072  0.1663  0.1740  0.1754
 1261ERGO    C216142  15.707  10.660   7.398 -0.0885  0.0239 -0.1474
 1262ERGO   ROH16143  12.804  15.128   6.081  0.0264 -0.2291  0.0438
 1262ERGO    R116144  12.902  15.177   6.342  0.0530 -0.3334  0.0517
 1262ERGO    R216145  12.772  15.341   6.522  0.3112 -0.0332 -0.0367
 1262ERGO    R316146  12.787  15.123   6.683 -0.1372 -0.0159  0.0435
 1262ERGO    R416147  12.814  15.352   6.865  0.3714  0.0126 -0.0435
 1262ERGO    R516148  12.950  15.182   6.848  0.0172 -0.2950  0.0029
 1262ERGO    C116149  12.852  15.153   7.216 -0.0145  0.0555  0.0279
 1262ERGO    C216150  12.591  15.113   7.570  0.0957 -0.3317  0.0889
 1263ERGO   ROH16151  18.293  15.122   6.126 -0.0650 -0.1959 -0.0175
 1263ERGO    R116152  18.381  15.282   6.342 -0.0050 -0.0789 -0.1268
 1263ERGO    R216153  18.307  15.232   6.603 -0.0622  0.1560 -0.0954
 1263ERGO    R316154  18.576  15.232   6.645 -0.0659  0.0443 -0.0667
 1263ERGO    R416155  18.462  15.349   6.889 -0.0284  0.3932 -0.2089
 1263ERGO    R516156  18.617  15.437   6.763  0.0400  0.1586 -0.2946
 1263ERGO    C116157  18.805  15.418   7.095 -0.0122  0.4263 -0.2480
 1263ERGO    C216158  18.820  15.471   7.369  0.1902  0.2392  0.3295
 1264ERGO   ROH16159  10.302  14.586   6.552 -0.1125 -0.0303 -0.0259
 1264ERGO    R116160  10.386  14.640   6.817 -0.0263 -0.0270 -0.0533
 1264ERGO    R216161  10.212  14.639   7.032  0.0141  0.1246 -0.0168
 1264ERGO    R316162  10.390  14.462   7.135 -0.0738  0.0345 -0.0186
 1264ERGO    R416163  10.284  14.605   7.368 -0.2214 -0.1273  0.0119
 1264ERGO    R516164  10.494  14.581   7.315 -0.1875 -0.1064  0.1415
 1264ERGO    C116165  10.494  14.419   7.660 -0.4410 -0.3586  0.0270
 1264ERGO    C216166  10.554  14.377   7.961 -0.0494 -0.2109 -0.0267
 1265ERGO   ROH16167   2.888   3.298   6.536  0.1605  0.0468  0.0539
 1265ERGO    R116168   2.888   3.146   6.775  0.1409 -0.0000  0.0234
 1265ERGO    R216169   3.093   3.162   6.960  0.1040 -0.0076  0.0584
 1265ERGO    R316170   2.889   3.216   7.132  0.0691 -0.0735  0.0395
 1265ERGO    R416171   3.124   3.178   7.304  0.1588  0.3753  0.0397
 1265ERGO    R516172   2.933   3.075   7.321  0.2768  0.1611  0.1765
 1265ERGO    C116173   2.952   3.239   7.666  0.1580  0.5363  0.0111
 1265ERGO    C216174   2.681   3.253   7.913  0.2541 -0.2243 -0.0609
 1266ERGO   ROH16175  16.728  15.193   6.111  0.1037 -0.0515  0.0597
 1266ERGO    R116176  16.831  15.296   6.354  0.0604 -0.1391  0.1158
 1266ERGO    R216177  16.801  15.561   6.428  0.2384 -0.1138  0.1022
 1266ERGO    R316178  16.695  15.452   6.654  0.0281 -0.0312  0.0455
 1266ERGO    R416179  16.726  15.737   6.716  0.2361 -0.0569  0.0669
 1266ERGO    R516180  16.802  15.570   6.832  0.0349 -0.1258  0.1041
 1266ERGO    C116181  16.582  15.737   7.095  0.0373  0.0538 -0.0069
 1266ERGO    C216182  16.494  15.911   7.257 -0.2748  0.1511  0.0859
 1267ERGO   ROH16183  13.441   0.850   6.384  0.0051  0.0165 -0.0560
 1267ERGO    R116184  13.556   0.777   6.632  0.0128  0.0038 -0.0639
 1267ERGO    R216185  13.593   0.957   6.838  0.0261 -0.0067 -0.0612
 1267ERGO    R316186  13.451   0.774   6.981  0.0286 -0.0073 -0.0583
 1267ERGO    R416187  13.598   0.929   7.182 -0.0421  0.0648 -0.0536
 1267ERGO    R516188  13.598   0.712   7.160  0.0049  0.0566 -0.0127
 1267ERGO    C116189  13.468   0.741   7.517 -0.0796  0.1059 -0.0464
 1267ERGO    C216190  13.467   0.554   7.862  0.4888  0.0876  0.1454
 1268ERGO   ROH16191   2.887  15.833   6.155 -0.0871 -0.0847 -0.1558
 1268ERGO    R116192   2.852  15.810   6.435 -0.0012 -0.1763 -0.1512
 1268ERGO    R216193   2.640  15.927   6.569  0.2470  0.1174  0.0058
 1268ERGO    R316194   2.601  15.674   6.660 -0.1408  0.1258 -0.1193
 1268ERGO    R416195   2.533  15.846   6.887  0.2173  0.1224 -0.0038
 1268ERGO    R516196   2.675  15.681   6.888 -0.0517 -0.1173 -0.1383
 1268ERGO    C116197   2.434  15.562   7.159 -0.1641  0.1331 -0.1268
 1268ERGO    C216198   2.432  15.457   7.483 -0.1717  0.2287  0.0062
 1269ERGO   ROH16199  12.932   8.097   6.241 -0.0148 -0.1788  0.0723
 1269ERGO    R116200  12.961   8.198   6.503  0.0411 -0.1116  0.0391
 1269ERGO    R216201  12.807   8.407   6.600  0.0817 -0.0713  0.0074
 1269ERGO    R316202  12.751   8.230   6.799  0.0963 -0.0096  0.0684
 1269ERGO    R416203  12.729   8.494   6.925 -0.0560  0.0370 -0.0521
 1269ERGO    R516204  12.852   8.327   6.994 -0.0040  0.1182  0.0588
 1269ERGO    C116205  12.632   8.380   7.301 -0.1225  0.1578 -0.0295
 1269ERGO    C216206  12.519   8.467   7.569 -0.1212  0.1072 -0.2807
 1270ERGO   ROH16207   9.849   4.259   5.989  0.0170 -0.1667  0.0657
 1270ERGO    R116208   9.854   4.354   6.255 -0.1606 -0.0418  0.0272
 1270ERGO    R216209   9.675   4.269   6.448 -0.0866 -0.2009  0.0322
 1270ERGO    R316210   9.902   4.211   6.587 -0.0292  0.1610  0.0967
 1270ERGO    R416211   9.706   4.280   6.792 -0.1747 -0.0841  0.0360
 1270ERGO    R516212   9.903   4.368   6.767 -0.2972  0.2011  0.0639
 1270ERGO    C116213   9.936   4.233   7.122 -0.1722  0.3236  0.0988
 1270ERGO    C216214   9.921   4.285   7.447 -0.0223 -0.3410 -0.0088
 1271ERGO   ROH16215  14.014   9.145   6.071 -0.0133 -0.1262  0.1273
 1271ERGO    R116216  14.011   9.236   6.339  0.0003 -0.2481  0.1686
 1271ERGO    R216217  13.811   9.396   6.440  0.1875 -0.0058  0.1510
 1271ERGO    R316218  13.792   9.201   6.628 -0.1794 -0.0688  0.0585
 1271ERGO    R416219  13.603   9.409   6.716  0.2244  0.2821  0.1688
 1271ERGO    R516220  13.764   9.322   6.834  0.0738 -0.0985  0.1189
 1271ERGO    C116221  13.465   9.234   7.054 -0.0986  0.3907  0.0923
 1271ERGO    C216222  13.393   9.249   7.317  0.2113  0.0043 -0.0935
 1272ERGO   ROH16223   0.937   7.654   5.944 -0.1877 -0.2831 -0.0272
 1272ERGO    R116224   0.855   7.609   6.211 -0.1378 -0.1836  0.0052
 1272ERGO    R216225   0.947   7.396   6.362 -0.0335 -0.0699  0.1001
 1272ERGO    R316226   1.014   7.592   6.538 -0.0931  0.0445 -0.0021
 1272ERGO    R416227   0.927   7.368   6.705  0.1475  0.0312  0.1201
 1272ERGO    R516228   0.852   7.573   6.713 -0.0010 -0.0162  0.0809
 1272ERGO    C116229   0.979   7.536   7.071  0.1970  0.1974  0.0357
 1272ERGO    C216230   0.685   7.593   7.345 -0.1361 -0.0760 -0.0528
 1273ERGO   ROH16231   5.571   0.794   6.311  0.1811 -0.0470  0.0607
 1273ERGO    R116232   5.659   0.732   6.573  0.1309 -0.0484  0.0781
 1273ERGO    R216233   5.717   0.926   6.759  0.0801 -0.0468  0.0990
 1273ERGO    R316234   5.539   0.789   6.912  0.0545 -0.0637  0.0526
 1273ERGO    R416235   5.701   0.942   7.104  0.0321 -0.1129  0.0993
 1273ERGO    R516236   5.665   0.726   7.107  0.0206 -0.1065  0.0564
 1273ERGO    C116237   5.524   0.822   7.449 -0.0199 -0.1672  0.0560
 1273ERGO    C216238   5.593   0.856   7.756 -0.1184  0.0073  0.2338
 1274ERGO   ROH16239  17.315   0.140   6.219  0.1817  0.1571  0.0715
 1274ERGO    R116240  17.179   0.095   6.463  0.1801  0.1681  0.0726
 1274ERGO    R216241  17.146  -0.158   6.570  0.0534  0.1583  0.0103
 1274ERGO    R316242  17.260  -0.044   6.789  0.1354  0.0398  0.0299
 1274ERGO    R416243  17.176  -0.310   6.879 -0.1055  0.1016 -0.0013
 1274ERGO    R516244  17.126  -0.119   6.972  0.0525  0.1390  0.0118
 1274ERGO    C116245  17.301  -0.292   7.264 -0.1212 -0.0427  0.0103
 1274ERGO    C216246  17.348  -0.287   7.673 -0.4520 -0.0149  0.2945
 1275ERGO   ROH16247   5.081   3.913   6.324 -0.0531  0.0137  0.0560
 1275ERGO    R116248   4.988   3.801   6.566  0.0589 -0.0434  0.0733
 1275ERGO    R216249   5.157   3.737   6.775  0.1297  0.1163  0.0665
 1275ERGO    R316250   4.988   3.894   6.918  0.0080 -0.0115  0.0652
 1275ERGO    R416251   5.120   3.724   7.118  0.1277  0.0762  0.0646
 1275ERGO    R516252   4.905   3.750   7.090  0.1078 -0.0804  0.0576
 1275ERGO    C116253   4.939   3.865   7.452  0.0122 -0.0670  0.0623
 1275ERGO    C216254   5.011   3.819   7.841  0.0671 -0.1203  0.0679
 1276ERGO   ROH16255   4.225   6.677   6.835 -0.2775 -0.2007  0.1310
 1276ERGO    R116256   4.115   6.730   7.090 -0.2277 -0.0407  0.1202
 1276ERGO    R216257   4.231   6.639   7.323 -0.2429  0.0121  0.1459
 1276ERGO    R316258   4.219   6.902   7.393 -0.1220  0.0482  0.0352
 1276ERGO    R416259   4.224   6.756   7.648 -0.1765  0.1465  0.0999
 1276ERGO    R516260   4.077   6.905   7.586 -0.1148  0.1892  0.0424
 1276ERGO    C116261   4.210   7.070   7.904 -0.0243  0.2586 -0.0308
 1276ERGO    C216262   4.265   7.220   8.277  0.2834  0.3175  0.0297
 1277ERGO   ROH16263   9.804  11.271   6.129  0.0255 -0.2736  0.0577
 1277ERGO    R116264   9.898  11.151   6.367  0.1045 -0.1097  0.1095
 1277ERGO    R216265  10.133  11.230   6.491  0.0795  0.0594  0.0450
 1277ERGO    R316266   9.970  11.261   6.707  0.0908  0.0941  0.0491
 1277ERGO    R416267  10.242  11.259   6.817  0.0921 -0.2213  0.0682
 1277ERGO    R516268  10.076  11.132   6.879 -0.0361 -0.1032 -0.0130
 1277ERGO    C116269  10.154  11.304   7.210  0.1101 -0.3521  0.0855
 1277ERGO    C216270  10.298  11.528   7.269 -0.0358 -0.0536  0.0733
 1278ERGO   ROH16271   1.492   8.881   6.135 -0.0310  0.1996  0.0756
 1278ERGO    R116272   1.525   8.805   6.406 -0.0940  0.0364  0.0396
 1278ERGO    R216273   1.716   8.920   6.569 -0.0207 -0.1770  0.1100
 1278ERGO    R316274   1.502   8.969   6.730  0.0035 -0.1131  0.1221
 1278ERGO    R416275   1.735   8.982   6.909  0.0226 -0.0701  0.0880
 1278ERGO    R516276   1.557   8.859   6.936  0.0205 -0.0494  0.1496
 1278ERGO    C116277   1.545   9.065   7.257  0.0704  0.0519  0.0866
 1278ERGO    C216278   1.515   9.133   7.589  0.0030  0.5114  0.0655
 1279ERGO   ROH16279  12.428   4.823   5.897  0.0260 -0.0675 -0.3036
 1279ERGO    R116280  12.505   4.818   6.169  0.0240  0.0006 -0.3018
 1279ERGO    R216281  12.360   4.685   6.363 -0.0667  0.1859 -0.2412
 1279ERGO    R316282  12.598   4.564   6.413 -0.1483  0.0441 -0.1893
 1279ERGO    R416283  12.459   4.566   6.671 -0.2156  0.0970 -0.2262
 1279ERGO    R516284  12.659   4.642   6.631 -0.1606 -0.0132 -0.1652
 1279ERGO    C116285  12.741   4.382   6.898 -0.3787 -0.0880 -0.1688
 1279ERGO    C216286  12.799   4.343   7.264 -0.1838  0.3094  0.4519
 1280ERGO   ROH16287   4.847  10.837   6.309 -0.0332  0.2183  0.1402
 1280ERGO    R116288   4.978  10.928   6.543  0.0173  0.1306  0.1468
 1280ERGO    R216289   4.941  10.809   6.790  0.0558  0.0498  0.1151
 1280ERGO    R316290   5.212  10.790   6.785  0.0534  0.0322  0.0565
 1280ERGO    R416291   5.135  10.689   7.049  0.1185  0.2267  0.1514
 1280ERGO    R516292   5.280  10.847   7.008  0.1161  0.1896 -0.0015
 1280ERGO    C116293   5.503  10.601   7.196  0.1528  0.3132  0.1175
 1280ERGO    C216294   5.546  10.369   7.508  0.3734  0.0519 -0.0013
 1281ERGO   ROH16295  11.577   9.183   6.201  0.0390  0.0672  0.1322
 1281ERGO    R116296  11.545   9.321   6.446  0.0731  0.0231  0.1619
 1281ERGO    R216297  11.370   9.237   6.643  0.0529  0.0230  0.1457
 1281ERGO    R316298  11.592   9.247   6.799  0.0568 -0.0640  0.1457
 1281ERGO    R416299  11.369   9.255   6.988  0.0602  0.0983  0.1417
 1281ERGO    R516300  11.534   9.396   6.977  0.1368  0.0059  0.1128
 1281ERGO    C116301  11.577   9.274   7.335  0.0682  0.0605  0.1394
 1281ERGO    C216302  11.807   9.256   7.642  0.0108  0.2207  0.0390
 1282ERGO   ROH16303   5.947   0.577   6.198  0.2173  0.0145 -0.0549
 1282ERGO    R116304   6.080   0.556   6.447  0.1069 -0.1548 -0.0087
 1282ERGO    R216305   6.113   0.771   6.618  0.3264 -0.1921  0.0015
 1282ERGO    R316306   5.994   0.605   6.797  0.0494 -0.0413 -0.0388
 1282ERGO    R416307   6.149   0.793   6.961  0.2720 -0.2642  0.0115
 1282ERGO    R516308   6.159   0.576   6.969 -0.0324 -0.2814  0.0009
 1282ERGO    C116309   6.058   0.651   7.329 -0.0198 -0.1647 -0.0205
 1282ERGO    C216310   5.958   0.581   7.580  0.1723  0.1456  0.0153
 1283ERGO   ROH16311  10.011  12.816   6.354  0.1648 -0.0597 -0.1170
 1283ERGO    R116312   9.957  12.651   6.578  0.1492 -0.0494 -0.1122
 1283ERGO    R216313  10.157  12.552   6.741  0.1340  0.0319 -0.0376
 1283ERGO    R316314  10.011  12.669   6.938  0.0376  0.0131 -0.0989
 1283ERGO    R416315  10.174  12.469   7.076 -0.1297 -0.0893 -0.0531
 1283ERGO    R516316   9.957  12.490   7.087 -0.1292 -0.0188 -0.1971
 1283ERGO    C116317  10.045  12.530   7.456 -0.3739 -0.1775 -0.1196
 1283ERGO    C216318   9.931  12.648   7.814 -0.3583  0.0079 -0.1402
 1284ERGO   ROH16319  12.466   1.562   8.006 -0.1730  0.1371 -0.1302
 1284ERGO    R116320  12.206   1.458   8.050 -0.0857 -0.1732 -0.3097
 1284ERGO    R216321  12.138   1.197   7.991  0.3897 -0.3964  0.0487
 1284ERGO    R316322  12.059   1.193   8.251  0.0455 -0.0466 -0.0429
 1284ERGO    R416323  11.976   0.933   8.146  0.2347 -0.2086  0.2113
 1284ERGO    R516324  11.850   1.077   8.249  0.0703 -0.0847 -0.1548
 1284ERGO    C116325  11.808   0.777   8.480 -0.1787  0.2290  0.2200
 1284ERGO    C216326  11.812   0.496   8.607 -0.0885 -0.1216  0.1358
 1285ERGO   ROH16327  14.105  10.882   6.115 -0.2433 -0.0921  0.0935
 1285ERGO    R116328  14.087  10.766   6.373 -0.1568 -0.0168  0.1352
 1285ERGO    R216329  14.302  10.643   6.496 -0.1871 -0.2526 -0.0267
 1285ERGO    R316330  14.244  10.817   6.697  0.1955 -0.1321 -0.0144
 1285ERGO    R416331  14.407  10.610   6.824 -0.0233 -0.3373 -0.0874
 1285ERGO    R516332  14.211  10.678   6.889  0.1202 -0.0441  0.0305
 1285ERGO    C116333  14.413  10.754   7.203  0.4313 -0.2734 -0.1111
 1285ERGO    C216334  14.582  10.838   7.594  0.1112  0.2030 -0.0534
 1286ERGO   ROH16335   0.175   1.454   6.092  0.0274  0.1471 -0.2012
 1286ERGO    R116336   0.089   1.412   6.358  0.1058  0.3200 -0.1468
 1286ERGO    R216337   0.003   1.166   6.450 -0.1989  0.4540 -0.0541
 1286ERGO    R316338   0.194   1.206   6.639 -0.0364  0.2231 -0.1650
 1286ERGO    R416339   0.073   0.948   6.710 -0.2498  0.3325 -0.1415
 1286ERGO    R516340   0.096   1.121   6.841  0.0072  0.2818 -0.1212
 1286ERGO    C116341   0.292   0.860   7.039 -0.1269  0.0451 -0.2964
 1286ERGO    C216342   0.305   0.737   7.367  0.0213 -0.1286  0.0325
 1287ERGO   ROH16343  12.923   1.370   6.062  0.1611  0.1096  0.0440
 1287ERGO    R116344  12.980   1.538   6.282  0.1370  0.0492  0.0966
 1287ERGO    R216345  12.783   1.644   6.444  0.1243 -0.0508  0.1447
 1287ERGO    R316346  12.929   1.529   6.642  0.1637 -0.0823  0.0979
 1287ERGO    R416347  12.747   1.711   6.781  0.2574 -0.0259  0.1546
 1287ERGO    R516348  12.964   1.705   6.801  0.2649 -0.0826  0.0791
 1287ERGO    C116349  12.863   1.642   7.163  0.3717 -0.0408  0.1165
 1287ERGO    C216350  12.667   1.634   7.476 -0.1842  0.1935 -0.2672
 1288ERGO   ROH16351   6.790   3.361   6.140  0.5378  0.2194 -0.0529
 1288ERGO    R116352   6.904   3.298   6.391  0.3021  0.0906  0.0248
 1288ERGO    R216353   6.755   3.286   6.624  0.1194  0.1860 -0.0836
 1288ERGO    R316354   6.863   3.037   6.642 -0.1022  0.0909 -0.0357
 1288ERGO    R416355   6.803   3.112   6.918 -0.0203  0.2001 -0.0517
 1288ERGO    R516356   6.995   3.044   6.841 -0.0860  0.0117 -0.0457
 1288ERGO    C116357   6.932   2.778   7.107 -0.3096  0.1189  0.0120
 1288ERGO    C216358   6.882   2.495   7.363 -0.3601  0.0129  0.1048
 1289ERGO   ROH16359  10.477   1.130   6.645 -0.0103  0.1520 -0.0785
 1289ERGO    R116360  10.626   1.009   6.853 -0.1209 -0.2498 -0.2182
 1289ERGO    R216361  10.689   1.142   7.088  0.5653 -0.3501 -0.3090
 1289ERGO    R316362  10.572   0.925   7.203  0.0145  0.0253 -0.1309
 1289ERGO    R416363  10.747   1.033   7.411  0.4210 -0.3426 -0.2835
 1289ERGO    R516364  10.744   0.828   7.337 -0.1840 -0.3838 -0.1690
 1289ERGO    C116365  10.671   0.766   7.706 -0.1800  0.0142 -0.1014
 1289ERGO    C216366  10.637   0.693   8.103 -0.0350 -0.0050 -0.0027
 1290ERGO   ROH16367   9.395   1.289   6.587 -0.3187  0.1548 -0.1329
 1290ERGO    R116368   9.276   1.345   6.837 -0.1766 -0.1207  0.0003
 1290ERGO    R216369   9.321   1.191   7.061  0.4384 -0.0220 -0.0423
 1290ERGO    R316370   9.391   1.429   7.172  0.0099  0.1533 -0.1270
 1290ERGO    R416371   9.286   1.270   7.396  0.3833 -0.0045 -0.0512
 1290ERGO    R516372   9.221   1.469   7.337 -0.0290 -0.1368 -0.0867
 1290ERGO    C116373   9.332   1.539   7.695 -0.0510  0.1703 -0.1359
 1290ERGO    C216374   9.332   1.361   8.043  0.0372  0.0068  0.2181
 1291ERGO   ROH16375  12.961  13.011   6.221 -0.1719 -0.1138  0.0123
 1291ERGO    R116376  12.807  12.898   6.430 -0.1882 -0.0659  0.0273
 1291ERGO    R216377  12.893  12.681   6.577 -0.2673 -0.1320 -0.0184
 1291ERGO    R316378  12.845  12.845   6.788 -0.1419 -0.1339  0.0116
 1291ERGO    R416379  12.824  12.573   6.898 -0.2648 -0.1322 -0.0183
 1291ERGO    R516380  12.675  12.732   6.913 -0.1769 -0.0572  0.0296
 1291ERGO    C116381  12.739  12.665   7.283 -0.1455 -0.1341  0.0099
 1291ERGO    C216382  12.518  12.788   7.534 -0.1372 -0.1141  0.0197
 1292ERGO   ROH16383  10.532  13.471   6.040  0.0306 -0.1663  0.0152
 1292ERGO    R116384  10.439  13.405   6.299  0.0455 -0.0919  0.0396
 1292ERGO    R216385  10.334  13.158   6.360 -0.0684 -0.0310  0.0854
 1292ERGO    R316386  10.523  13.161   6.556 -0.0311 -0.1073  0.0507
 1292ERGO    R416387  10.344  12.939   6.628 -0.1973  0.0557  0.1620
 1292ERGO    R516388  10.402  13.107   6.756 -0.0429  0.0597  0.0919
 1292ERGO    C116389  10.527  12.815   6.967 -0.2373  0.0345  0.1740
 1292ERGO    C216390  10.579  12.682   7.322 -0.0636 -0.1427 -0.0500
 1293ERGO   ROH16391  11.077   6.948   6.121 -0.1946  0.2648 -0.0774
 1293ERGO    R116392  11.029   7.041   6.384 -0.0391  0.3253 -0.0713
 1293ERGO    R216393  11.096   6.894   6.608 -0.2611  0.2074 -0.0901
 1293ERGO    R316394  11.230   7.120   6.677  0.0978 -0.0030 -0.0693
 1293ERGO    R416395  11.152   6.998   6.932 -0.5324  0.3170 -0.0743
 1293ERGO    R516396  11.112   7.203   6.868 -0.0340  0.3702 -0.2932
 1293ERGO    C116397  11.311   7.270   7.187 -0.3534  0.1834 -0.0456
 1293ERGO    C216398  11.440   7.477   7.544 -0.1696  0.0615 -0.3657
 1294ERGO   ROH16399  10.588  11.394   6.046  0.1925 -0.2139 -0.1877
 1294ERGO    R116400  10.734  11.328   6.279  0.0632 -0.3283 -0.1376
 1294ERGO    R216401  10.753  11.498   6.496  0.2825 -0.2556 -0.2123
 1294ERGO    R316402  10.662  11.282   6.633 -0.0598 -0.0644 -0.1254
 1294ERGO    R416403  10.765  11.463   6.839  0.1873 -0.1194 -0.1939
 1294ERGO    R516404  10.820  11.254   6.811 -0.1193 -0.2203 -0.0940
 1294ERGO    C116405  10.687  11.239   7.168 -0.1893  0.1394 -0.1016
 1294ERGO    C216406  10.754  11.271   7.454  0.2041 -0.1115 -0.0516
 1295ERGO   ROH16407  14.250   8.207   6.138 -0.2329 -0.0157  0.0212
 1295ERGO    R116408  14.180   8.162   6.408 -0.1484 -0.0610  0.0364
 1295ERGO    R216409  14.328   7.998   6.575 -0.0936 -0.0897 -0.0345
 1295ERGO    R316410  14.333   8.218   6.734 -0.0453 -0.1136 -0.0034
 1295ERGO    R416411  14.390   7.995   6.915 -0.0412 -0.1387 -0.0447
 1295ERGO    R516412  14.234   8.145   6.939 -0.0187 -0.1282  0.0010
 1295ERGO    C116413  14.430   8.201   7.262  0.0347 -0.1898 -0.0214
 1295ERGO    C216414  14.628   8.227   7.475 -0.1858 -0.0606  0.0352
 1296ERGO   ROH16415  12.053   3.811   5.797  0.3896 -0.2723 -0.1704
 1296ERGO    R116416  12.055   3.815   6.080  0.3065 -0.0148 -0.1715
 1296ERGO    R216417  11.958   3.606   6.232  0.1271  0.1846 -0.0070
 1296ERGO    R316418  12.205   3.618   6.346  0.1011  0.1305  0.0562
 1296ERGO    R416419  12.025   3.542   6.565  0.0445  0.0549 -0.0142
 1296ERGO    R516420  12.165   3.709   6.564  0.0531  0.0500  0.0823
 1296ERGO    C116421  12.296   3.516   6.866 -0.0279 -0.0714  0.0409
 1296ERGO    C216422  12.454   3.444   7.177 -0.0327  0.3402 -0.0100
 1297ERGO   ROH16423   8.994  13.359   6.127 -0.1979 -0.1723 -0.0658
 1297ERGO    R116424   8.972  13.551   6.334 -0.1478 -0.1224 -0.1057
 1297ERGO    R216425   8.812  13.513   6.556 -0.1513 -0.0381 -0.0904
 1297ERGO    R316426   9.043  13.563   6.691 -0.1343 -0.0635 -0.1109
 1297ERGO    R416427   8.835  13.553   6.899 -0.1200  0.0002 -0.0975
 1297ERGO    R516428   8.977  13.715   6.865 -0.0937 -0.0315 -0.1258
 1297ERGO    C116429   9.065  13.624   7.225 -0.0859 -0.0014 -0.1209
 1297ERGO    C216430   8.976  13.605   7.508 -0.1695 -0.1739  0.2044
 1298ERGO   ROH16431   0.479  14.028   6.166  0.2375  0.1281  0.0242
 1298ERGO    R116432   0.543  14.125   6.425  0.0842  0.0651  0.0854
 1298ERGO    R216433   0.497  14.386   6.501  0.0397  0.0392  0.1184
 1298ERGO    R316434   0.362  14.268   6.706 -0.0796 -0.0028  0.0190
 1298ERGO    R416435   0.508  14.489   6.831 -0.2589  0.0782  0.1199
 1298ERGO    R516436   0.513  14.280   6.891 -0.2218  0.0753  0.1401
 1298ERGO    C116437   0.387  14.438   7.215 -0.5447  0.0614  0.0274
 1298ERGO    C216438   0.291  14.425   7.545 -0.3241  0.1886 -0.3408
 1299ERGO   ROH16439   7.774  12.768   6.173 -0.2352  0.1875 -0.0105
 1299ERGO    R116440   7.619  12.656   6.382 -0.1816  0.1050 -0.0139
 1299ERGO    R216441   7.720  12.473   6.562 -0.1712 -0.0673 -0.1925
 1299ERGO    R316442   7.628  12.652   6.746 -0.0079 -0.1583 -0.0189
 1299ERGO    R416443   7.609  12.391   6.879 -0.3191 -0.2915 -0.3002
 1299ERGO    R516444   7.449  12.537   6.855 -0.1572 -0.0842 -0.1777
 1299ERGO    C116445   7.458  12.511   7.236 -0.2520 -0.5077 -0.2000
 1299ERGO    C216446   7.515  12.525   7.642  0.1290  0.2814 -0.1730
 1300ERGO   ROH16447  13.978  18.471   6.380  0.1291 -0.1987  0.1010
 1300ERGO    R116448  14.004  18.338   6.629  0.2151 -0.1254  0.1313
 1300ERGO    R216449  14.212  18.388   6.803  0.0845  0.1846  0.2017
 1300ERGO    R316450  14.011  18.434   6.980 -0.0459 -0.0583  0.1210
 1300ERGO    R416451  14.227  18.319   7.141  0.0249  0.1749  0.2027
 1300ERGO    R516452  14.021  18.248   7.131  0.1054 -0.0623  0.1101
 1300ERGO    C116453  14.046  18.321   7.504 -0.1321 -0.0592  0.1275
 1300ERGO    C216454  14.092  18.579   7.790 -0.3311  0.0039 -0.0205
 1301ERGO   ROH16455   9.802  14.547   6.259  0.0273 -0.1452  0.0376
 1301ERGO    R116456   9.664  14.313   6.339 -0.1134 -0.1114 -0.0976
 1301ERGO    R216457   9.506  14.303   6.566  0.0673 -0.2113  0.0324
 1301ERGO    R316458   9.318  14.215   6.391 -0.1601  0.1473  0.0884
 1301ERGO    R416459   9.216  14.137   6.654  0.0139 -0.0927  0.0792
 1301ERGO    R516460   9.244  14.006   6.482 -0.2418  0.0935 -0.1049
 1301ERGO    C116461   8.871  13.958   6.541 -0.2307  0.3128  0.1591
 1301ERGO    C216462   8.648  13.963   6.416  0.0877  0.1072  0.1101
 1302ERGO   ROH16463  11.726  10.378   6.292 -0.0284  0.0502  0.1231
 1302ERGO    R116464  11.846  10.222   6.496 -0.0146 -0.0115  0.0677
 1302ERGO    R216465  12.120  10.194   6.520 -0.0129  0.0084  0.0601
 1302ERGO    R316466  12.073  10.280   6.774 -0.0239 -0.0895  0.0921
 1302ERGO    R416467  12.366  10.264   6.753 -0.0044  0.3022 -0.0323
 1302ERGO    R516468  12.241  10.170   6.905  0.1805  0.1113  0.0074
 1302ERGO    C116469  12.465  10.385   7.127 -0.0097  0.3813 -0.0561
 1302ERGO    C216470  12.544  10.439   7.426  0.2994  0.0270 -0.2150
 1303ERGO   ROH16471   1.116   3.189   6.240  0.0084  0.1362  0.0249
 1303ERGO    R116472   1.150   3.021   6.465  0.1154  0.1608  0.0284
 1303ERGO    R216473   1.284   3.103   6.693 -0.0169  0.2858  0.0671
 1303ERGO    R316474   1.054   3.028   6.816  0.0211  0.0607  0.0042
 1303ERGO    R416475   1.262   2.987   7.017  0.0125  0.1758  0.0298
 1303ERGO    R516476   1.116   2.840   6.950  0.1476  0.0752 -0.0369
 1303ERGO    C116477   1.032   2.849   7.322  0.0653 -0.0997 -0.0510
 1303ERGO    C216478   1.025   2.895   7.668 -0.0977 -0.2709 -0.2539
 1304ERGO   ROH16479  10.133   6.468   6.074  0.0467  0.1794 -0.1031
 1304ERGO    R116480  10.072   6.453   6.349 -0.0485  0.1032 -0.1287
 1304ERGO    R216481   9.823   6.518   6.450 -0.1515 -0.1465 -0.2242
 1304ERGO    R316482   9.837   6.269   6.558  0.0463 -0.1399 -0.2297
 1304ERGO    R416483   9.687   6.427   6.754 -0.2387 -0.2948 -0.3057
 1304ERGO    R516484   9.865   6.308   6.793 -0.1297 -0.1137 -0.2077
 1304ERGO    C116485   9.621   6.141   7.034 -0.1037 -0.3749 -0.3582
 1304ERGO    C216486   9.559   6.177   7.369  0.1561  0.2695 -0.3645
 1305ERGO   ROH16487   7.449   4.281   6.251 -0.1837  0.1967 -0.1695
 1305ERGO    R116488   7.477   4.440   6.484 -0.3901 -0.0029 -0.0022
 1305ERGO    R216489   7.369   4.366   6.728 -0.0846 -0.5316  0.0003
 1305ERGO    R316490   7.625   4.400   6.814 -0.0902 -0.0717 -0.1443
 1305ERGO    R416491   7.464   4.386   7.059  0.1067 -0.5827 -0.0518
 1305ERGO    R516492   7.604   4.544   7.004 -0.2541 -0.2556 -0.0291
 1305ERGO    C116493   7.759   4.431   7.334  0.2128 -0.1807 -0.2178
 1305ERGO    C216494   7.940   4.520   7.640 -0.0519 -0.1929 -0.1870
 1306ERGO   ROH16495  11.887  13.420   6.187  0.0485 -0.0044  0.0211
 1306ERGO    R116496  11.914  13.304   6.444  0.0836  0.0405  0.0364
 1306ERGO    R216497  12.086  13.404   6.635 -0.0867  0.2317  0.0833
 1306ERGO    R316498  11.861  13.409   6.788 -0.1411  0.0064  0.0159
 1306ERGO    R416499  12.082  13.391   6.980 -0.1577  0.3465  0.0886
 1306ERGO    R516500  11.909  13.258   6.968  0.0026  0.1214  0.0824
 1306ERGO    C116501  11.869  13.387   7.325 -0.2500  0.2018  0.0284
 1306ERGO    C216502  11.926  13.464   7.797 -0.1451  0.5337  0.1426
 1307ERGO   ROH16503  12.699   6.062   6.059  0.0115 -0.0155  0.1187
 1307ERGO    R116504  12.659   6.099   6.337 -0.0395  0.0795  0.0988
 1307ERGO    R216505  12.827   5.990   6.527 -0.1167  0.0849  0.1678
 1307ERGO    R316506  12.844   6.247   6.613 -0.0567  0.1050  0.0976
 1307ERGO    R416507  12.872   6.086   6.856 -0.0379  0.1582  0.1360
 1307ERGO    R516508  12.730   6.248   6.823 -0.0184  0.1759  0.1207
 1307ERGO    C116509  12.915   6.383   7.128  0.0644  0.2197  0.0516
 1307ERGO    C216510  12.838   6.383   7.533 -0.0003  0.0531 -0.2659
 1308ERGO   ROH16511  11.479   2.741   6.339 -0.4745 -0.0841 -0.0919
 1308ERGO    R116512  11.553   2.816   6.602 -0.1718 -0.1096 -0.1657
 1308ERGO    R216513  11.369   2.901   6.789  0.0658  0.0599 -0.0036
 1308ERGO    R316514  11.479   2.703   6.940  0.0485 -0.0101 -0.0820
 1308ERGO    R416515  11.519   2.947   7.097 -0.0638 -0.0968  0.0847
 1308ERGO    R516516  11.672   2.804   7.038 -0.0104 -0.0288  0.0556
 1308ERGO    C116517  11.709   2.788   7.418 -0.1553 -0.2538  0.0624
 1308ERGO    C216518  11.745   2.915   7.734 -0.1558 -0.1244  0.2531
 1309ERGO   ROH16519  14.983   9.932   6.737 -0.1150 -0.0911  0.2379
 1309ERGO    R116520  15.055   9.787   6.969 -0.1027  0.0133  0.2994
 1309ERGO    R216521  15.319   9.748   7.044 -0.0971 -0.0738  0.2214
 1309ERGO    R316522  15.234   9.855   7.279  0.0486  0.1109  0.1936
 1309ERGO    R416523  15.519   9.805   7.319  0.0218 -0.1257  0.1473
 1309ERGO    R516524  15.357   9.736   7.446 -0.0150  0.0744  0.2190
 1309ERGO    C116525  15.557   9.939   7.700  0.2279  0.0173  0.0779
 1309ERGO    C216526  15.774  10.014   7.953 -0.1929  0.3339 -0.1299
 1310ERGO   ROH16527   9.685   1.622   6.748 -0.1093  0.0926  0.2785
 1310ERGO    R116528   9.839   1.771   6.933  0.0136  0.0328  0.2264
 1310ERGO    R216529   9.787   1.769   7.205  0.0487  0.1243  0.2360
 1310ERGO    R316530  10.049   1.697   7.221  0.0047 -0.0445  0.2128
 1310ERGO    R416531   9.996   1.840   7.471  0.1779  0.1907  0.1180
 1310ERGO    R516532  10.155   1.883   7.329  0.1664 -0.0314  0.0358
 1310ERGO    C116533  10.363   1.814   7.641  0.2118  0.0708  0.0276
 1310ERGO    C216534  10.426   2.102   7.788 -0.1859 -0.0734 -0.1494
 1311ERGO   ROH16535  13.896  11.321   6.294 -0.3280 -0.1375  0.2004
 1311ERGO    R116536  14.063  11.197   6.486 -0.3291 -0.1760  0.1755
 1311ERGO    R216537  14.266  11.333   6.617 -0.1695 -0.2666  0.0199
 1311ERGO    R316538  14.139  11.242   6.839 -0.1302 -0.0771  0.1227
 1311ERGO    R416539  14.395  11.344   6.937 -0.0723 -0.0690 -0.0240
 1311ERGO    R516540  14.313  11.146   6.972 -0.1138 -0.0268  0.1412
 1311ERGO    C116541  14.351  11.265   7.332  0.0211  0.2237  0.0469
 1311ERGO    C216542  14.410  11.309   7.673  0.1466 -0.1593  0.3226
 1312ERGO   ROH16543  12.665  11.589   6.709 -0.2102 -0.2018  0.0241
 1312ERGO    R116544  12.684  11.550   6.988  0.0351 -0.1273  0.0211
 1312ERGO    R216545  12.893  11.650   7.139  0.0349  0.1447 -0.1446
 1312ERGO    R316546  12.693  11.761   7.285  0.0057 -0.0561 -0.0300
 1312ERGO    R416547  12.891  11.678   7.483  0.0888 -0.0677 -0.1264
 1312ERGO    R516548  12.680  11.626   7.481  0.1207 -0.1819 -0.1112
 1312ERGO    C116549  12.702  11.799   7.821  0.0927 -0.3799 -0.0083
 1312ERGO    C216550  12.726  11.993   8.185 -0.2691  0.1242  0.1851
 1313ERGO   ROH16551  12.496  11.888   6.344 -0.0915  0.0799  0.0074
 1313ERGO    R116552  12.348  11.944   6.579 -0.0236  0.0904  0.0494
 1313ERGO    R216553  12.187  11.757   6.703 -0.1181  0.1395  0.0165
 1313ERGO    R316554  12.337  11.819   6.921 -0.0407 -0.0168  0.0077
 1313ERGO    R416555  12.133  11.634   7.021 -0.0235 -0.0420 -0.0367
 1313ERGO    R516556  12.178  11.832   7.100  0.0281 -0.1032  0.0685
 1313ERGO    C116557  12.242  11.622   7.412  0.1044 -0.2945 -0.0760
 1313ERGO    C216558  12.265  11.498   7.754 -0.0651 -0.1753  0.1001
 1314ERGO   ROH16559  17.770   3.171   6.552  0.1472  0.1748  0.1860
 1314ERGO    R116560  17.688   3.113   6.816  0.1307  0.1611  0.1772
 1314ERGO    R216561  17.628   3.310   7.000 -0.1823  0.1501  0.0877
 1314ERGO    R316562  17.394   3.174   7.021 -0.0214 -0.1420  0.0570
 1314ERGO    R416563  17.478   3.220   7.298 -0.2253  0.1817  0.0766
 1314ERGO    R516564  17.426   3.028   7.209  0.0723  0.0382  0.1878
 1314ERGO    C116565  17.171   3.040   7.492 -0.0994 -0.0741  0.0412
 1314ERGO    C216566  17.139   3.055   7.837 -0.3290  0.3309  0.1628
 1315ERGO   ROH16567   1.652   0.383   6.583  0.2272 -0.2800  0.0833
 1315ERGO    R116568   1.813   0.470   6.799  0.0884 -0.0195  0.0860
 1315ERGO    R216569   1.761   0.704   6.937 -0.2454 -0.0552  0.0395
 1315ERGO    R316570   1.765   0.539   7.153 -0.0467 -0.0172  0.0666
 1315ERGO    R416571   1.745   0.808   7.266 -0.2589 -0.0234  0.0283
 1315ERGO    R516572   1.893   0.657   7.317 -0.1146  0.1194  0.0178
 1315ERGO    C116573   1.738   0.713   7.660 -0.0802  0.0308  0.0472
 1315ERGO    C216574   1.520   0.711   7.808 -0.1347  0.0415  0.4964
 1316ERGO   ROH16575   9.194   8.450   6.325  0.3377  0.3272  0.1779
 1316ERGO    R116576   9.129   8.330   6.573  0.3232  0.1990  0.1117
 1316ERGO    R216577   9.213   8.436   6.815  0.0214  0.2655  0.1827
 1316ERGO    R316578   8.947   8.426   6.873 -0.0106 -0.0932  0.0112
 1316ERGO    R416579   9.076   8.493   7.127 -0.2495  0.0375  0.1121
 1316ERGO    R516580   8.938   8.329   7.092 -0.0181 -0.1468 -0.0076
 1316ERGO    C116581   8.748   8.517   7.364 -0.4373 -0.4321 -0.0900
 1316ERGO    C216582   8.627   8.438   7.702  0.1144 -0.1137  0.1846
 1317ERGO   ROH16583  11.814  16.515   6.689  0.2814  0.0608 -0.0513
 1317ERGO    R116584  11.941  16.376   6.901  0.1266  0.0270  0.0220
 1317ERGO    R216585  12.012  16.499   7.139  0.1138  0.0326  0.0307
 1317ERGO    R316586  11.865  16.299   7.249 -0.0460  0.1385  0.0084
 1317ERGO    R416587  11.959  16.456   7.477  0.1432 -0.0216  0.0270
 1317ERGO    R516588  11.983  16.241   7.449 -0.0623 -0.0295 -0.0364
 1317ERGO    C116589  11.790  16.243   7.778  0.0103  0.0462  0.0038
 1317ERGO    C216590  11.727  16.371   8.141 -0.1096 -0.0030  0.0436
 1318ERGO   ROH16591   5.330  14.492   6.614  0.1345 -0.1234  0.0210
 1318ERGO    R116592   5.132  14.305   6.689  0.0561 -0.0107  0.0944
 1318ERGO    R216593   5.153  14.034   6.633 -0.1235 -0.0170  0.0764
 1318ERGO    R316594   5.114  14.009   6.901 -0.0333 -0.0102  0.0911
 1318ERGO    R416595   5.078  13.739   6.796 -0.3924  0.0364  0.0554
 1318ERGO    R516596   4.938  13.849   6.922 -0.2160  0.1845  0.1376
 1318ERGO    C116597   4.998  13.544   7.142 -0.4644  0.0740  0.0570
 1318ERGO    C216598   4.861  13.324   7.320  0.1931 -0.1611 -0.3295
 1319ERGO   ROH16599  11.646   1.431   6.151  0.1012  0.0960 -0.2126
 1319ERGO    R116600  11.838   1.322   6.328  0.1240  0.0413 -0.2700
 1319ERGO    R216601  12.013   1.479   6.474  0.1105 -0.0000 -0.2051
 1319ERGO    R316602  11.910   1.341   6.684  0.1361 -0.1093 -0.2642
 1319ERGO    R416603  12.132   1.495   6.797 -0.0072  0.0220 -0.1626
 1319ERGO    R516604  12.102   1.280   6.814  0.1349 -0.0017 -0.2129
 1319ERGO    C116605  12.106   1.375   7.184 -0.0516 -0.0678 -0.1935
 1319ERGO    C216606  12.147   1.495   7.554 -0.5601  0.0189  0.0428
 1320ERGO   ROH16607   7.080  15.061   6.259 -0.1796 -0.0685 -0.0621
 1320ERGO    R116608   7.050  15.073   6.540 -0.1676 -0.0281 -0.0623
 1320ERGO    R216609   6.866  14.919   6.677 -0.1307 -0.0428 -0.0263
 1320ERGO    R316610   7.084  14.844   6.820 -0.1075  0.0246 -0.0267
 1320ERGO    R416611   6.859  14.816   7.007 -0.0646  0.1864  0.0482
 1320ERGO    R516612   7.042  14.929   7.041 -0.0405  0.1828 -0.0750
 1320ERGO    C116613   7.059  14.685   7.334 -0.0043  0.3831  0.0912
 1320ERGO    C216614   6.876  14.665   7.573 -0.0110  0.1474  0.1515
 1321ERGO   ROH16615  16.829  14.078   5.906 -0.0741  0.1186  0.1914
 1321ERGO    R116616  16.801  14.146   6.179 -0.0372  0.0670  0.2089
 1321ERGO    R216617  16.839  13.963   6.383 -0.0321  0.0216  0.1695
 1321ERGO    R316618  17.014  14.151   6.474 -0.0033 -0.0137  0.1859
 1321ERGO    R416619  17.004  13.950   6.687  0.0828 -0.1085  0.1015
 1321ERGO    R516620  16.971  14.164   6.709  0.0852 -0.1189  0.2083
 1321ERGO    C116621  17.265  14.118   6.948  0.1767 -0.2175  0.0773
 1321ERGO    C216622  17.496  14.362   7.099 -0.1425 -0.1120 -0.4387
 1322ERGO   ROH16623   4.730   1.357   6.667 -0.2406 -0.0003  0.0763
 1322ERGO    R116624   4.783   1.418   6.939 -0.0815  0.1377  0.0166
 1322ERGO    R216625   4.582   1.466   7.122  0.0206  0.1452  0.1320
 1322ERGO    R316626   4.707   1.271   7.263  0.1858  0.2504  0.1323
 1322ERGO    R416627   4.587   1.443   7.467 -0.0921  0.0621  0.1280
 1322ERGO    R516628   4.796   1.383   7.455 -0.0184  0.3016  0.1968
 1322ERGO    C116629   4.708   1.246   7.800 -0.0024  0.1125  0.1260
 1322ERGO    C216630   4.582   1.181   8.061  0.5780  0.3472  0.3191
 1323ERGO   ROH16631  12.471   1.201   6.195  0.0843 -0.1453  0.0114
 1323ERGO    R116632  12.607   1.222   6.442  0.1212 -0.2442 -0.0015
 1323ERGO    R216633  12.510   1.371   6.653  0.2515 -0.1714  0.0006
 1323ERGO    R316634  12.540   1.137   6.790  0.0913 -0.1896  0.0078
 1323ERGO    R416635  12.539   1.346   6.997  0.0534 -0.1864  0.0182
 1323ERGO    R516636  12.691   1.191   6.968  0.0180 -0.2452  0.0942
 1323ERGO    C116637  12.584   1.112   7.325 -0.2123 -0.2123  0.0352
 1323ERGO    C216638  12.516   1.147   7.692  0.2614  0.3416 -0.1135
 1324ERGO   ROH16639   5.874  13.495   6.198 -0.2291  0.3095  0.1385
 1324ERGO    R116640   5.861  13.591   6.464 -0.1310  0.1037  0.2198
 1324ERGO    R216641   5.879  13.424   6.683  0.0891 -0.0529  0.0881
 1324ERGO    R316642   6.080  13.592   6.755  0.0366  0.0062  0.0961
 1324ERGO    R416643   5.989  13.472   7.007  0.2149 -0.1963  0.0674
 1324ERGO    R516644   6.007  13.685   6.964  0.0851 -0.1588  0.1884
 1324ERGO    C116645   6.242  13.658   7.263  0.2389 -0.2241  0.0629
 1324ERGO    C216646   6.323  13.853   7.575 -0.1824 -0.2970 -0.2486
 1325ERGO   ROH16647  13.954   3.158   5.978 -0.0878  0.0131  0.0551
 1325ERGO    R116648  14.070   3.102   6.230  0.0136 -0.2098 -0.0380
 1325ERGO    R216649  13.971   3.206   6.466  0.4541  0.0670  0.0404
 1325ERGO    R316650  13.964   2.945   6.540 -0.0808  0.0814  0.0797
 1325ERGO    R416651  13.954   3.093   6.792  0.3699  0.1433  0.0625
 1325ERGO    R516652  14.095   2.936   6.740  0.0043 -0.1783  0.0132
 1325ERGO    C116653  13.938   2.782   7.052 -0.1813  0.2012  0.1123
 1325ERGO    C216654  13.946   2.677   7.358 -0.0934  0.0728 -0.2306
 1326ERGO   ROH16655   1.502  12.024   6.167 -0.2788  0.1748  0.0601
 1326ERGO    R116656   1.512  11.921   6.430 -0.2582  0.1404  0.0453
 1326ERGO    R216657   1.672  12.031   6.627 -0.1284  0.0214  0.0053
 1326ERGO    R316658   1.437  12.043   6.765 -0.0777  0.1497  0.0835
 1326ERGO    R416659   1.644  12.095   6.966  0.0181  0.0661  0.0102
 1326ERGO    R516660   1.487  11.944   6.977 -0.0545  0.1431  0.0762
 1326ERGO    C116661   1.408  12.143   7.292  0.1511  0.2126  0.0864
 1326ERGO    C216662   1.531  12.149   7.610 -0.0119 -0.1310  0.1177
 1327ERGO   ROH16663  14.842   9.565   6.299 -0.0046 -0.0272 -0.1086
 1327ERGO    R116664  14.845   9.522   6.579  0.0501  0.0304 -0.0999
 1327ERGO    R216665  14.670   9.648   6.751  0.1375  0.1314 -0.0800
 1327ERGO    R316666  14.615   9.394   6.830  0.0653  0.1671 -0.0161
 1327ERGO    R416667  14.568   9.558   7.068 -0.0552  0.2573 -0.1050
 1327ERGO    R516668  14.697   9.383   7.055 -0.0668  0.2398  0.0348
 1327ERGO    C116669  14.457   9.266   7.327 -0.2354  0.3640 -0.0597
 1327ERGO    C216670  14.275   9.346   7.606  0.0796  0.1541 -0.3025
 1328ERGO   ROH16671   0.089   3.501   6.589 -0.0280  0.0202 -0.0089
 1328ERGO    R116672   0.025   3.332   6.807  0.0278 -0.0091 -0.0151
 1328ERGO    R216673   0.186   3.121   6.883  0.1540  0.1078  0.0456
 1328ERGO    R316674   0.175   3.243   7.126 -0.0004  0.1193  0.0343
 1328ERGO    R416675   0.148   2.957   7.186  0.0598  0.1145  0.0377
 1328ERGO    R516676   0.014   3.117   7.249 -0.0208  0.0767 -0.0358
 1328ERGO    C116677   0.116   2.977   7.589 -0.1401  0.1291  0.0226
 1328ERGO    C216678  -0.016   2.832   7.861  0.1512  0.0363 -0.1255
 1329ERGO   ROH16679   5.132   4.359   6.432  0.0037  0.1414 -0.1184
 1329ERGO    R116680   5.168   4.230   6.681 -0.1369  0.0122 -0.1634
 1329ERGO    R216681   5.354   4.315   6.867 -0.0039 -0.2864 -0.1544
 1329ERGO    R316682   5.138   4.319   7.033  0.0163 -0.0598 -0.1309
 1329ERGO    R416683   5.369   4.291   7.211  0.0173 -0.1805 -0.1478
 1329ERGO    R516684   5.193   4.163   7.206 -0.0866 -0.0453 -0.0837
 1329ERGO    C116685   5.175   4.282   7.568  0.0486  0.0939 -0.1218
 1329ERGO    C216686   5.207   4.288   7.972 -0.1645 -0.0169 -0.0874
 1330ERGO   ROH16687   7.862  13.217   6.247  0.2804  0.1414 -0.2135
 1330ERGO    R116688   7.818  13.089   6.496  0.0852  0.1572 -0.2393
 1330ERGO    R216689   7.982  12.888   6.591 -0.0074  0.1445 -0.1124
 1330ERGO    R316690   7.999  13.050   6.809 -0.1468  0.1491 -0.1028
 1330ERGO    R416691   8.122  12.798   6.894 -0.1186  0.1760 -0.0503
 1330ERGO    R516692   7.960  12.904   6.995 -0.1937  0.1353 -0.1206
 1330ERGO    C116693   8.220  12.898   7.275 -0.3143  0.1985 -0.0051
 1330ERGO    C216694   8.246  13.037   7.595  0.0113  0.0988 -0.1522
 1331ERGO   ROH16695  18.068  16.925   6.043  0.1032  0.1067  0.0531
 1331ERGO    R116696  18.024  16.832   6.307 -0.0331  0.1887  0.0617
 1331ERGO    R216697  17.809  16.672   6.374 -0.0879  0.2234  0.0090
 1331ERGO    R316698  18.003  16.509   6.473 -0.1431  0.2392  0.1402
 1331ERGO    R416699  17.760  16.436   6.622 -0.1975  0.2683  0.0295
 1331ERGO    R516700  17.953  16.494   6.707 -0.2497  0.2775  0.1118
 1331ERGO    C116701  17.914  16.146   6.860 -0.3133  0.3091  0.1647
 1331ERGO    C216702  17.602  16.061   7.031 -0.4410  0.2377  0.1550
 1332ERGO   ROH16703  14.081   6.062   5.805 -0.1253  0.2211 -0.1367
 1332ERGO    R116704  14.126   6.169   6.063 -0.1755 -0.0224 -0.0247
 1332ERGO    R216705  14.087   6.436   6.122 -0.0129 -0.0442  0.1736
 1332ERGO    R316706  13.927   6.337   6.318 -0.1810 -0.0893  0.0172
 1332ERGO    R416707  13.940   6.624   6.372  0.2264 -0.1632  0.4089
 1332ERGO    R516708  13.985   6.464   6.512 -0.0166 -0.4279  0.2025
 1332ERGO    C116709  13.705   6.640   6.702  0.2077 -0.2748  0.3990
 1332ERGO    C216710  13.611   6.950   6.906 -0.1352 -0.1439  0.4441
 1333ERGO   ROH16711   1.231   8.121   6.086 -0.2809 -0.0742 -0.2035
 1333ERGO    R116712   1.023   8.130   6.279 -0.1471 -0.1478 -0.0534
 1333ERGO    R216713   1.033   7.989   6.516  0.1304 -0.0469 -0.0031
 1333ERGO    R316714   0.989   8.234   6.626  0.0354 -0.0342 -0.0676
 1333ERGO    R416715   0.906   8.042   6.833  0.2211 -0.0164  0.0287
 1333ERGO    R516716   0.787   8.206   6.752  0.0970 -0.1083  0.0185
 1333ERGO    C116717   0.791   8.303   7.121  0.1848  0.0133 -0.0133
 1333ERGO    C216718   0.837   8.309   7.398  0.3478  0.0795  0.1137
 1334ERGO   ROH16719  13.950   1.898   6.138 -0.1043 -0.1256 -0.0622
 1334ERGO    R116720  14.093   1.929   6.380  0.0089 -0.0761 -0.1346
 1334ERGO    R216721  13.967   1.965   6.623  0.1241  0.1603 -0.1069
 1334ERGO    R316722  14.118   1.752   6.697  0.0032  0.0983 -0.0353
 1334ERGO    R416723  14.041   1.878   6.950  0.0298  0.1942 -0.0761
 1334ERGO    R516724  14.243   1.829   6.886  0.0144  0.0756 -0.0341
 1334ERGO    C116725  14.225   1.626   7.208 -0.1386  0.1557  0.0091
 1334ERGO    C216726  14.342   1.561   7.563  0.2623  0.0928 -0.0388
 1335ERGO   ROH16727  14.555   8.486   6.456 -0.0174  0.0825 -0.1505
 1335ERGO    R116728  14.518   8.602   6.712  0.0151  0.1219 -0.1635
 1335ERGO    R216729  14.634   8.499   6.940 -0.2923 -0.0966 -0.0964
 1335ERGO    R316730  14.729   8.753   6.967  0.1132 -0.2488 -0.0203
 1335ERGO    R416731  14.681   8.662   7.242 -0.4625 -0.1021 -0.0657
 1335ERGO    R516732  14.604   8.844   7.150 -0.0088  0.0151 -0.2321
 1335ERGO    C116733  14.798   8.995   7.442 -0.1811 -0.2483  0.0236
 1335ERGO    C216734  15.076   9.069   7.716  0.0265  0.2938 -0.0552
 1336ERGO   ROH16735  15.933   5.025   6.091 -0.2707 -0.2214 -0.1154
 1336ERGO    R116736  15.754   4.950   6.297 -0.2092 -0.1343 -0.0305
 1336ERGO    R216737  15.837   4.821   6.526 -0.1409 -0.0289 -0.0009
 1336ERGO    R316738  15.709   5.028   6.649 -0.1121  0.0196 -0.0497
 1336ERGO    R416739  15.739   4.823   6.858 -0.4097 -0.0675 -0.0770
 1336ERGO    R516740  15.554   4.921   6.797 -0.3039  0.0696 -0.2052
 1336ERGO    C116741  15.562   5.018   7.166 -0.5390 -0.0443 -0.1670
 1336ERGO    C216742  15.635   4.869   7.454 -0.2484 -0.1430 -0.1214
 1337ERGO   ROH16743   2.134  10.302   6.332  0.3475  0.0985 -0.1529
 1337ERGO    R116744   2.271  10.173   6.544  0.0795 -0.0075 -0.0396
 1337ERGO    R216745   2.441  10.309   6.715  0.1476 -0.1609  0.0107
 1337ERGO    R316746   2.282  10.199   6.906 -0.0877  0.0816 -0.0392
 1337ERGO    R416747   2.519  10.295   7.051  0.0598 -0.3418  0.0254
 1337ERGO    R516748   2.435  10.093   7.057 -0.2931 -0.2083 -0.0211
 1337ERGO    C116749   2.415  10.184   7.427 -0.2121 -0.2196 -0.0129
 1337ERGO    C216750   2.414  10.444   7.704 -0.0645  0.3108  0.0600
 1338ERGO   ROH16751   0.574  10.178   5.908 -0.1783 -0.0689 -0.1263
 1338ERGO    R116752   0.575  10.304   6.162  0.0352 -0.1212 -0.1003
 1338ERGO    R216753   0.344  10.350   6.306  0.1409 -0.0031  0.0288
 1338ERGO    R316754   0.478  10.216   6.501  0.1572 -0.1271 -0.0656
 1338ERGO    R416755   0.233  10.312   6.631  0.2463 -0.0573  0.0596
 1338ERGO    R516756   0.438  10.344   6.700  0.2898 -0.1708 -0.0077
 1338ERGO    C116757   0.294  10.164   7.004  0.3230 -0.2053 -0.0113
 1338ERGO    C216758   0.086   9.994   7.293 -0.0429  0.0734 -0.1211
 1339ERGO   ROH16759  15.216  17.820   5.878 -0.3017 -0.1078 -0.0959
 1339ERGO    R116760  15.223  17.744   6.151 -0.1934 -0.0358 -0.0772
 1339ERGO    R216761  15.088  17.522   6.246 -0.1057 -0.0474  0.0251
 1339ERGO    R316762  15.333  17.455   6.342 -0.0563  0.0423 -0.0380
 1339ERGO    R416763  15.144  17.330   6.528  0.0361 -0.1685 -0.0844
 1339ERGO    R516764  15.309  17.463   6.580 -0.0357 -0.1013 -0.0307
 1339ERGO    C116765  15.407  17.155   6.782  0.1652 -0.1549 -0.2075
 1339ERGO    C216766  15.543  17.019   6.997 -0.1142 -0.0519  0.1593
 1340ERGO   ROH16767   6.892  15.499   6.312  0.1598  0.3251  0.0390
 1340ERGO    R116768   6.960  15.530   6.585 -0.0344  0.0948  0.1153
 1340ERGO    R216769   6.774  15.507   6.788 -0.1339 -0.2980 -0.0227
 1340ERGO    R316770   6.951  15.324   6.885 -0.0232 -0.2385 -0.1055
 1340ERGO    R416771   6.790  15.403   7.117  0.0715 -0.2620 -0.0182
 1340ERGO    R516772   7.007  15.406   7.103  0.0702 -0.1968 -0.1390
 1340ERGO    C116773   6.965  15.171   7.400  0.2950 -0.1852 -0.0934
 1340ERGO    C216774   6.834  15.147   7.696 -0.2608  0.2189 -0.0666
 1341ERGO   ROH16775   7.284  11.745   6.199  0.0165 -0.0410 -0.0273
 1341ERGO    R116776   7.366  11.523   6.355  0.4454  0.1263 -0.0015
 1341ERGO    R216777   7.536  11.549   6.571  0.0597  0.5574  0.2710
 1341ERGO    R316778   7.336  11.420   6.702  0.2207 -0.0991 -0.0845
 1341ERGO    R416779   7.567  11.400   6.882  0.0102  0.6243  0.3077
 1341ERGO    R516780   7.444  11.235   6.810  0.6406  0.2208  0.0721
 1341ERGO    C116781   7.397  11.193   7.186  0.1325  0.0468 -0.0047
 1341ERGO    C216782   7.292  10.983   7.441 -0.2194 -0.0226  0.0614
 1342ERGO   ROH16783   4.285   7.589   6.355 -0.2082  0.1183 -0.1488
 1342ERGO    R116784   4.349   7.757   6.573 -0.1740 -0.0481 -0.0294
 1342ERGO    R216785   4.290   8.027   6.576  0.0504  0.0024  0.0796
 1342ERGO    R316786   4.167   7.964   6.811 -0.1182 -0.0179 -0.0129
 1342ERGO    R416787   4.220   8.252   6.829  0.1274 -0.0726  0.1690
 1342ERGO    R516788   4.278   8.100   6.974 -0.0762 -0.2038  0.1155
 1342ERGO    C116789   4.063   8.325   7.196  0.0139 -0.1353  0.1342
 1342ERGO    C216790   3.938   8.604   7.187  0.1394 -0.0771  0.1785
 1343ERGO   ROH16791   5.063  17.032   6.697 -0.2320 -0.1934 -0.1066
 1343ERGO    R116792   4.911  16.999   6.934 -0.1327 -0.0681 -0.0242
 1343ERGO    R216793   4.999  16.844   7.145 -0.1181 -0.0896 -0.0468
 1343ERGO    R316794   4.955  17.071   7.288  0.0909 -0.0417 -0.0552
 1343ERGO    R416795   4.929  16.853   7.483 -0.1263 -0.0158 -0.0503
 1343ERGO    R516796   4.783  17.011   7.443  0.0235  0.1245 -0.0618
 1343ERGO    C116797   4.847  17.072   7.815  0.0651  0.0720 -0.0602
 1343ERGO    C216798   4.865  17.383   8.062  0.1673 -0.0441 -0.0997
 1344ERGO   ROH16799   4.001  10.991   5.824  0.2301  0.0497  0.0172
 1344ERGO    R116800   3.854  10.934   6.060  0.1168  0.0226 -0.0590
 1344ERGO    R216801   3.899  10.707   6.212  0.1438  0.0777  0.0156
 1344ERGO    R316802   3.928  10.888   6.413 -0.0726  0.1360 -0.0027
 1344ERGO    R416803   3.869  10.636   6.549  0.3325  0.0454  0.0263
 1344ERGO    R516804   3.764  10.825   6.575  0.0564 -0.1024  0.0414
 1344ERGO    C116805   3.879  10.764   6.934  0.2393  0.0812  0.0154
 1344ERGO    C216806   3.834  10.653   7.251 -0.1333 -0.5503  0.1368
 1345ERGO   ROH16807   3.907  12.571   5.940 -0.1078 -0.2332 -0.0361
 1345ERGO    R116808   4.015  12.359   6.093 -0.1297 -0.2014  0.0244
 1345ERGO    R216809   4.206  12.399   6.290 -0.1101 -0.1680  0.0007
 1345ERGO    R316810   4.026  12.266   6.445 -0.1210 -0.0909  0.0535
 1345ERGO    R416811   4.270  12.280   6.608 -0.0470 -0.2490 -0.0424
 1345ERGO    R516812   4.157  12.100   6.558 -0.1667 -0.1794 -0.0232
 1345ERGO    C116813   4.139  12.087   6.939 -0.0206 -0.2238 -0.0179
 1345ERGO    C216814   4.212  11.975   7.139 -0.0364  0.1788 -0.1339
 1346W        W16815   2.997  11.784   2.381  0.1105 -0.0532  0.0609
 1347W        W16816   4.168  11.177  12.276 -0.1385 -0.0625 -0.2222
 1348W        W16817   1.698   9.770   1.027 -0.1018  0.2228  0.1056
 1349W        W16818  10.248  18.146  12.220 -0.0573 -0.3365  0.0780
 1350W        W16819   2.299   2.278  12.021 -0.2311  0.0890 -0.0605
 1351W        W16820   9.844  10.447  11.308  0.0235  0.2134 -0.2014
 1352W        W16821   6.694   3.062   1.684 -0.2692 -0.4373  0.1957
 1353W        W16822   3.737   5.190  15.317 -0.0034  0.0611  0.1257
 1354W        W16823  10.425  13.245   0.234  0.0901 -0.0242  0.3323
 1355W        W16824  15.678   3.924  15.821 -0.0024  0.0809  0.0087
 1356W        W16825   1.428  14.747  13.041 -0.0042 -0.0080 -0.3567
 1357W        W16826   2.254   5.942   0.036 -0.2779 -0.0647  0.1533
 1358W        W16827   6.454   3.630  11.073 -0.0009  0.5927  0.2416
 1359W        W16828  14.841  13.357  13.803  0.1588 -0.2415 -0.1663
 1360W        W16829   0.745   6.366   3.026 -0.1088  0.1381  0.2158
 1361W        W16830  13.972  17.726  15.888 -0.2653  0.1624 -0.1626
 1362W        W16831  15.529   1.822   2.565 -0.2837 -0.2295 -0.0187
 1363W        W16832  15.104   9.283  12.745  0.0524 -0.1601  0.2714
 1364W        W16833  14.693   5.099  13.727 -0.0337  0.2697  0.0126
 1365W        W16834  17.095  12.087  15.566  0.2347 -0.2178  0.2277
 1366W        W16835   3.571   9.212  11.726 -0.0252  0.4831 -0.0998
 1367W        W16836   1.270   2.744   0.129 -0.0628 -0.0306 -0.1211
 1368W        W16837   7.189  15.968   0.061  0.1639 -0.0332 -0.0479
 1369W        W16838  16.718   3.742   2.986  0.1731  0.4408  0.2099
 1370W        W16839   9.299   3.049   2.880 -0.1191 -0.2450 -0.1311
 1371W        W16840   6.643  13.525   2.201  0.0581 -0.1115  0.2837
 1372W        W16841  16.270   7.389  12.140  0.0021 -0.3076 -0.1116
 1373W        W16842  15.407   2.933   1.082 -0.1014  0.3086 -0.0718
 1374W        W16843   5.034   4.046   4.013  0.1526 -0.0356 -0.1507
 1375W        W16844  11.822  17.560   2.788  0.1738 -0.1315  0.3654
 1376W        W16845  11.491  16.351   3.263 -0.1678 -0.3931 -0.0707
 1377W        W16846   2.834  17.652  15.040  0.0023 -0.0529  0.0778
 1378W        W16847   1.699  17.174  14.140 -0.1149  0.2695  0.0697
 1379W        W16848  12.018   4.938   5.149 -0.0498 -0.3020  0.4899
 1380W        W16849   8.036  14.253  13.838 -0.1568 -0.0441 -0.0569
 1381W        W16850  14.207   2.346   4.386 -0.0193  0.0015 -0.5084
 1382W        W16851  16.564  13.617  15.799 -0.3654 -0.2082  0.2273
 1383W        W16852   3.643   3.909   2.893 -0.1477 -0.0941 -0.0243
 1384W        W16853   8.683   2.808   1.027  0.3515  0.2240 -0.1027
 1385W        W16854   5.794   1.892  14.182 -0.0874 -0.1495 -0.1978
 1386W        W16855   1.723   2.392  12.231  0.1054 -0.1311 -0.1632
 1387W        W16856  11.129   5.572  15.481  0.4226 -0.1884  0.0651
 1388W        W16857  17.471  13.069  14.738 -0.4500 -0.0343  0.0118
 1389W        W16858   6.544  16.991  15.313 -0.1161 -0.2017 -0.0715
 1390W        W16859  10.404   8.409   2.927 -0.3545 -0.0017 -0.2188
 1391W        W16860  16.989   6.084  14.733 -0.3774  0.2730  0.4414
 1392W        W16861   4.977  14.936   1.687  0.0530 -0.1497 -0.1769
 1393W        W16862  14.998  16.778   5.773  0.1259 -0.1791 -0.0737
 1394W        W16863  15.883   3.960   3.640 -0.0660 -0.1254  0.0261
 1395W        W16864   1.022  17.030   2.124  0.2200 -0.0477  0.0818
 1396W        W16865  13.337   5.706   2.828  0.0467  0.1948  0.3343
 1397W        W16866  14.225   7.136   1.573  0.0170 -0.3666 -0.1641
 1398W        W16867   7.244  10.507  13.557  0.0698 -0.0356 -0.2808
 1399W        W16868   8.415   0.447   1.368 -0.1577 -0.0471 -0.1559
 1400W        W16869  13.940   9.517   2.472  0.0510  0.0143  0.0793
 1401W        W16870   8.414  17.739   2.747  0.1589  0.1057  0.2727
 1402W        W16871   7.604  12.926  15.773  0.4917  0.0078 -0.1274
 1403W        W16872  12.756  11.297   2.448  0.0098 -0.2153  0.1925
 1404W        W16873   9.394   3.492   5.378 -0.0612 -0.1445  0.1334
 1405W        W16874  14.496  17.120   2.801  0.3804  0.1341  0.0502
 1406W        W16875  15.939   8.097  15.162 -0.0646  0.1583  0.1496
 1407W        W16876  15.301   6.064  15.177  0.1475 -0.1178 -0.2051
 1408W        W16877  12.739  10.433  13.583 -0.1978  0.0205  0.0784
 1409W        W16878  11.161   7.197   4.919 -0.1595  0.0370  0.0346
 1410W        W16879  17.212   6.091   0.624  0.0696  0.0055 -0.0951
 1411W        W16880   4.908   7.636  14.398 -0.1374 -0.2047 -0.0538
 1412W        W16881   4.860   5.381  15.534  0.1831 -0.0948 -0.0667
 1413W        W16882   0.583  13.515  12.970  0.0165  0.3925 -0.2086
 1414W        W16883  15.031  16.556   0.375  0.0352 -0.1504  0.1301
 1415W        W16884   0.381  14.319   4.781  0.2186  0.0731  0.1084
 1416W        W16885   5.447  14.883   4.511 -0.0649  0.0669  0.0926
 1417W        W16886  12.651   6.503   3.975  0.2030  0.3346 -0.2953
 1418W        W16887   1.153  16.090  11.115  0.0055 -0.1386  0.0801
 1419W        W16888   9.256  17.082   1.819 -0.3146 -0.0348  0.4583
 1420W        W16889   1.364  14.101   1.289  0.2361 -0.1805  0.0940
 1421W        W16890   7.414  13.138  14.237  0.0931  0.1738  0.0135
 1422W        W16891  17.444  11.939  14.735 -0.0437 -0.0951 -0.0552
 1423W        W16892  10.834  17.192   4.980 -0.2664 -0.0814 -0.1445
 1424W        W16893   4.716   9.624  15.018 -0.0487 -0.2575  0.4686
 1425W        W16894   9.040   5.871  13.565  0.4903  0.0526  0.0695
 1426W        W16895   6.888   9.074   5.019 -0.2875 -0.0388 -0.0266
 1427W        W16896  18.298   4.800   5.278 -0.0621 -0.0437 -0.0534
 1428W        W16897   7.584   0.429   2.623  0.2170 -0.0303  0.0871
 1429W        W16898   0.725   4.722  15.541 -0.1456  0.0240  0.0891
 1430W        W16899   5.548  16.245   1.593 -0.1113  0.1507 -0.1103
 1431W        W16900  16.683   2.986   4.075 -0.0740  0.1774 -0.0185
 1432W        W16901   7.572  16.071  15.298  0.2689  0.0807  0.1110
 1433W        W16902   1.937   9.351  14.843 -0.4973  0.0663 -0.0397
 1434W        W16903   0.352  15.023   3.971 -0.2001  0.0061  0.1394
 1435W        W16904  12.364   5.152   4.052 -0.0253 -0.0716 -0.2655
 1436W        W16905  14.671   9.348  14.046 -0.0466  0.1216 -0.1493
 1437W        W16906  16.727  18.056   2.068 -0.0574 -0.0250 -0.1716
 1438W        W16907   4.652  11.776  10.951  0.0885 -0.1877 -0.2695
 1439W        W16908   6.510   9.043   5.505 -0.0627  0.1283  0.0474
 1440W        W16909   5.808   6.403  11.956  0.0540  0.2593  0.1889
 1441W        W16910   7.142   0.967   0.308 -0.0679  0.0504  0.0371
 1442W        W16911   8.035  12.989  11.438  0.0381  0.1160 -0.0336
 1443W        W16912  13.432  17.885  14.611  0.0444  0.0417 -0.2547
 1444W        W16913  16.783   2.140  15.040 -0.0644  0.0235  0.2808
 1445W        W16914  17.110   0.613   0.094 -0.0719 -0.0686  0.1040
 1446W        W16915   7.143   8.703   4.775  0.0684 -0.0409 -0.0412
 1447W        W16916   9.812   7.214  15.484  0.0278  0.1924 -0.2064
 1448W        W16917  10.313  14.961  13.631 -0.6493 -0.3610 -0.0094
 1449W        W16918   8.236  13.670  15.557 -0.0111  0.2983  0.4677
 1450W        W16919   3.827  12.984   1.322 -0.2297 -0.0579 -0.1195
 1451W        W16920   8.319  11.122  15.828 -0.1941  0.0408 -0.0336
 1452W        W16921  15.405  13.580  10.642 -0.0518  0.0536  0.1162
 1453W        W16922  15.350  14.564   2.722  0.0879  0.0089 -0.2869
 1454W        W16923   1.821  10.182   0.081  0.2757  0.0003 -0.0210
 1455W        W16924   6.681  18.061  13.707  0.1759  0.1346  0.1722
 1456W        W16925  11.993  10.926  13.272  0.1225  0.2536 -0.2575
 1457W        W16926   0.870   8.859  12.931  0.1496 -0.2839  0.3407
 1458W        W16927  12.909   3.398   2.564 -0.1538  0.1557 -0.3094
 1459W        W16928   4.573   2.409   3.338  0.1275  0.3214  0.2442
 1460W        W16929   2.935   1.100   0.940 -0.0900 -0.0001  0.0846
 1461W        W16930   4.741   5.471   4.380  0.0460  0.0288  0.0978
 1462W        W16931  17.473  12.885   4.653 -0.0881  0.2509 -0.0197
 1463W        W16932  13.766  17.774   4.197  0.1243  0.1009 -0.5096
 1464W        W16933   1.529  18.045   2.309 -0.0227 -0.0629 -0.1076
 1465W        W16934  12.662  10.282  15.509  0.0630  0.0351 -0.0889
 1466W        W16935   6.130   1.747  13.471  0.1036  0.1387  0.1179
 1467W        W16936  12.072   8.984   4.468  0.1854  0.1903  0.0794
 1468W        W16937   9.784   7.844   3.552  0.1257  0.0450 -0.3351
 1469W        W16938  13.599   0.276  11.025 -0.2408  0.2824  0.2992
 1470W        W16939   1.157   3.781  11.383 -0.1107 -0.0877 -0.0092
 1471W        W16940  12.848  14.118  14.415  0.3071  0.0532  0.1666
 1472W        W16941  11.822   2.658   2.794 -0.2073 -0.0883  0.0798
 1473W        W16942   5.235   7.297   1.119 -0.0992  0.2912 -0.1442
 1474W        W16943   6.937   5.403  10.614 -0.1484  0.0231 -0.0022
 1475W        W16944   5.980   3.294  12.299  0.3634 -0.2291 -0.0224
 1476W        W16945  10.663  10.111  11.717  0.2122  0.1070 -0.1310
 1477W        W16946   7.912   7.234  13.212 -0.2514  0.0902 -0.0738
 1478W        W16947  12.056  17.273   3.342  0.2432 -0.2031  0.2847
 1479W        W16948  16.264   1.531  14.211  0.2720 -0.3454 -0.2924
 1480W        W16949  16.803  12.824  10.635  0.3421 -0.0942 -0.3689
 1481W        W16950  13.076  12.633   4.883  0.0749 -0.2137  0.0684
 1482W        W16951   8.827  12.784   5.374 -0.0365 -0.2915 -0.0467
 1483W        W16952   3.165   0.844   0.603 -0.2042  0.0593 -0.1078
 1484W        W16953  17.235  13.352   2.573  0.1360  0.0432  0.1574
 1485W        W16954   7.468  15.533   5.460 -0.4306  0.0925  0.0060
 1486W        W16955   5.128   1.128  14.159 -0.1564 -0.1334 -0.1260
 1487W        W16956  10.321   6.598  13.677  0.0265  0.3809  0.0985
 1488W        W16957  12.238   8.918   0.276  0.0525 -0.0043  0.1104
 1489W        W16958   5.984   0.171  13.614  0.0622  0.3817 -0.0599
 1490W        W16959   8.244  11.014  11.971  0.1681 -0.0128  0.1195
 1491W        W16960  10.462   2.863  11.913 -0.2077  0.0442  0.1775
 1492W        W16961  16.089   6.070  14.446  0.0526  0.1590  0.0269
 1493W        W16962   7.474  14.338   3.397  0.0401  0.0547 -0.1684
 1494W        W16963  15.647  17.546   2.611 -0.1550  0.0073  0.1940
 1495W        W16964  12.936   2.848  12.750 -0.1973 -0.3403  0.0609
 1496W        W16965   3.381   8.445  10.104 -0.0296  0.2134 -0.3963
 1497W        W16966   4.523   9.080  11.591 -0.1183  0.0596 -0.0453
 1498W        W16967   2.537  17.637   0.762  0.1412  0.1671 -0.0248
 1499W        W16968   8.379  11.737  13.420  0.1088  0.2986  0.2271
 1500W        W16969   3.936  14.890   4.939  0.0175 -0.1478  0.1199
 1501W        W16970   9.185  18.387  13.339  0.2451 -0.0103 -0.1520
 1502W        W16971  18.381   8.634  11.971  0.0460  0.0187  0.0651
 1503W        W16972  16.569   2.897   0.097  0.1908 -0.0305  0.0330
 1504W        W16973  17.162   9.816   2.052  0.3317  0.2469 -0.0325
 1505W        W16974  18.043   0.500  14.022 -0.2933  0.3598 -0.1353
 1506W        W16975   3.862   6.450  13.596 -0.0454  0.2139  0.2101
 1507W        W16976  14.629   2.508   1.393 -0.2254 -0.0031 -0.1251
 1508W        W16977   2.097   7.399  13.054  0.0876  0.0058  0.0099
 1509W        W16978  17.945   9.627   3.676 -0.0680 -0.0883  0.0662
 1510W        W16979   3.217   9.299   5.274  0.1327  0.1150 -0.2516
 1511W        W16980   3.276   7.659  11.241 -0.0006  0.0304 -0.0624
 1512W        W16981   5.191   5.249  13.779 -0.5326  0.1197  0.0302
 1513W        W16982   4.278  13.138   2.410 -0.1697 -0.0030  0.0958
 1514W        W16983   1.701   3.335   3.786  0.1579 -0.0012 -0.2184
 1515W        W16984   0.298  15.557  10.863 -0.0267 -0.0323  0.1463
 1516W        W16985   5.914   0.255   1.264 -0.2467  0.0118 -0.1512
 1517W        W16986   1.567   9.238   1.091 -0.2065 -0.3028  0.1223
 1518W        W16987   7.245  14.035   1.347  0.1698  0.1384 -0.0638
 1519W        W16988   2.938   3.826  12.903 -0.1728 -0.0836  0.2263
 1520W        W16989  10.827  14.818  15.245 -0.0159  0.2808  0.2850
 1521W        W16990  15.557   0.559  10.253  0.1346 -0.5261 -0.2376
 1522W        W16991  12.506   3.564  10.791 -0.1936  0.0975 -0.1781
 1523W        W16992   3.239   5.422  12.952  0.1404 -0.0032 -0.1041
 1524W        W16993   7.127   0.125   3.140 -0.0388 -0.4602  0.1842
 1525W        W16994   7.069  11.673  11.350 -0.2093 -0.1039 -0.0646
 1526W        W16995   4.784  15.286   1.394  0.1316 -0.0776  0.0067
 1527W        W16996  16.182   9.390   1.032  0.0230 -0.1188  0.1351
 1528W        W16997   2.049   7.825   2.729  0.0210  0.0218 -0.2360
 1529W        W16998  13.948  14.046  13.074  0.0793 -0.0849 -0.0440
 1530W        W16999   0.776   7.562  12.793 -0.1148  0.0154  0.0624
 1531W        W17000  18.288   9.979  12.306  0.1126  0.1260 -0.0172
 1532W        W17001  16.053  12.043  13.739 -0.1196 -0.0100  0.1570
 1533W        W17002   4.505   3.204   2.116  0.1376 -0.0297  0.0100
 1534W        W17003   7.275  14.602  11.898 -0.0105  0.3164  0.1755
 1535W        W17004  15.322  11.301  11.728  0.0738 -0.0429 -0.2180
 1536W        W17005  12.501   6.840  15.671 -0.0746 -0.0310  0.1571
 1537W        W17006  11.614   7.183  13.488 -0.3043 -0.0632  0.0083
 1538W        W17007  14.207   9.048  13.303 -0.0483 -0.1665 -0.0357
 1539W        W17008   2.346   8.267   3.586 -0.1700  0.1755  0.2255
 1540W        W17009   3.585   5.062   1.396 -0.0497  0.0953 -0.0244
 1541W        W17010  15.251   1.138  12.937  0.1119  0.1069 -0.2389
 1542W        W17011   9.631   3.981  12.188  0.2141  0.1503  0.3128
 1543W        W17012  11.213   5.931   3.446  0.1509  0.1630 -0.2809
 1544W        W17013   2.662   7.473  12.924 -0.0551  0.4203 -0.0641
 1545W        W17014  17.573   6.291   5.008 -0.2034  0.1809 -0.3621
 1546W        W17015  14.926  10.867   4.664  0.2098 -0.2324  0.4424
 1547W        W17016   0.567  12.179  14.093  0.0231  0.4667 -0.2403
 1548W        W17017   2.319   1.412   3.109  0.0447 -0.0469  0.2093
 1549W        W17018   4.825   8.037   2.910  0.1069 -0.3968  0.0650
 1550W        W17019  13.781  10.771   2.023 -0.4492  0.0784  0.1456
 1551W        W17020  17.448  13.042  14.199 -0.1439 -0.2376 -0.0074
 1552W        W17021  17.842  10.813   1.780  0.0086  0.3250 -0.0765
 1553W        W17022   7.539   8.161   3.479  0.0117  0.0693  0.1728
 1554W        W17023   9.297  15.947  15.569 -0.0433  0.2081 -0.1064
 1555W        W17024  13.034   1.941   3.533  0.1164  0.0959 -0.1117
 1556W        W17025   0.428   7.151   4.395 -0.0892 -0.1254 -0.1397
 1557W        W17026   6.606  16.570  11.586  0.0336 -0.3650 -0.5441
 1558W        W17027   3.651   3.091  12.047  0.0386 -0.0411 -0.1519
 1559W        W17028   6.532   1.619   5.474 -0.2350 -0.1480 -0.0395
 1560W        W17029  10.223  12.321  15.639  0.2334  0.0365 -0.0899
 1561W        W17030   4.159  15.221   5.334  0.2248  0.2085 -0.1384
 1562W        W17031  17.686  15.472  14.605 -0.1487 -0.1419  0.2944
 1563W        W17032   9.082   5.046   3.032 -0.0246 -0.0304 -0.3701
 1564W        W17033   1.260  15.268   3.001  0.3013  0.3806  0.0261
 1565W        W17034   7.590   0.909  14.391 -0.2818  0.0085 -0.0711
 1566W        W17035  17.676   9.747  15.359 -0.2795 -0.1679  0.0438
 1567W        W17036   4.652   2.103   0.510 -0.1403 -0.1928  0.1010
 1568W        W17037  12.918   8.094  14.576 -0.0863 -0.0379  0.1387
 1569W        W17038  16.998   0.968   0.813  0.0408  0.4479 -0.0643
 1570W        W17039   4.230  12.258   1.122  0.1747  0.0151 -0.0792
 1571W        W17040  18.300  16.029  15.823 -0.2278  0.1832 -0.0587
 1572W        W17041   6.228   2.654  11.601  0.2270 -0.1210 -0.1234
 1573W        W17042   6.888  14.013   0.555 -0.0268  0.2708  0.0337
 1574W        W17043   9.363  16.235   0.323  0.0176 -0.1928 -0.0697
 1575W        W17044   7.325  13.028   5.072  0.2336  0.0637  0.2115
 1576W        W17045  13.263   6.826  14.665 -0.2792 -0.0776  0.0951
 1577W        W17046   6.821   0.522   4.062  0.0607 -0.2580  0.1586
 1578W        W17047   4.936  15.860   1.132 -0.2022 -0.4438 -0.2137
 1579W        W17048   3.127  10.112   0.630  0.1044  0.0887 -0.0685
 1580W        W17049  16.602  15.166  12.568 -0.0274  0.1046  0.0435
 1581W        W17050  17.281   0.586  10.952  0.0293  0.0398  0.1583
 1582W        W17051   1.633   1.588  14.298 -0.1511 -0.0535 -0.0261
 1583W        W17052   7.158   7.785  12.756  0.0806  0.0458 -0.0178
 1584W        W17053  11.506   2.340  14.982 -0.0337  0.0020  0.1973
 1585W        W17054  13.105  12.114  13.066 -0.3605 -0.1460  0.2405
 1586W        W17055  14.008  13.093  14.586  0.0773 -0.1092  0.1856
 1587W        W17056  17.087  12.818   3.389  0.1150 -0.0648  0.1449
 1588W        W17057   5.555   2.853   3.375 -0.0282  0.1989 -0.2113
 1589W        W17058  11.831   3.208  12.983 -0.0724 -0.0646  0.3836
 1590W        W17059  13.795  17.331  13.895 -0.0276 -0.0352  0.2200
 1591W        W17060   4.469   5.467  14.345 -0.3703  0.2494 -0.0041
 1592W        W17061  17.511   5.321   4.552 -0.0523 -0.1110 -0.0419
 1593W        W17062   0.640   6.553  15.529 -0.0373 -0.0851  0.1354
 1594W        W17063   0.042  15.717  13.995 -0.1150 -0.1165  0.0149
 1595W        W17064  11.501   6.461   0.686 -0.1037 -0.0982 -0.1662
 1596W        W17065   5.895   2.499  12.507 -0.0673  0.0524 -0.0955
 1597W        W17066  12.905  17.543  11.741 -0.2568 -0.0329 -0.2171
 1598W        W17067  17.984   5.331  10.953  0.0197 -0.0377  0.0411
 1599W        W17068  10.980  10.896   2.005 -0.1077  0.0472  0.0455
 1600W        W17069  10.509  12.525  10.579  0.0638 -0.0280  0.1535
 1601W        W17070   5.552  14.934   2.211 -0.1451 -0.0098 -0.0122
 1602W        W17071  15.405   4.062  10.032 -0.0807 -0.1834 -0.0914
 1603W        W17072  16.170   4.849   5.239 -0.0614  0.0130  0.1478
 1604W        W17073  13.793  17.141  13.380 -0.1958 -0.3138  0.0853
 1605W        W17074  14.155  10.504  12.718 -0.1057 -0.0334  0.1043
 1606W        W17075   0.934  13.777  10.070 -0.1524  0.2554  0.0272
 1607W        W17076   2.282  14.893   5.239 -0.1957  0.0261 -0.0881
 1608W        W17077  14.415  10.230  14.477  0.2665 -0.1862 -0.0808
 1609W        W17078  15.973  15.871  13.899 -0.3331 -0.1242 -0.0936
 1610W        W17079   1.291   0.761   0.966 -0.2484  0.1219  0.0629
 1611W        W17080  15.469  11.336   0.834  0.2716  0.0966 -0.2964
 1612W        W17081   5.421  18.258   3.949  0.4332  0.2183  0.1945
 1613W        W17082  11.980  17.746   3.220  0.2297 -0.0713 -0.0922
 1614W        W17083  11.540  10.606  13.957 -0.2060  0.1921 -0.3986
 1615W        W17084  16.475  10.414  13.783  0.0122  0.1623  0.0320
 1616W        W17085  14.581   4.885  10.720 -0.0523 -0.1625  0.1426
 1617W        W17086  17.044   5.496   3.697 -0.2953 -0.0820  0.1655
 1618W        W17087   4.132  15.598  12.756 -0.1663  0.0168 -0.2214
 1619W        W17088   1.277  10.838   1.932 -0.1720  0.2112  0.2028
 1620W        W17089  16.867  17.706  14.993 -0.3994  0.1661  0.3885
 1621W        W17090   9.732  11.279   4.533 -0.1132  0.1089 -0.0164
 1622W        W17091   4.995   9.748  13.636  0.0644  0.3645 -0.0839
 1623W        W17092   6.797   6.712   3.543  0.0607 -0.1212  0.2314
 1624W        W17093  11.118  10.130  11.499 -0.0494  0.0362  0.0453
 1625W        W17094   3.423  14.037  14.791 -0.0127 -0.2354 -0.1780
 1626W        W17095   6.192  11.711   0.443 -0.2622 -0.0922  0.0545
 1627W        W17096  10.379   8.910   0.944 -0.0921 -0.0560  0.1982
 1628W        W17097   4.243  14.230  15.449  0.0235 -0.3326 -0.2844
 1629W        W17098  16.268  15.831  11.703 -0.1485  0.0019 -0.2053
 1630W        W17099   7.224   6.204  12.136 -0.0681  0.1267 -0.0352
 1631W        W17100  14.911   9.950   1.380  0.0360  0.2065  0.0984
 1632W        W17101  13.991  13.466   2.708 -0.2066 -0.1193 -0.2061
 1633W        W17102   4.543  14.191  14.460 -0.1915 -0.1235 -0.3418
 1634W        W17103  13.939  12.927   2.790 -0.3244  0.1923  0.1961
 1635W        W17104  16.925  14.197  12.638 -0.2388 -0.1391 -0.0170
 1636W        W17105   1.734  17.206   3.194 -0.0760  0.0875  0.0190
 1637W        W17106  18.088  12.641   0.645 -0.1623 -0.2098 -0.0370
 1638W        W17107  11.176   8.410   3.236  0.0934  0.2885 -0.1206
 1639W        W17108   4.307   7.468   1.371 -0.3312 -0.2498 -0.1906
 1640W        W17109   1.139   8.533  12.585  0.5285 -0.0967  0.3271
 1641W        W17110   8.037   0.354   4.040  0.0108  0.1386  0.0400
 1642W        W17111  13.278   4.521  14.446 -0.0637 -0.0174  0.2349
 1643W        W17112   2.704   9.543  10.559 -0.1229 -0.1861 -0.2622
 1644W        W17113   4.033  13.833  12.456  0.0895  0.0126  0.1173
 1645W        W17114  15.969  11.740   2.331 -0.0846 -0.1106 -0.2917
 1646W        W17115  11.366   3.498  10.615  0.2731  0.0457  0.0384
 1647W        W17116   6.559   6.552  15.415  0.0148  0.0335  0.2794
 1648W        W17117   4.645  17.881  15.738  0.1197 -0.3528 -0.1149
 1649W        W17118   2.159   2.348   5.102  0.0975 -0.0430  0.0219
 1650W        W17119   5.053   2.638  11.207  0.2011  0.0964  0.0148
 1651W        W17120   2.049  14.623   3.629 -0.0552  0.0160 -0.0739
 1652W        W17121   9.424   2.257  13.498  0.2432 -0.0781 -0.0504
 1653W        W17122  14.791  13.326   0.467 -0.1760 -0.1686  0.0157
 1654W        W17123  17.907   7.793   3.470  0.1399 -0.3619 -0.1253
 1655W        W17124   7.444  13.378  14.656  0.2502  0.0033 -0.1996
 1656W        W17125  13.219   9.355   3.286  0.1578 -0.2199 -0.1405
 1657W        W17126   8.299   6.669  11.861 -0.1671  0.1124  0.1255
 1658W        W17127  15.387   6.258   4.852  0.5252  0.2809  0.1640
 1659W        W17128  15.206  12.978  13.802  0.4451  0.1289 -0.2507
 1660W        W17129   5.987   7.471   0.067 -0.1515 -0.0603 -0.1069
 1661W        W17130  16.472   8.769   3.537  0.1223  0.1267  0.0845
 1662W        W17131  10.407  13.073  12.932 -0.1838 -0.1432  0.0026
 1663W        W17132  17.092   8.973  10.657  0.2537 -0.1016 -0.0733
 1664W        W17133  14.493  12.491   1.843  0.2629 -0.0057 -0.1799
 1665W        W17134  13.725  16.640  14.959  0.2596  0.0470 -0.4022
 1666W        W17135   7.996  13.318   4.303 -0.0515  0.2382  0.2314
 1667W        W17136   7.597   6.168   4.757 -0.0669 -0.0457 -0.0462
 1668W        W17137   5.436  16.637  10.460  0.0398  0.0425  0.1445
 1669W        W17138  15.871   4.902  12.287 -0.0618 -0.0184  0.1854
 1670W        W17139  17.081  15.964   5.601  0.0855  0.1545  0.1081
 1671W        W17140   6.702  12.784  12.664  0.0397  0.2493 -0.0797
 1672W        W17141  18.374   6.795   2.067 -0.0726 -0.1472  0.3077
 1673W        W17142   8.155  17.095   0.848  0.1408  0.2438  0.0831
 1674W        W17143  12.035   7.296   4.756 -0.1301  0.0969 -0.0083
 1675W        W17144   3.430   9.819   2.589  0.1995  0.1708  0.4402
 1676W        W17145   3.864   4.094   1.897  0.4462  0.2424 -0.0565
 1677W        W17146   8.483   2.845   1.819  0.0856 -0.0613  0.3858
 1678W        W17147   5.832   9.789  14.802  0.2751  0.0469  0.1037
 1679W        W17148   4.837  14.253  12.190 -0.0670  0.1861  0.0011
 1680W        W17149  14.372   9.293   3.779  0.0849  0.1563 -0.1269
 1681W        W17150  16.752  17.870  15.452 -0.0977 -0.0650  0.1787
 1682W        W17151  12.174  11.113   0.875  0.2317 -0.3093  0.0803
 1683W        W17152  11.616  16.522   2.320  0.1658 -0.2580 -0.0199
 1684W        W17153  11.395   4.742   5.833  0.1650 -0.2565  0.2637
 1685W        W17154  17.736  13.554  11.431 -0.2141  0.0553 -0.0296
 1686W        W17155  14.632   8.191  14.672 -0.0174 -0.0395 -0.0093
 1687W        W17156  13.131   2.027   1.507  0.1103 -0.0559 -0.4568
 1688W        W17157  18.337   6.960   0.750 -0.1612  0.2970  0.1803
 1689W        W17158  15.544  14.764  14.536 -0.1392  0.1997  0.3243
 1690W        W17159  10.633   7.999   4.252  0.0282 -0.0822 -0.2637
 1691W        W17160  14.266   9.328  13.726 -0.0315 -0.0573 -0.0235
 1692W        W17161  10.605  14.119   3.853  0.0585  0.1165  0.0865
 1693W        W17162  13.507  11.153   2.167  0.1363 -0.0678  0.1260
 1694W        W17163  16.695   7.590  14.904  0.1410  0.1009  0.1149
 1695W        W17164   8.838   3.831  14.060  0.1418 -0.0662  0.3316
 1696W        W17165  17.663   0.897   3.152 -0.0219 -0.4128 -0.0315
 1697W        W17166  13.754   9.049   2.443 -0.0504  0.1425  0.0097
 1698W        W17167  16.833   2.548  12.006 -0.1722  0.0651  0.0646
 1699W        W17168  10.199  13.837   3.658  0.0788  0.1834  0.1060
 1700W        W17169  14.368   4.809  13.173 -0.1087 -0.0899 -0.0341
 1701W        W17170  13.313   5.358  12.079  0.1892 -0.1588 -0.1508
 1702W        W17171   6.238   1.239  10.092 -0.1690  0.5242  0.3264
 1703W        W17172  16.328  18.063   2.417 -0.1485  0.0109  0.0462
 1704W        W17173  11.782   7.313   3.089  0.1716  0.3967  0.0160
 1705W        W17174   2.412  15.911  12.629  0.0811 -0.1591  0.3190
 1706W        W17175   0.164  18.252   1.958 -0.3871  0.2434  0.0144
 1707W        W17176   5.347  18.072   6.046  0.2823  0.0434 -0.1409
 1708W        W17177   7.616  16.338  12.755  0.2746  0.1183  0.0317
 1709W        W17178   0.601   4.685   2.033  0.1915  0.3412 -0.1140
 1710W        W17179   0.628   2.294  11.938  0.0852  0.0187  0.1314
 1711W        W17180   3.192   0.878  10.996  0.3512 -0.0061 -0.0329
 1712W        W17181   6.105   5.010  12.194 -0.4205 -0.0308  0.3357
 1713W        W17182   2.506  16.270   3.334 -0.1728  0.0956 -0.1470
 1714W        W17183   6.321   2.683   0.163  0.0484 -0.0299  0.2477
 1715W        W17184   6.668  10.383   3.286  0.1862  0.0364  0.0087
 1716W        W17185   1.302  17.863   3.720 -0.1432 -0.1373  0.2835
 1717W        W17186  11.546  17.741   6.359 -0.1202 -0.2624 -0.3021
 1718W        W17187  14.917   4.274   0.918  0.2000 -0.0380 -0.1245
 1719W        W17188  11.673  11.203  11.782  0.1600  0.1366 -0.0329
 1720W        W17189   9.171  14.812   3.479  0.2204 -0.1745  0.0473
 1721W        W17190   5.108  17.720   1.767 -0.1924 -0.0719  0.1217
 1722W        W17191  13.501  10.269   3.102  0.1351  0.3204 -0.1283
 1723W        W17192  11.746  14.442  15.484  0.2392  0.0780 -0.2250
 1724W        W17193  13.302   6.069  15.537 -0.1374 -0.0766 -0.0571
 1725W        W17194   8.561   3.936  10.881 -0.0806 -0.0969  0.1715
 1726W        W17195   5.196   7.358  10.438  0.2834  0.1158  0.0481
 1727W        W17196   9.510  14.253  14.855  0.0908  0.1418  0.1537
 1728W        W17197   5.735  10.958   9.823  0.2995  0.2268 -0.0173
 1729W        W17198  11.125   2.748   2.069  0.2811  0.1597  0.3335
 1730W        W17199   0.834  18.423  12.916  0.0859 -0.3320  0.2584
 1731W        W17200  11.267   9.492   2.445  0.0412  0.1730 -0.2391
 1732W        W17201  15.058   6.080  11.783  0.2662  0.0536  0.5791
 1733W        W17202  10.344   8.904   2.888  0.5460 -0.1389  0.1348
 1734W        W17203   7.084  13.190  11.586 -0.2944 -0.0659 -0.2678
 1735W        W17204   7.152   4.325  15.490  0.1815  0.2452 -0.2417
 1736W        W17205  11.040   2.072   0.625 -0.2626 -0.1530 -0.0981
 1737W        W17206   0.561   9.473   2.836 -0.2166 -0.2814  0.3869
 1738W        W17207  18.419   6.231   0.236  0.1413  0.4861  0.1252
 1739W        W17208  18.468   5.626  14.805  0.0740 -0.0539  0.0451
 1740W        W17209   3.794  16.523  10.309 -0.0962 -0.2999 -0.1692
 1741W        W17210   2.315  13.445   0.514  0.1340 -0.0751  0.0634
 1742W        W17211  16.876  13.244  11.864  0.1597  0.1327  0.0756
 1743W        W17212  18.079   0.465   0.147  0.0929  0.0807 -0.1338
 1744W        W17213  13.522  12.883   4.278  0.3729 -0.0649  0.0551
 1745W        W17214  15.759  14.778  14.960 -0.1896  0.2153 -0.2283
 1746W        W17215  14.305   5.801   2.117 -0.1682 -0.0352 -0.2660
 1747W        W17216  17.914   0.131  11.569  0.3274  0.0300 -0.0878
 1748W        W17217  15.744   6.781  11.770 -0.0103  0.2028 -0.1913
 1749W        W17218   2.119   5.983  14.410 -0.0784 -0.1283 -0.1991
 1750W        W17219   4.139  13.908  14.216 -0.1569 -0.0551  0.0617
 1751W        W17220  12.568   4.870  14.073 -0.1708  0.0452 -0.1984
 1752W        W17221   2.816   3.410   2.701  0.3558  0.3763 -0.2731
 1753W        W17222  12.417  17.718  14.197 -0.1502  0.1650 -0.0666
 1754W        W17223  14.827  14.852   2.141 -0.0827  0.0796  0.1346
 1755W        W17224   5.697   2.071   2.834 -0.0409  0.2110 -0.2014
 1756W        W17225   2.127   3.405  15.796  0.0161 -0.0002 -0.2892
 1757W        W17226  11.043   9.772   2.823 -0.1678  0.4879 -0.2534
 1758W        W17227  13.692   0.248  12.608  0.0573 -0.1260  0.0646
 1759W        W17228  13.738   4.177   0.143  0.0205  0.0603  0.2915
 1760W        W17229  15.161   6.339   4.390 -0.0678 -0.2036  0.0079
 1761W        W17230   7.625   3.453   0.601  0.0726  0.1150  0.1500
 1762W        W17231   0.192  10.906  13.880 -0.3001  0.2528 -0.1262
 1763W        W17232  14.283  15.808   2.181 -0.0720 -0.1559  0.1602
 1764W        W17233   6.429   3.168  11.370 -0.1863 -0.1400 -0.0449
 1765W        W17234   4.808  18.122   3.823 -0.1585  0.2615  0.0128
 1766W        W17235  11.456   1.993   5.280 -0.2142  0.2787  0.3234
 1767W        W17236   1.079   1.418   2.789  0.0355 -0.0879  0.0326
 1768W        W17237  12.977   7.185  13.229 -0.0523 -0.0202 -0.2239
 1769W        W17238   1.602   2.971   2.395 -0.0634  0.0505  0.0201
 1770W        W17239   9.508   7.561   3.110 -0.0941 -0.3616  0.0047
 1771W        W17240  15.347  14.848  14.019  0.0757  0.0803 -0.2102
 1772W        W17241   7.293   6.113   3.005 -0.1686  0.0186 -0.0767
 1773W        W17242   3.828   6.417   1.839 -0.2829  0.0677  0.1828
 1774W        W17243   7.559  14.034   2.520  0.2352  0.0636 -0.0525
 1775W        W17244   3.040   6.985   0.000  0.4584 -0.3665 -0.3981
 1776W        W17245   2.034   2.118  14.905  0.2817  0.0897 -0.0769
 1777W        W17246   5.329  14.953  15.900 -0.1371  0.2122 -0.1030
 1778W        W17247   3.432  18.046   2.338 -0.1651 -0.2103  0.0315
 1779W        W17248   6.183   2.711   2.533 -0.4270 -0.1728 -0.4833
 1780W        W17249   9.711   2.623  14.929  0.0356 -0.1623  0.1633
 1781W        W17250  13.573  17.530   1.311 -0.2902  0.0383 -0.3512
 1782W        W17251   4.586   4.489   3.315  0.0597 -0.2555 -0.1859
 1783W        W17252   8.159   2.852  14.301 -0.3765 -0.1202  0.0252
 1784W        W17253   4.938   1.902  12.808  0.2756  0.0805 -0.0750
 1785W        W17254  14.510  17.890  13.911  0.0711  0.1113 -0.0838
 1786W        W17255   8.923  17.720  12.601 -0.0470  0.3060  0.1158
 1787W        W17256  12.214   3.360   3.787  0.1670 -0.1166 -0.1683
 1788W        W17257   9.688  14.821   0.576 -0.2599  0.1227  0.0054
 1789W        W17258   9.978  15.376   4.955 -0.1846  0.2420  0.0806
 1790W        W17259   3.901  16.363  11.075 -0.2026  0.0791 -0.1404
 1791W        W17260   8.813   0.700  12.546  0.0124  0.1813 -0.0152
 1792W        W17261  11.585  15.916   2.513 -0.1553 -0.1640 -0.0250
 1793W        W17262  14.809  13.746  12.584  0.2594  0.0341  0.0923
 1794W        W17263   0.410   8.866  12.525  0.0277 -0.2167 -0.2781
 1795W        W17264   2.160   0.173   5.198  0.1459 -0.2531 -0.0031
 1796W        W17265   1.651  10.262  15.498  0.2465  0.0115  0.2032
 1797W        W17266  12.336   5.865  15.440 -0.1368  0.5593 -0.0153
 1798W        W17267  14.662   0.907  15.491 -0.0178  0.4529 -0.2694
 1799W        W17268  17.801   3.738   3.425 -0.5156  0.2379 -0.4748
 1800W        W17269   6.190   1.263   4.952  0.1730  0.0047 -0.2215
 1801W        W17270  15.240  15.226   1.918  0.0263 -0.0440  0.1606
 1802W        W17271   5.474  14.522  11.159  0.1121  0.2342 -0.0524
 1803W        W17272  18.395   8.093   0.094 -0.0194 -0.0668  0.2323
 1804W        W17273   6.338   7.741   3.768 -0.0350  0.1684 -0.0659
 1805W        W17274   4.409   4.825  13.130  0.1136  0.0720  0.0488
 1806W        W17275  14.995   8.054   3.947  0.1996 -0.1510 -0.2726
 1807W        W17276  17.439  16.967  15.024  0.2892 -0.4209 -0.1819
 1808W        W17277   5.738  10.233  13.607 -0.0074  0.7542 -0.2512
 1809W        W17278   5.240  16.892  13.124 -0.0712  0.0329  0.3549
 1810W        W17279   5.387   4.986   4.901  0.1803  0.0175  0.2147
 1811W        W17280   7.498  17.544   3.067  0.0650 -0.1862 -0.0878
 1812W        W17281   5.414   4.605  15.477  0.0252 -0.2768  0.2674
 1813W        W17282  16.907   2.155  12.366  0.1707 -0.1615 -0.2464
 1814W        W17283   8.792   7.372   5.044 -0.2061 -0.0422 -0.0507
 1815W        W17284  16.246   7.523   2.987  0.0056  0.1000  0.1643
 1816W        W17285  14.771   0.604   2.304  0.0308  0.2701 -0.1771
 1817W        W17286   1.297  17.218   1.815 -0.4043  0.5271  0.2347
 1818W        W17287   9.926   7.764   5.481  0.2923  0.2912  0.2869
 1819W        W17288   0.669   3.332   5.215 -0.2495 -0.0612 -0.3484
 1820W        W17289   8.381  13.413   0.046  0.0195  0.0586 -0.2303
 1821W        W17290   0.077   1.929   2.190 -0.1033 -0.0660 -0.0175
 1822W        W17291   4.720   1.892   2.814 -0.0609 -0.0676  0.2220
 1823W        W17292   3.722   6.021  11.353  0.0710 -0.0159 -0.0327
 1824W        W17293  13.918  12.952   1.930 -0.0206 -0.0870 -0.2962
 1825W        W17294  10.562   8.873   4.430  0.2204 -0.1193  0.2003
 1826W        W17295   6.208  11.181  12.465 -0.0207  0.0804 -0.1881
 1827W        W17296   8.833  14.252  15.641 -0.0312 -0.0385 -0.1251
 1828W        W17297   5.537   6.076  13.631 -0.0245  0.1470  0.0082
 1829W        W17298   6.675   4.398   0.831 -0.2535  0.2362 -0.0488
 1830W        W17299  16.400  11.761  13.946  0.1753 -0.0713 -0.3170
 1831W        W17300  15.831  11.204   1.772  0.0172  0.0266  0.0410
 1832W        W17301  13.471   7.033  10.762 -0.4018  0.2451  0.2934
 1833W        W17302  10.488  13.509  13.314  0.0918 -0.0443  0.0875
 1834W        W17303   3.455  16.245  11.214 -0.1476  0.2466 -0.0347
 1835W        W17304   2.121   9.107  12.789 -0.1330  0.1555 -0.3540
 1836W        W17305   8.220   4.076   4.052  0.1730 -0.0656  0.1680
 1837W        W17306   7.391  12.536  12.700 -0.1729  0.0086 -0.1394
 1838W        W17307   6.743  11.619  11.767  0.2328 -0.2211 -0.3357
 1839W        W17308   0.902  11.348  12.332 -0.1103 -0.1871 -0.0038
 1840W        W17309   0.097   3.352   1.441  0.1164  0.0532  0.3045
 1841W        W17310   3.166  16.162  14.436 -0.2497  0.0121  0.0123
 1842W        W17311  14.647   5.215  15.639  0.0588  0.3568 -0.0030
 1843W        W17312   3.040  13.221  14.471  0.2415  0.2448 -0.0516
 1844W        W17313   0.045   1.779  13.980 -0.0290 -0.2568  0.0324
 1845W        W17314  12.601  15.866  13.936  0.0985  0.0608 -0.2605
 1846W        W17315  12.144   6.964   3.797  0.4751 -0.1270  0.0384
 1847W        W17316  16.589  14.138  15.154 -0.1215  0.1377  0.0201
 1848W        W17317   4.553  16.514   2.924 -0.1597 -0.1955  0.0388
 1849W        W17318  17.402  12.885   5.147  0.0861 -0.0008  0.0718
 1850W        W17319   4.608   0.399  13.160  0.3916  0.1802 -0.2713
 1851W        W17320   0.841  16.702   0.200  0.3020  0.1826  0.0121
 1852W        W17321   9.569   6.367   9.942 -0.0061 -0.2807  0.1625
 1853W        W17322  10.522   6.103   4.040  0.1180 -0.1469  0.2070
 1854W        W17323  14.285  13.117  15.092 -0.1908 -0.2393  0.0552
 1855W        W17324  14.950  13.325   3.048  0.0614 -0.0311 -0.1147
 1856W        W17325   2.942   5.694  10.499 -0.2015 -0.2981  0.0722
 1857W        W17326   0.824   2.293   5.681  0.1702 -0.2100  0.2704
 1858W        W17327   0.020  12.957  14.953 -0.3099 -0.1145 -0.0458
 1859W        W17328   4.683   6.163  11.101 -0.0581 -0.1445 -0.2214
 1860W        W17329  17.095   3.134   5.332  0.0370  0.1804  0.1164
 1861W        W17330  10.465   4.542  14.405  0.0430  0.1963 -0.0240
 1862W        W17331   5.313   4.239   4.423  0.0708  0.3747 -0.0456
 1863W        W17332  16.685   5.199  14.555  0.0516  0.2875 -0.1645
 1864W        W17333   3.027  18.406  13.082 -0.0827  0.1817  0.0598
 1865W        W17334   7.187  15.020   5.139 -0.0548  0.2006  0.2664
 1866W        W17335   2.491  11.310  12.557 -0.0011 -0.0646  0.1052
 1867W        W17336  14.445   8.260   3.075 -0.4639 -0.2009 -0.0403
 1868W        W17337   9.483   6.860  15.838 -0.1235  0.0640 -0.2732
 1869W        W17338   3.319  11.849  13.391 -0.1413  0.3426  0.0033
 1870W        W17339  11.293  15.124   2.966  0.1039  0.1419 -0.3812
 1871W        W17340   2.410  17.698   3.102  0.4130 -0.0195  0.0294
 1872W        W17341  10.792   6.696   3.656  0.0870  0.1090 -0.0012
 1873W        W17342   4.774  17.324   5.055 -0.1344 -0.1833  0.3296
 1874W        W17343  12.547  11.964   0.897  0.2025  0.1358  0.2509
 1875W        W17344  13.919   8.042   3.690 -0.0447  0.1450 -0.0854
 1876W        W17345   2.402   2.514  15.365 -0.0281  0.1437 -0.1743
 1877W        W17346  11.768   6.424  14.447 -0.1184 -0.0857 -0.2898
 1878W        W17347   2.315   7.164  12.590 -0.1125 -0.3484 -0.2799
 1879W        W17348   8.670  17.755   5.652  0.2100 -0.0150 -0.5236
 1880W        W17349  13.214  18.116   3.067  0.1746  0.3019 -0.1414
 1881W        W17350  13.726  13.601  15.759 -0.0934  0.2052 -0.0244
 1882W        W17351   7.253  14.039  15.826  0.2132  0.1266 -0.1966
 1883W        W17352   5.890  11.693   1.610  0.0123 -0.1340  0.3305
 1884W        W17353   4.891  11.132  11.995  0.0292 -0.0092 -0.0751
 1885W        W17354   6.433   2.816  12.907 -0.1950  0.1796 -0.1600
 1886W        W17355  18.077   1.646  11.303 -0.2615 -0.4269 -0.1032
 1887W        W17356  15.462   5.389  13.863 -0.1647  0.1356 -0.3565
 1888W        W17357   7.404  17.083  13.385  0.0556 -0.0623 -0.1288
 1889W        W17358  18.037  13.364   2.153 -0.0239 -0.0622  0.0582
 1890W        W17359  11.529   1.180  11.189  0.0401  0.2180 -0.2239
 1891W        W17360  11.051   7.969  15.493  0.0042  0.0254  0.1115
 1892W        W17361  12.215  12.413   2.143  0.0974  0.3071  0.0428
 1893W        W17362   2.779   4.987   2.714 -0.2564 -0.1004 -0.0365
 1894W        W17363   8.062  11.400  12.136  0.2350 -0.1280 -0.3842
 1895W        W17364   0.017   7.412   3.021  0.1649  0.2407 -0.1644
 1896W        W17365  15.130   2.025   1.558  0.1618  0.0138  0.4324
 1897W        W17366  10.402   8.494  12.745 -0.0290  0.0155  0.0528
 1898W        W17367   2.996  12.298   1.380  0.2979 -0.0349 -0.1214
 1899W        W17368   1.490  14.698   2.271 -0.0972 -0.0479  0.0258
 1900W        W17369  10.473  18.236  14.896  0.0905 -0.1241 -0.0643
 1901W        W17370   8.465  14.518  13.951 -0.0187  0.2498  0.0480
 1902W        W17371  17.079   2.564   4.717  0.0495 -0.0664  0.1424
 1903W        W17372  10.348   1.429   3.686 -0.0703 -0.0141  0.2144
 1904W        W17373  14.247   1.357  14.886 -0.0055 -0.1399 -0.1718
 1905W        W17374  12.816   0.521   2.255  0.0046 -0.2062  0.0738
 1906W        W17375  15.116   1.556   2.619 -0.2635 -0.1443  0.3201
 1907W        W17376   6.643   6.464  11.262  0.2639  0.0938 -0.1456
 1908W        W17377  18.437   8.570   3.673 -0.0189 -0.1063 -0.0598
 1909W        W17378  14.100   8.253  14.802 -0.0070  0.0304  0.0176
 1910W        W17379  15.968   0.886  12.321 -0.0818  0.1726 -0.1364
 1911W        W17380   2.808   0.937  13.798 -0.0576 -0.1241 -0.0355
 1912W        W17381  10.456   9.217   1.582 -0.0658  0.0946  0.1752
 1913W        W17382  12.248   8.150   3.177 -0.1183  0.0038  0.0313
 1914W        W17383   5.161   3.790  12.265 -0.1297  0.0513 -0.0362
 1915W        W17384  13.938   4.059  13.453 -0.2098 -0.1292 -0.0575
 1916W        W17385   2.623  16.517  11.150  0.0863  0.0028 -0.2786
 1917W        W17386  10.917  16.320   3.502  0.1542  0.1525  0.1502
 1918W        W17387   4.512  11.751   2.211  0.0138  0.0044  0.3205
 1919W        W17388   9.204  16.947   4.706 -0.1920 -0.0966  0.1250
 1920W        W17389   4.438  12.224  15.227  0.1268  0.3116 -0.1664
 1921W        W17390  16.167   8.593   0.680  0.0309  0.1302 -0.2045
 1922W        W17391   5.691   7.067   4.509 -0.0535  0.1921 -0.1457
 1923W        W17392   3.850  15.859   3.536 -0.1190  0.2040  0.1791
 1924W        W17393   4.521   2.985   2.540 -0.1429  0.0267 -0.1109
 1925W        W17394  13.242   0.201   2.988  0.0352  0.0268 -0.0955
 1926W        W17395  15.661  14.729   1.204  0.1258 -0.3755 -0.0329
 1927W        W17396   9.770   0.336  14.752  0.3382 -0.1826 -0.5088
 1928W        W17397  16.184   6.925   9.602  0.0802 -0.1217  0.2534
 1929W        W17398  12.548  13.238  12.351  0.4652  0.2154 -0.0070
 1930W        W17399   6.510  13.320  12.399 -0.0019 -0.2854  0.1684
 1931W        W17400   9.232  10.970  12.950  0.0163  0.5013  0.1531
 1932W        W17401   5.705  14.737  12.678 -0.4124  0.0069 -0.2264
 1933W        W17402  16.617   2.256   2.290 -0.1885 -0.0728  0.3413
 1934W        W17403   7.528  12.770   5.464 -0.1448 -0.0611 -0.1102
 1935W        W17404   1.671   8.971  15.048  0.0240 -0.1553  0.0465
 1936W        W17405   1.379  17.034  15.220  0.2603 -0.0546  0.3016
 1937W        W17406  15.646  17.669   0.636  0.0200 -0.2091 -0.1085
 1938W        W17407   6.322   1.995   0.162  0.0584  0.1789 -0.0635
 1939W        W17408   9.920  17.439   0.452  0.0188  0.0929 -0.1345
 1940W        W17409  14.885   3.701  12.379  0.1838  0.1528 -0.1074
 1941W        W17410   5.358  10.775   3.656 -0.1738  0.0864  0.0659
 1942W        W17411  13.664  13.392   1.653  0.1133 -0.1605  0.0875
 1943W        W17412  14.229   7.197   5.247  0.3473  0.3229  0.0631
 1944W        W17413  10.161   0.656  14.614  0.0321 -0.1322 -0.1050
 1945W        W17414   1.466  14.963   1.366 -0.0196 -0.2978  0.1539
 1946W        W17415  14.617  11.930  11.539  0.0100  0.3308 -0.0813
 1947W        W17416  11.090  15.973  13.520 -0.1814 -0.2128 -0.0452
 1948W        W17417   4.635  15.354   3.489  0.5246  0.0362  0.1490
 1949W        W17418   9.270   7.301   3.674  0.1147  0.1670  0.2016
 1950W        W17419   2.783   7.475  15.111 -0.3438 -0.0325 -0.0266
 1951W        W17420   5.054   5.429   0.783 -0.1564  0.1291 -0.1009
 1952W        W17421   3.782  10.843   1.742  0.1052  0.1000 -0.1748
 1953W        W17422   9.966   4.372  15.716  0.0743  0.0244 -0.2350
 1954W        W17423  11.918   2.315  11.253  0.2837 -0.0596 -0.1631
 1955W        W17424  17.389   2.875  11.209  0.0356 -0.1148 -0.1452
 1956W        W17425   9.582   1.484   1.074  0.2922  0.1242 -0.0449
 1957W        W17426   0.486   6.098  15.423  0.0552  0.0860 -0.0701
 1958W        W17427   0.813  13.879  11.607  0.0549  0.2757  0.5904
 1959W        W17428   1.010  10.285  12.863  0.0302  0.2066 -0.0503
 1960W        W17429  10.923  10.101   1.310  0.0002  0.0772 -0.2325
 1961W        W17430  12.911   1.166  14.443 -0.1204  0.1494  0.2158
 1962W        W17431  13.668   7.115   3.643  0.2772  0.2730 -0.2124
 1963W        W17432   0.093  17.058  12.345 -0.0192 -0.0864  0.0723
 1964W        W17433  15.675   7.455   2.361 -0.0195  0.1233 -0.0971
 1965W        W17434  15.344  12.897  15.754 -0.3328 -0.0184  0.2070
 1966W        W17435   2.498   6.103   0.573  0.1283  0.0153  0.0509
 1967W        W17436   1.191   5.665  14.231  0.0355  0.0191 -0.1569
 1968W        W17437   2.963   8.460   5.585 -0.0387  0.0967  0.1062
 1969W        W17438  11.609   5.300   4.231  0.5384  0.0525  0.3502
 1970W        W17439  14.551   0.493  13.032 -0.1939 -0.0639  0.3334
 1971W        W17440  11.572  15.644   5.074  0.0026 -0.0663  0.0755
 1972W        W17441  16.533  13.689  10.571  0.0509 -0.2304 -0.1097
 1973W        W17442  14.807   3.128   2.084 -0.1803  0.0525  0.0817
 1974W        W17443   8.297   6.050  12.862 -0.1335  0.0877  0.4166
 1975W        W17444   2.314  15.413   2.339 -0.0579 -0.0705  0.0426
 1976W        W17445   6.134   0.272   5.324  0.0942 -0.0468 -0.0507
 1977W        W17446  17.790  17.941   1.329 -0.0744 -0.1155 -0.1958
 1978W        W17447   6.947  11.108  14.739 -0.1233 -0.0027 -0.0241
 1979W        W17448  13.282   3.611  14.809 -0.0317 -0.0631 -0.3190
 1980W        W17449   6.768  11.901  14.188  0.0981  0.3269 -0.2475
 1981W        W17450   6.135   8.024   4.121  0.0336 -0.1354 -0.1588
 1982W        W17451   9.517  10.483  11.696  0.0616 -0.0380  0.0657
 1983W        W17452   7.838  15.452  13.940  0.1090  0.3008 -0.0307
 1984W        W17453  13.773   9.041  12.881  0.0491  0.4862 -0.0549
 1985W        W17454   5.759  14.206   2.135 -0.2732 -0.2358 -0.1011
 1986W        W17455   3.695   1.184  14.620 -0.2195  0.3767 -0.1189
 1987W        W17456  16.324   4.705   2.668 -0.3118 -0.1333 -0.0179
 1988W        W17457   1.331  14.406   0.812 -0.1233  0.1909  0.0097
 1989W        W17458  17.439   4.824   1.722 -0.2636 -0.2861 -0.1358
 1990W        W17459   2.923  16.810   2.534 -0.1610 -0.2224 -0.3762
 1991W        W17460   4.941  11.712  11.911 -0.4344  0.1956  0.3071
 1992W        W17461   4.360   0.859   0.756  0.0138  0.1184  0.0166
 1993W        W17462  16.212  17.705  15.776  0.2546 -0.0492  0.1057
 1994W        W17463  12.324  12.908   1.353  0.1054 -0.1469  0.1629
 1995W        W17464  12.320  18.099  13.335 -0.4451  0.3278 -0.0028
 1996W        W17465  13.028  14.999   1.588 -0.0130  0.1771 -0.1104
 1997W        W17466   1.532  11.892  13.353  0.1187  0.3157 -0.2094
 1998W        W17467   9.300   6.025   0.915 -0.0759 -0.1135 -0.1525
 1999W        W17468  12.949   0.643  15.866 -0.2953  0.0164 -0.0075
 2000W        W17469   4.312   3.148  13.934  0.0888  0.0447  0.0364
 2001W        W17470   3.139  12.056   3.252  0.1427 -0.1913  0.1169
 2002W        W17471   6.047  12.359  11.042  0.3326  0.0647  0.0176
 2003W        W17472   2.744   2.259   3.161  0.2065 -0.0408 -0.1219
 2004W        W17473   3.085   8.621  13.844  0.1648  0.1653  0.0126
 2005W        W17474  15.034   0.897  11.303  0.1091 -0.2409 -0.1849
 2006W        W17475   9.770   2.342  14.027 -0.0632 -0.0312 -0.0163
 2007W        W17476   4.865   8.513   0.818 -0.1120  0.0186 -0.0622
 2008W        W17477  11.178   1.160   6.177 -0.3491  0.0309 -0.0784
 2009W        W17478  15.403  16.115   1.497 -0.2407  0.1270  0.0092
 2010W        W17479  13.792   0.262  11.640 -0.3179 -0.1953  0.3107
 2011W        W17480  13.573  14.050   4.299  0.2387 -0.1651  0.1053
 2012W        W17481  12.688  14.288  11.478  0.1932 -0.0712 -0.1816
 2013W        W17482   7.523   8.836  12.358 -0.0545 -0.3529  0.0360
 2014W        W17483   5.988  12.165  15.831  0.0179  0.0875 -0.0429
 2015W        W17484  14.439  12.476   0.478  0.0272  0.0820 -0.0363
 2016W        W17485   8.287   5.334   3.244 -0.0724 -0.2594 -0.2119
 2017W        W17486   6.930   5.157   0.355 -0.1221  0.1820  0.2153
 2018W        W17487   1.622  17.790  11.584  0.1175  0.1857  0.0385
 2019W        W17488  16.229  15.694   4.104 -0.0027  0.2815 -0.0666
 2020W        W17489  16.191  14.857  12.558 -0.3193  0.1902  0.1421
 2021W        W17490   9.812  16.366   2.097  0.0427 -0.3238  0.1585
 2022W        W17491  16.616   2.384  11.546  0.2176 -0.0079 -0.2511
 2023W        W17492  13.911  11.341  13.179 -0.1790  0.2053 -0.0963
 2024W        W17493   2.849   8.130   2.588  0.2556  0.2497 -0.3862
 2025W        W17494  18.130  12.883   2.488  0.2158  0.1228 -0.1221
 2026W        W17495   0.738  11.622   9.312  0.3115  0.0429  0.1100
 2027W        W17496   0.191  14.560   5.241  0.0026  0.1446 -0.0959
 2028W        W17497  11.421   4.513  12.008 -0.0642  0.2908 -0.0099
 2029W        W17498   3.794  16.706   1.701 -0.1229  0.0417 -0.2421
 2030W        W17499   2.025  16.291   3.500  0.0165 -0.1242  0.0300
 2031W        W17500   5.595   7.898   3.400 -0.0241 -0.3894  0.0894
 2032W        W17501  17.320   4.408   0.827  0.2093  0.3888  0.1552
 2033W        W17502  16.466  10.972   1.549 -0.2413 -0.1641  0.0733
 2034W        W17503   3.661   7.967  11.313  0.5727  0.4895 -0.1413
 2035W        W17504  16.365   2.964   4.863  0.0981 -0.0016  0.2841
 2036W        W17505   2.655  12.132   2.344  0.0044  0.0710  0.0375
 2037W        W17506  17.827   8.722   4.604 -0.3420  0.2437 -0.0780
 2038W        W17507   6.242  11.237   2.665 -0.0442  0.3506  0.0736
 2039W        W17508  13.037   3.598   4.504 -0.0211  0.0079 -0.2547
 2040W        W17509   4.559  13.814  15.323  0.0214  0.0927 -0.0601
 2041W        W17510   9.888   1.702   2.782  0.0577 -0.2000  0.1556
 2042W        W17511  10.572  16.951   5.736 -0.2720  0.0810  0.3082
 2043W        W17512   9.242  14.632  11.984  0.2473 -0.0393 -0.0740
 2044W        W17513   2.628  17.203   0.425  0.1054 -0.2086 -0.1432
 2045W        W17514   1.707   6.812  11.212 -0.0398  0.1177 -0.0661
 2046W        W17515  12.445   2.034   5.171 -0.2501 -0.0944 -0.0400
 2047W        W17516   6.379   7.589   2.493  0.2130 -0.3160 -0.1145
 2048W        W17517   7.130  14.623   1.861 -0.0827  0.1219 -0.3192
 2049W        W17518   3.112   4.800   4.210  0.4542 -0.0167 -0.2140
 2050W        W17519  12.726  15.022   1.113 -0.0869  0.0940 -0.0555
 2051W        W17520  13.581   3.591  13.265  0.1466 -0.2684  0.0772
 2052W        W17521   5.777  18.165   0.234 -0.1212  0.0562 -0.1177
 2053W        W17522   1.577  14.833   0.931  0.0648  0.0185 -0.0980
 2054W        W17523   9.429  10.887  14.814  0.1937  0.0806 -0.2019
 2055W        W17524  17.564   7.107  14.723  0.0302  0.0983 -0.0222
 2056W        W17525  15.189   0.574   1.986  0.0261 -0.2200  0.0592
 2057W        W17526   3.153   5.048   2.097  0.1972 -0.0489  0.2514
 2058W        W17527   9.956  10.987   1.067  0.2037 -0.0374  0.0444
 2059W        W17528   4.514  16.550   4.846  0.5531  0.1656  0.2174
 2060W        W17529  15.751   6.604   3.466  0.3817  0.1329 -0.2164
 2061W        W17530  14.975   0.499  15.613  0.1394  0.3152  0.0512
 2062W        W17531  13.018   0.951   1.899  0.2326 -0.2628  0.0823
 2063W        W17532  16.746  16.107  14.341 -0.3036 -0.1569  0.0675
 2064W        W17533  11.624  15.264  11.942 -0.0664 -0.1566  0.4073
 2065W        W17534   8.084   2.933   4.365 -0.1497 -0.0871  0.0305
 2066W        W17535  11.940   5.444   1.615  0.1480 -0.3243 -0.1165
 2067W        W17536  16.989   2.628   2.181 -0.0446  0.0244 -0.0853
 2068W        W17537   1.012  17.315  11.018  0.0680 -0.2815  0.0003
 2069W        W17538   3.377   0.831  14.362 -0.0628 -0.0703  0.1576
 2070W        W17539  16.644   8.841  13.280 -0.1619  0.0804  0.4576
 2071W        W17540  16.284  17.632   3.196  0.0119 -0.1398  0.2134
 2072W        W17541  15.204   6.927  11.761  0.0804  0.2942 -0.0351
 2073W        W17542  14.508   0.010   1.454 -0.0786  0.0064  0.2759
 2074W        W17543   0.334   9.907   3.979 -0.0643 -0.0075  0.1780
 2075W        W17544  15.069  16.959  11.108  0.1143 -0.1914 -0.4594
 2076W        W17545   2.273  11.634  14.435 -0.2559 -0.0680 -0.1726
 2077W        W17546  11.462   5.611   5.207  0.0394  0.0800 -0.0880
 2078W        W17547  10.040  15.196   1.312 -0.2367 -0.3419  0.0917
 2079W        W17548  16.001  14.834   0.289 -0.0518 -0.0718  0.0638
 2080W        W17549  17.845  11.119   0.070 -0.2817  0.0786 -0.1550
 2081W        W17550  15.945  14.745   2.118  0.2136 -0.0455  0.0247
 2082W        W17551  16.892  16.516  13.751 -0.1110 -0.0865 -0.0508
 2083W        W17552  15.818   8.307  12.718  0.0300 -0.0203  0.0101
 2084W        W17553  18.113  12.746  15.262  0.0209 -0.0329 -0.0504
 2085W        W17554   9.000  14.587  13.590  0.0575  0.3679  0.0559
 2086W        W17555   5.085  17.467  13.405 -0.2018 -0.0397  0.1752
 2087W        W17556   1.991   7.526  10.966  0.1127 -0.0021 -0.0681
 2088W        W17557  17.811   4.921   4.175  0.1411 -0.0171  0.0021
 2089W        W17558  12.524   9.488   1.154 -0.3091  0.0035 -0.1839
 2090W        W17559  12.144  16.885   4.885  0.0575 -0.0550  0.1365
 2091W        W17560  11.100  13.263  10.995 -0.2311  0.1067  0.1173
 2092W        W17561  12.324   8.226  13.710 -0.0238  0.2780  0.0235
 2093W        W17562   5.459  16.904   1.185  0.1666 -0.2649 -0.3969
 2094W        W17563   9.366   3.595  11.435 -0.2264  0.4271 -0.2691
 2095W        W17564  10.681   3.912  11.065 -0.0077 -0.0009  0.0277
 2096W        W17565   0.413  12.082   5.759 -0.1399  0.2137  0.1452
 2097W        W17566  10.545  13.681   2.115  0.0986 -0.2650 -0.0950
 2098W        W17567   0.738   2.674   3.748  0.3062 -0.0262 -0.2426
 2099W        W17568  13.974   2.345  11.893 -0.4826  0.1548  0.0158
 2100W        W17569   9.874   7.957  13.487  0.0113 -0.1793  0.1321
 2101W        W17570  16.609  18.439   4.974  0.1473 -0.1486 -0.0649
 2102W        W17571   8.492   7.182  10.083 -0.4896 -0.2011 -0.0386
 2103W        W17572  14.250   7.658  15.835 -0.1368 -0.1298 -0.1316
 2104W        W17573  14.437  10.172   4.234 -0.1976  0.0868  0.0959
 2105W        W17574   7.046   1.729   5.460  0.0367  0.0696  0.1407
 2106W        W17575   3.795   4.564   4.442 -0.0901  0.0844 -0.1988
 2107W        W17576  14.440  12.434  13.463 -0.1717  0.2411 -0.1024
 2108W        W17577  15.348  13.214  12.419 -0.1633 -0.0640  0.2882
 2109W        W17578  10.343   5.287  11.972  0.0989 -0.2922  0.3886
 2110W        W17579  11.950   3.552  13.274  0.1090  0.2030  0.0173
 2111W        W17580  12.336  12.957  14.771  0.1361 -0.1919  0.1766
 2112W        W17581   0.956   0.153   0.907 -0.0862 -0.0976 -0.0996
 2113W        W17582   8.115   3.364  14.459 -0.4276 -0.2472  0.1531
 2114W        W17583  15.808   4.507   0.879 -0.1381 -0.0024  0.0428
 2115W        W17584   4.562  15.564   3.018  0.0853 -0.2882  0.2211
 2116W        W17585   5.168  15.848   4.113 -0.2128  0.0117  0.0588
 2117W        W17586   5.058   7.376  13.401  0.0927  0.1460 -0.1913
 2118W        W17587   8.821  11.591   1.337 -0.2139  0.1456  0.0704
 2119W        W17588   6.537  15.226   1.646  0.1305  0.1298  0.1200
 2120W        W17589   5.628   4.310   2.140  0.1611  0.3550 -0.1956
 2121W        W17590  16.392  11.771  13.385 -0.0019  0.2536  0.0404
 2122W        W17591  13.486   4.899  11.314  0.0565  0.2885  0.0708
 2123W        W17592  14.458   7.164   4.381 -0.1005 -0.0758 -0.1415
 2124W        W17593   3.644   5.860   0.132  0.0699 -0.0825 -0.1275
 2125W        W17594  11.321   4.292  15.682 -0.0527 -0.0577  0.2018
 2126W        W17595   3.095  16.392   0.217 -0.1164 -0.1518 -0.0845
 2127W        W17596  16.434  15.020   5.106  0.1661 -0.1092  0.1752
 2128W        W17597   6.672  12.997  13.222  0.2153  0.0270  0.1398
 2129W        W17598   5.547   0.830   3.831 -0.0593 -0.1744  0.2112
 2130W        W17599  13.565  11.085   4.632  0.2679  0.0824  0.1701
 2131W        W17600  16.274  12.400  14.026 -0.5277  0.0320 -0.0278
 2132W        W17601   0.770  16.996   3.324 -0.0715  0.1842 -0.1329
 2133W        W17602  12.493  10.906  13.531  0.0464 -0.2555  0.1056
 2134W        W17603   1.623   4.524  13.520  0.0920  0.3022  0.4844
 2135W        W17604   5.777  17.476  14.674 -0.5700 -0.1204  0.2312
 2136W        W17605  10.857  17.892   0.124  0.2184 -0.0825 -0.0863
 2137W        W17606   8.983   7.817  13.842 -0.5404 -0.1324  0.3191
 2138W        W17607  17.890  16.076   0.228 -0.0502  0.3037 -0.0796
 2139W        W17608  15.388   5.126   2.430 -0.0890 -0.2125  0.2746
 2140W        W17609   1.634   3.112  13.353  0.0407  0.0536  0.1071
 2141W        W17610   5.981  15.687  13.821  0.1396  0.1584 -0.1044
 2142W        W17611   9.006  13.941   3.045  0.1082 -0.3397 -0.1525
 2143W        W17612   9.617   8.145  12.149 -0.2422  0.1638  0.1569
 2144W        W17613   6.491   6.434  13.901  0.0220  0.1427  0.1159
 2145W        W17614  16.486   7.513  15.358 -0.1677 -0.0508 -0.0918
 2146W        W17615   8.904  14.594  14.166 -0.2356 -0.0596  0.0042
 2147W        W17616  12.102   1.404  14.788 -0.0027  0.1625  0.1763
 2148W        W17617   1.851   0.033  13.916 -0.1751 -0.0187  0.0807
 2149W        W17618   4.741   1.958   1.446 -0.2897  0.3102 -0.1660
 2150W        W17619   8.476   7.171   1.067  0.0172  0.0082  0.5036
 2151W        W17620   7.418  13.855  12.355 -0.2130 -0.3243  0.1014
 2152W        W17621  10.213   0.377   0.924  0.2074 -0.0211 -0.0689
 2153W        W17622   2.073  14.028   1.932  0.1635  0.2965  0.0363
 2154W        W17623  13.432   4.210   1.984  0.3121 -0.0700  0.0305
 2155W        W17624  14.194   8.725  13.686  0.2173  0.0525  0.0429
 2156W        W17625  10.875  14.876  15.721 -0.1709  0.0118 -0.3078
 2157W        W17626  14.489  11.972   1.616 -0.0689  0.1836 -0.1544
 2158W        W17627   5.539  12.929  15.706  0.0231  0.1154  0.0390
 2159W        W17628  16.481  10.822   0.021  0.3519 -0.0003  0.2441
 2160W        W17629   7.807  11.616  11.768  0.2115 -0.1110 -0.0948
 2161W        W17630   9.349   8.231  13.586  0.2479 -0.0183 -0.0177
 2162W        W17631   1.460   3.223  13.825  0.0119  0.0004  0.1749
 2163W        W17632  16.366   4.111   3.779  0.2055  0.2301  0.1715
 2164W        W17633   6.228  15.059  12.752  0.0378  0.1666 -0.1113
 2165W        W17634  16.543  16.217   1.126 -0.4050 -0.3367  0.1003
 2166W        W17635   3.986  10.243  14.449 -0.1334  0.0892 -0.2195
 2167W        W17636  17.219  12.618  10.575 -0.0968 -0.1919  0.0408
 2168W        W17637  16.752  11.956   3.994 -0.1293 -0.1003 -0.1042
 2169W        W17638   3.676  16.007  14.145  0.1450 -0.0399  0.0546
 2170W        W17639   3.658   0.515   3.339 -0.3098 -0.0647 -0.0131
 2171W        W17640  17.869   8.269  14.822 -0.0873  0.0580 -0.1815
 2172W        W17641  16.248  18.436   1.270 -0.2051  0.1220  0.1335
 2173W        W17642  11.822  10.380   4.586  0.2662 -0.1095  0.2664
 2174W        W17643   5.230   7.268  14.632  0.1521  0.0147  0.0015
 2175W        W17644   8.542   7.898  14.926  0.1946 -0.0884 -0.2617
 2176W        W17645   4.811  12.942  12.801 -0.0069  0.3138  0.1770
 2177W        W17646   2.194  10.610  13.857 -0.1521  0.0546  0.0066
 2178W        W17647   9.757   1.235   2.600 -0.2805 -0.0796 -0.1029
 2179W        W17648   2.371   1.396  15.172 -0.0478 -0.0973  0.1036
 2180W        W17649   8.687  15.444  13.803  0.0286 -0.3726 -0.1017
 2181W        W17650   8.257   7.698   1.105 -0.0623 -0.0417  0.0834
 2182W        W17651  11.252  17.530   2.059 -0.3416 -0.1366 -0.1792
 2183W        W17652   6.455  14.302   0.737  0.0103  0.2731  0.2123
 2184W        W17653  11.624  16.511  11.431 -0.0032 -0.3249 -0.1090
 2185W        W17654   7.282   7.958  10.558 -0.0073  0.2660  0.4099
 2186W        W17655  17.219   7.701  15.518 -0.1967 -0.1980 -0.2143
 2187W        W17656   6.550  16.738   4.131 -0.2618 -0.1308  0.0421
 2188W        W17657   3.200  15.268  12.827  0.1921 -0.0141 -0.1318
 2189W        W17658   5.621  16.362   4.315  0.3209  0.0812  0.1989
 2190W        W17659   9.310   7.783   0.078  0.1693 -0.3008  0.2704
 2191W        W17660  12.663  12.755   4.729  0.2540  0.1960  0.0711
 2192W        W17661  14.692   8.741   3.198 -0.0233  0.0588  0.2082
 2193W        W17662  15.125   4.096   3.014 -0.1816 -0.0063  0.1738
 2194W        W17663  18.279  16.006  13.408 -0.2626 -0.2753 -0.3664
 2195W        W17664  11.707   4.451  14.872  0.2781  0.0056  0.0022
 2196W        W17665  12.637  14.664   1.414 -0.3849  0.0510  0.3289
 2197W        W17666   6.729   5.499  15.002 -0.0728  0.0712 -0.1359
 2198W        W17667  11.872   4.105   4.590 -0.1877  0.1130  0.0366
 2199W        W17668  11.658   3.890  11.094 -0.1480  0.0689  0.3592
 2200W        W17669   2.191   5.414   3.873  0.1085 -0.0839  0.0376
 2201W        W17670   9.518  10.687  10.958 -0.1669 -0.0873 -0.1671
 2202W        W17671  10.057  12.768  15.523  0.1431 -0.0048 -0.0164
 2203W        W17672  10.630   2.239   4.910  0.4455 -0.0046 -0.1594
 2204W        W17673  17.578  12.537   5.472  0.2500 -0.3253 -0.0204
 2205W        W17674  15.078  13.709   1.759  0.0395 -0.0851  0.1156
 2206W        W17675   9.423   3.662  13.075  0.0997  0.0105 -0.2066
 2207W        W17676  14.259   1.029   0.010  0.1494 -0.1432 -0.0113
 2208W        W17677   8.584  16.966   1.232  0.2937  0.2218  0.3595
 2209W        W17678   2.789  16.008  15.208  0.0737 -0.2254  0.1137
 2210W        W17679   4.658  12.596   3.767 -0.5783  0.2481  0.2275
 2211W        W17680  18.116   3.848   4.502  0.3216 -0.1515  0.3156
 2212W        W17681   0.849   5.993  15.050  0.1655 -0.0913  0.1194
 2213W        W17682  15.703   6.246   4.377 -0.1331 -0.2149  0.1435
 2214W        W17683   7.269   8.366  13.162 -0.0736  0.0655 -0.1779
 2215W        W17684  11.233  17.556   0.123  0.1328  0.1790 -0.0377
 2216W        W17685   3.456   4.575   1.895 -0.1368  0.3441  0.0831
 2217W        W17686   5.968  10.689   1.358  0.1569  0.1812  0.0714
 2218W        W17687   3.451   8.370  11.543  0.1035 -0.1263  0.3321
 2219W        W17688   3.482   2.529   1.871 -0.0515  0.1950  0.0536
 2220W        W17689  10.435   4.578   3.888  0.0388 -0.0204  0.2014
 2221W        W17690   6.335   5.229   4.590 -0.0834  0.3606  0.0072
 2222W        W17691   5.258   5.803   3.246  0.1851  0.0616 -0.2039
 2223W        W17692   0.627   5.918   2.842 -0.0710 -0.0033  0.0929
 2224W        W17693   8.441  14.163  11.069  0.1025  0.0443 -0.3724
 2225W        W17694   5.185   2.172   4.947 -0.3265  0.1146 -0.0296
 2226W        W17695   1.971  13.097  11.648 -0.0997  0.1091 -0.4274
 2227W        W17696   2.182  13.551  11.462 -0.1309 -0.2842 -0.0824
 2228W        W17697   5.669   5.987   3.791 -0.1084 -0.2212  0.3041
 2229W        W17698  13.279   3.825  11.114  0.0650 -0.1640  0.0253
 2230W        W17699   3.384  16.400  14.081  0.1793  0.0912 -0.1614
 2231W        W17700  15.210   5.024  14.099 -0.0942 -0.1102  0.0424
 2232W        W17701  16.780  15.803   3.366  0.0398 -0.1803 -0.1339
 2233W        W17702  12.677  16.221  11.722 -0.1336 -0.1010 -0.1886
 2234W        W17703   0.869   1.306   1.911  0.1211 -0.1419  0.1797
 2235W        W17704   6.460   8.379   4.422 -0.2723  0.1822 -0.2887
 2236W        W17705   7.742   2.717  15.079  0.0283 -0.1713 -0.1173
 2237W        W17706  11.136   7.965   0.843  0.1667 -0.0062  0.0944
 2238W        W17707  13.276  13.219  11.290  0.0469  0.0286 -0.1822
 2239W        W17708  11.782   2.518   1.740  0.0788  0.1314 -0.0277
 2240W        W17709   6.583   1.925   1.176 -0.0049  0.0926 -0.1868
 2241W        W17710   8.963   3.128  15.576 -0.0882 -0.0257  0.0005
 2242W        W17711   0.532  15.637   3.516 -0.0768 -0.0754  0.1063
 2243W        W17712  13.171   2.235  15.822  0.1046  0.3000  0.3621
 2244W        W17713   1.423  13.103  11.255  0.0557 -0.2273 -0.2254
 2245W        W17714   0.446   4.388   3.006 -0.0582  0.2561 -0.5453
 2246W        W17715   1.877  11.780   0.670  0.0894 -0.0902  0.2206
 2247W        W17716  15.092  13.230   4.164  0.2488  0.1346  0.3039
 2248W        W17717  17.061  11.359   1.017 -0.1081 -0.0159  0.1046
 2249W        W17718  11.279   8.994  13.965  0.3846  0.0691  0.0366
 2250W        W17719  16.763  14.547   3.180 -0.0731  0.0490 -0.0612
 2251W        W17720  12.240   5.097   1.474  0.1964 -0.0432 -0.1031
 2252W        W17721  13.042  12.939   3.925  0.1332  0.0924 -0.0239
 2253W        W17722  13.320  12.559  15.140  0.0203 -0.2000 -0.0593
 2254W        W17723  12.907  10.423   5.091 -0.2078  0.2618 -0.4214
 2255W        W17724   6.318   4.141  12.647  0.0532 -0.0033  0.2165
 2256W        W17725   8.978  10.794  13.342 -0.1428 -0.0919  0.3850
 2257W        W17726  13.095  11.298  15.329 -0.0401 -0.0554 -0.1841
 2258W        W17727   6.877  10.338  14.147  0.0205 -0.0947 -0.0843
 2259W        W17728   2.674   7.161   3.046  0.1008  0.2881 -0.1149
 2260W        W17729  13.682  16.822   3.904 -0.1219 -0.1952 -0.1646
 2261W        W17730  11.488  11.954   3.163  0.6008 -0.0617  0.4276
 2262W        W17731  10.015   8.226  11.832 -0.1180  0.4459  0.1114
 2263W        W17732  13.532  12.669   9.741  0.1415  0.0103  0.1843
 2264W        W17733   1.333  11.605   4.955  0.1412  0.0228  0.1495
 2265W        W17734  12.244  14.177   2.223 -0.2030 -0.0843  0.2199
 2266W        W17735   4.744   6.897   1.846  0.2350 -0.2217 -0.1275
 2267W        W17736  15.653  15.235  11.304  0.2650  0.1192  0.1296
 2268W        W17737   7.831   5.448  14.812 -0.0055 -0.5139  0.0071
 2269W        W17738   3.962  14.531   1.918 -0.0798 -0.1618  0.1367
 2270W        W17739  17.488  16.441   0.337  0.0482 -0.1397 -0.0271
 2271W        W17740  10.607  10.584   5.264 -0.0551 -0.0949 -0.2436
 2272W        W17741   5.331  17.681   3.162 -0.2228 -0.2573  0.3759
 2273W        W17742   5.926  11.385  14.239  0.0957  0.2204  0.2934
 2274W        W17743  15.636   6.384   2.622  0.3419  0.1540  0.0030
 2275W        W17744  17.563  17.586   4.924  0.3991  0.2218 -0.0671
 2276W        W17745  13.013  15.802   0.629  0.1807  0.1925 -0.2446
 2277W        W17746   1.293  15.523   4.958  0.0327  0.2905  0.0931
 2278W        W17747   2.243   8.474   5.016 -0.1292  0.1189 -0.1644
 2279W        W17748  13.580  13.501  12.661  0.0876 -0.0045  0.2177
 2280W        W17749  15.045  11.788  11.765 -0.2741 -0.0657 -0.1688
 2281W        W17750   2.266  14.103  13.342 -0.1038 -0.1215  0.0011
 2282W        W17751   8.011  13.796   4.148 -0.3741  0.1014 -0.0026
 2283W        W17752   9.831   8.513  15.902 -0.3039  0.3140  0.0117
 2284W        W17753   9.071   4.222  10.155 -0.0028 -0.1112  0.1426
 2285W        W17754  15.792   0.740  15.082  0.0662 -0.0440  0.0473
 2286W        W17755  17.849   5.492   2.510  0.3056  0.1461  0.1334
 2287W        W17756  16.476  17.887   4.137  0.0347  0.1370 -0.3507
 2288W        W17757   9.334   5.485   1.414 -0.1560 -0.2357  0.0255
 2289W        W17758  12.137  13.629   2.367  0.0422 -0.0793  0.2758
 2290W        W17759   8.405  16.330   4.720  0.1305  0.5536  0.1681
 2291W        W17760   3.105   3.119  13.278 -0.0808 -0.2222  0.3369
 2292W        W17761   5.969   2.329   0.106  0.0572  0.1807 -0.0267
 2293W        W17762   2.985  13.023   0.749  0.0623 -0.1425 -0.1231
 2294W        W17763   4.707  11.474   4.770 -0.1274 -0.0893 -0.1750
 2295W        W17764   9.922  10.553  13.234  0.1630  0.0001  0.1113
 2296W        W17765   3.854   3.464   1.847  0.2089  0.1165 -0.0328
 2297W        W17766   6.709  18.018  12.812 -0.0778 -0.1145 -0.1970
 2298W        W17767  10.691  17.855  14.232  0.1213  0.0746  0.0781
 2299W        W17768   7.629   4.991   4.964  0.0627  0.1335 -0.3432
 2300W        W17769   8.254   7.143   1.917 -0.1317 -0.1432  0.0230
 2301W        W17770   3.112   9.219   0.416 -0.0312  0.1205 -0.1155
 2302W        W17771  11.406   5.662   0.035  0.1236  0.0035 -0.0468
 2303W        W17772  12.827   1.133   0.056  0.1773 -0.0864  0.1176
 2304W        W17773   3.910  15.113  13.334 -0.3671  0.3331  0.1819
 2305W        W17774  11.347   9.134  15.741 -0.2370 -0.1788  0.0468
 2306W        W17775   8.962  12.109  10.975  0.3896 -0.2503  0.1639
 2307W        W17776  13.426   8.697  14.361 -0.1312 -0.3010 -0.2669
 2308W        W17777   2.335   2.128  14.142  0.1078 -0.0279  0.1625
 2309W        W17778   7.674   0.044   1.821 -0.1934 -0.3205 -0.1119
 2310W        W17779   0.837  16.353  15.620 -0.2963  0.2056  0.0565
 2311W        W17780   7.806   8.105  11.958  0.0174  0.1535 -0.1170
 2312W        W17781  17.661  11.735   3.044  0.0847 -0.2197 -0.0592
 2313W        W17782  18.390   2.290   6.234 -0.1570 -0.1466  0.0014
 2314W        W17783   7.337  16.506   4.770 -0.1561 -0.2574  0.2696
 2315W        W17784  13.215   9.127  14.229  0.1067  0.1467 -0.2272
 2316W        W17785  18.361   0.578  12.734  0.1156 -0.0262 -0.1472
 2317W        W17786   6.639   7.047  15.636  0.0485 -0.1202  0.1584
 2318W        W17787  10.365   3.834   0.921  0.0634 -0.1472  0.0117
 2319W        W17788   8.092  14.734  13.502 -0.1604 -0.1566 -0.2188
 2320W        W17789   8.030   0.096   0.371 -0.0711  0.1167 -0.2171
 2321W        W17790   4.918  15.075   0.954 -0.2082 -0.0381 -0.1268
 2322W        W17791  16.842   1.386   1.806 -0.0723 -0.2587  0.5437
 2323W        W17792   6.307   7.807   2.041 -0.1382  0.0317 -0.0826
 2324W        W17793  15.076   8.789  11.830 -0.1624 -0.0375  0.1695
 2325W        W17794   7.613   4.284  10.723  0.1075  0.3151 -0.1498
 2326W        W17795   4.369  12.664   2.532 -0.0949 -0.0343  0.3539
 2327W        W17796  10.861   5.217  11.057 -0.2561  0.0220  0.3539
 2328W        W17797   9.977  14.902  11.542 -0.4408 -0.0609 -0.1719
 2329W        W17798  10.205   9.116   5.313  0.1715 -0.0805  0.0244
 2330W        W17799  10.351   5.639   1.841 -0.0011  0.2536 -0.1474
 2331W        W17800  13.238   8.976   0.148 -0.1488 -0.4239 -0.0657
 2332W        W17801  12.789   5.966  15.759  0.1184 -0.0106  0.0974
 2333W        W17802   3.242  12.662   1.044  0.0354  0.0695 -0.1505
 2334W        W17803   4.834   6.759  11.450  0.0147 -0.0984 -0.4036
 2335W        W17804   8.973  17.121   2.313  0.1215 -0.2274  0.2517
 2336W        W17805   2.467  11.410   3.081 -0.3714  0.2578 -0.0625
 2337W        W17806   8.852  12.583  10.436  0.1546 -0.0292 -0.0889
 2338W        W17807   8.677  12.478   3.823  0.2980 -0.0312 -0.0984
 2339W        W17808   4.447   7.843  14.552 -0.0878  0.1155 -0.2628
 2340W        W17809   5.070  13.941  15.543 -0.0696 -0.0096  0.0721
 2341W        W17810  17.329   4.848   4.195  0.0258  0.2002 -0.0076
 2342W        W17811   4.411  16.340  12.145 -0.2795 -0.1484 -0.0894
 2343W        W17812  16.334   8.170   5.780  0.0744  0.1009 -0.3898
 2344W        W17813   6.749  18.455  14.247 -0.0904  0.0386 -0.2286
 2345W        W17814  17.799   3.635  15.790 -0.1771  0.1086 -0.1913
 2346W        W17815   1.495   1.977   4.122 -0.0503 -0.0944  0.1252
 2347W        W17816  17.981   8.303   0.500  0.2241  0.1712 -0.2787
 2348W        W17817   5.439  18.285  12.338 -0.1271 -0.2189 -0.3014
 2349W        W17818  11.357   0.555  11.775  0.1427  0.0197 -0.2701
 2350W        W17819  16.538  18.400   4.044  0.1623 -0.0841 -0.2799
 2351W        W17820  13.793   0.785   1.912 -0.3066  0.0829  0.1880
 2352W        W17821   0.535  11.569   0.346  0.3079 -0.1650 -0.1316
 2353W        W17822   5.214  10.905   0.333 -0.3929 -0.1316 -0.1056
 2354W        W17823   2.825   2.233  12.238 -0.0947  0.1764  0.0584
 2355W        W17824  13.337   3.589   1.748  0.4610  0.0653 -0.0697
 2356W        W17825  16.965   1.817   4.170 -0.2658 -0.0807  0.2387
 2357W        W17826   2.322  17.157  14.928 -0.1872 -0.2814 -0.0117
 2358W        W17827   3.024   9.263  11.813  0.3428  0.2210  0.1026
 2359W        W17828   8.320  15.914   3.862  0.0635 -0.1562  0.1991
 2360W        W17829   2.456   4.428   1.550 -0.1140  0.1375 -0.0563
 2361W        W17830   4.770  16.405   0.223 -0.1006 -0.0053 -0.4149
 2362W        W17831  13.658   4.905  10.261 -0.0492 -0.4085 -0.0944
 2363W        W17832   8.571   1.474  12.627 -0.0607 -0.1836  0.2393
 2364W        W17833  16.562  11.735   0.050 -0.0542 -0.0818  0.0860
 2365W        W17834   8.193  17.574   5.264  0.0635  0.0934 -0.0108
 2366W        W17835   5.430   0.132  11.377  0.0227  0.2357 -0.0392
 2367W        W17836   8.908   7.300   4.152  0.2046 -0.0459 -0.1722
 2368W        W17837   5.489  18.272   9.906  0.0934  0.1191  0.1087
 2369W        W17838  15.934   5.848  12.460 -0.4445 -0.2862 -0.0457
 2370W        W17839  11.280  12.609  14.599 -0.0166  0.0228  0.4880
 2371W        W17840   5.747  16.228  10.428  0.2678  0.0701 -0.0340
 2372W        W17841   6.765   7.348  12.293 -0.1298 -0.0401 -0.1176
 2373W        W17842  14.266  12.209   3.926 -0.1922  0.1060 -0.0499
 2374W        W17843   9.269  10.741   1.944 -0.1084 -0.2740  0.1954
 2375W        W17844   7.065   2.462   5.778  0.1649  0.0072 -0.0090
 2376W        W17845   2.803   5.479   2.524  0.1243  0.0633 -0.0187
 2377W        W17846  14.775   0.361  12.602 -0.0038 -0.2103 -0.2693
 2378W        W17847  15.647   4.848  15.545  0.3657  0.2307 -0.1676
 2379W        W17848  14.734  16.170  13.514 -0.1349 -0.1113  0.3927
 2380W        W17849   7.148  17.294  15.780  0.0363 -0.3090  0.1748
 2381W        W17850  17.368   9.080  14.614 -0.1934  0.1173  0.1250
 2382W        W17851  17.349  16.278   0.827  0.1312 -0.0525  0.0864
 2383W        W17852   8.504   6.312   9.712  0.1290 -0.0446 -0.0278
 2384W        W17853  15.206   7.175   0.204  0.1170  0.0896 -0.0509
 2385W        W17854  17.647  10.284   1.047 -0.1301 -0.0675  0.1937
 2386W        W17855  12.356   1.350  15.235  0.0570 -0.2979 -0.1921
 2387W        W17856  17.065   7.844  12.883 -0.4913  0.2088 -0.1820
 2388W        W17857  13.537  13.355   5.415 -0.0914  0.0330  0.0026
 2389W        W17858  15.030   6.734   3.359 -0.0165  0.0609 -0.2195
 2390W        W17859  11.983  10.568  15.141  0.2572  0.2660 -0.1673
 2391W        W17860   1.035  14.834  15.445  0.0340 -0.2105 -0.1035
 2392W        W17861  14.183  14.093  11.265  0.0965 -0.0770 -0.2295
 2393W        W17862  10.065  14.057  11.224  0.1692 -0.1836 -0.0940
 2394W        W17863   7.330  17.956   3.312 -0.0253 -0.0525  0.1357
 2395W        W17864   0.363   5.686   3.910  0.1128 -0.1379  0.1773
 2396W        W17865   2.667  11.584   0.382 -0.0498 -0.2976 -0.1743
 2397W        W17866  17.066  11.091   4.014 -0.5026  0.0686  0.0361
 2398W        W17867  15.934  15.219   2.248 -0.1192  0.5927 -0.0116
 2399W        W17868  12.141   8.474  14.183 -0.2811 -0.1387 -0.3766
 2400W        W17869  13.210   7.931   1.874 -0.0842 -0.3110  0.2465
 2401W        W17870  10.180   5.108   4.291 -0.3148 -0.0718  0.1143
 2402W        W17871  10.818   5.578   0.119  0.0735  0.1066  0.0668
 2403W        W17872   8.114  15.385   5.209 -0.1728  0.0694 -0.1071
 2404W        W17873  14.077  10.423   4.509 -0.2628 -0.1117 -0.1019
 2405W        W17874   5.982  14.153  14.800  0.0613 -0.2334 -0.0113
 2406W        W17875  16.812   3.000  11.794  0.1191 -0.1751 -0.2696
 2407W        W17876   6.052  13.549   0.747  0.0149  0.3540  0.3875
 2408W        W17877   7.464   0.412   4.990  0.0647  0.0890  0.0856
 2409W        W17878  11.431  10.608  12.078  0.0282  0.1783 -0.1143
 2410W        W17879  13.573   4.857   5.227 -0.2155 -0.0864  0.2105
 2411W        W17880  13.262   5.163   2.231 -0.0482 -0.1169  0.3206
 2412W        W17881   1.959  18.276   2.269  0.1899  0.0861 -0.2405
 2413W        W17882   2.603  17.208   2.886 -0.2338  0.3814  0.0252
 2414W        W17883   7.601  13.429   1.179  0.1208  0.1252  0.1576
 2415W        W17884   4.710   3.573  12.307  0.1593 -0.3283 -0.1580
 2416W        W17885   5.269   7.427   3.628  0.2947  0.3152  0.0703
 2417W        W17886   4.406   8.623   3.370  0.0372  0.0266  0.0156
 2418W        W17887  15.593   3.300   2.973  0.3168 -0.0677 -0.0880
 2419W        W17888   0.199  10.434  12.229  0.2462 -0.2121  0.0444
 2420W        W17889  11.115   4.539  12.515  0.0779 -0.1876  0.3116
 2421W        W17890   0.135  10.715   3.366 -0.0913 -0.1165  0.1845
 2422W        W17891  16.607  15.923  13.258  0.1304 -0.0708 -0.1095
 2423W        W17892  13.007   0.119   3.423  0.1144  0.1373 -0.2166
 2424W        W17893   6.674   8.008  13.957  0.0053  0.1012  0.1832
 2425W        W17894  11.380   8.180  15.759 -0.3866  0.1745 -0.0999
 2426W        W17895   2.213   6.820   3.944 -0.0604  0.2395 -0.2160
 2427W        W17896   6.110   1.126  14.222 -0.3548 -0.0180 -0.5608
 2428W        W17897  15.439  15.894  10.671  0.3495 -0.0517  0.0141
 2429W        W17898   9.329  14.946   2.555  0.0186  0.2284  0.0137
 2430W        W17899   6.327   0.499   0.237  0.0634 -0.2012  0.0947
 2431W        W17900   0.013   6.374   1.736  0.2322 -0.3605 -0.0746
 2432W        W17901  16.167  16.703  14.695  0.1696  0.0437  0.1337
 2433W        W17902  12.727  13.280  11.418  0.0858 -0.4349  0.0036
 2434W        W17903  14.175  10.203   1.890  0.0828  0.1442  0.2775
 2435W        W17904  17.720   4.174   4.697  0.0123 -0.2761 -0.1578
 2436W        W17905  15.143  14.616   0.479  0.0996  0.1329  0.1264
 2437W        W17906  15.495   7.795   0.240  0.1622 -0.2152  0.0343
 2438W        W17907  13.469   0.895  15.398 -0.2391  0.0333  0.1082
 2439W        W17908  17.958  15.824  13.777 -0.0023  0.0622 -0.1369
 2440W        W17909   7.710  17.858  14.823  0.1894  0.2142 -0.0101
 2441W        W17910   8.309   8.317  10.076  0.2041 -0.0910 -0.0970
 2442W        W17911   7.617   1.767  13.847 -0.1421 -0.2096  0.0933
 2443W        W17912   2.927  16.744   2.018  0.5076 -0.1098 -0.2318
 2444W        W17913  12.050   2.324  13.864  0.3321  0.2167 -0.1210
 2445W        W17914   6.299   2.562  15.115 -0.1252  0.1580 -0.1502
 2446W        W17915  10.231  16.178   4.185 -0.3349 -0.0526 -0.2060
 2447W        W17916  16.657  10.130   1.259  0.2273 -0.1702  0.1041
 2448W        W17917  11.689   2.757   0.183 -0.1315 -0.0063 -0.0931
 2449W        W17918   3.385  12.590   4.592  0.1213 -0.0991 -0.1566
 2450W        W17919  17.143  13.824  13.979 -0.0561 -0.2312 -0.0405
 2451W        W17920  17.628  12.691   0.415 -0.3444  0.0863 -0.3298
 2452W        W17921   4.102  16.845  11.443 -0.2829  0.1372 -0.2632
 2453W        W17922  12.219  13.548  14.193  0.1291  0.3420 -0.1822
 2454W        W17923  15.639   1.721  15.725  0.1793 -0.1548  0.1053
 2455W        W17924  16.322  11.935   0.719 -0.0667  0.4636  0.1336
 2456W        W17925  10.890   5.746   2.597 -0.2336  0.1205 -0.0277
 2457W        W17926   2.672  14.458   5.165  0.0756 -0.1803 -0.0840
 2458W        W17927   2.457   9.297   3.627  0.3535 -0.3249  0.0219
 2459W        W17928   7.076   2.341   3.741  0.0883 -0.1503  0.0334
 2460W        W17929  18.451   5.892  13.971  0.0614 -0.2118  0.0089
 2461W        W17930   8.263  16.153   1.286  0.0117  0.1843 -0.0691
 2462W        W17931  13.390   1.035  11.563  0.0664 -0.1218  0.4524
 2463W        W17932  15.770   2.824   5.448  0.0064  0.1447  0.1902
 2464W        W17933  17.235   1.133  15.700 -0.1842 -0.3592 -0.0087
 2465W        W17934   2.138   6.410   0.019 -0.4653 -0.0185 -0.0074
 2466W        W17935   1.762   7.094  13.192  0.4022  0.0774  0.1990
 2467W        W17936   0.200  15.864   4.004  0.2253  0.1322  0.0715
 2468W        W17937   0.048  10.604   1.147  0.0317  0.0099 -0.2192
 2469W        W17938   1.922   2.185   4.265  0.3105  0.1656 -0.0735
 2470W        W17939   1.515   3.026   4.267  0.2025 -0.2037  0.2364
 2471W        W17940  11.607   8.448   1.664 -0.1822  0.0087  0.0222
 2472W        W17941  13.433  18.153  13.670  0.0096  0.0716  0.2894
 2473W        W17942  13.983  17.955  11.003 -0.1383 -0.0687 -0.4044
 2474W        W17943   8.610   1.244   0.758  0.1531  0.1254 -0.2484
 2475W        W17944  10.336   5.010   2.766 -0.0906  0.1491  0.1039
 2476W        W17945   5.746   1.160  15.471  0.3687  0.0802 -0.1987
 2477W        W17946  11.420  17.187  12.742  0.1658  0.1335  0.0775
 2478W        W17947   8.805   1.894   5.375  0.2338 -0.2061  0.1657
 2479W        W17948   3.407   4.591   1.339  0.1708 -0.1053  0.2366
 2480W        W17949   3.338   6.292   3.016 -0.1187  0.3043  0.0911
 2481W        W17950   5.474  15.402  13.054  0.3062 -0.2633 -0.0165
 2482W        W17951  11.348  15.353  15.725 -0.3842  0.0908 -0.2577
 2483W        W17952  15.492  15.913  11.969 -0.2078 -0.2662  0.4183
 2484W        W17953  11.195  15.919   3.293  0.0150  0.0563  0.1855
 2485W        W17954   8.706  12.792  11.664 -0.0728  0.3006  0.0353
 2486W        W17955   7.109   7.084  13.359 -0.2585 -0.1278 -0.1157
 2487W        W17956   1.154   3.137  11.904  0.0189 -0.0554 -0.2126
 2488W        W17957   4.846  15.512   3.919 -0.0157  0.0808 -0.5509
 2489W        W17958  18.369  11.344  14.852  0.1564  0.0955 -0.2371
 2490W        W17959  12.402   8.057  14.286  0.2924 -0.0975 -0.2357
 2491W        W17960  18.011   8.206  15.302  0.2647 -0.3534 -0.0123
 2492W        W17961   3.491   3.932   3.357  0.0035  0.0136  0.0185
 2493W        W17962  11.243  12.829  12.368 -0.2916 -0.3090  0.2267
 2494W        W17963  10.067  15.710   0.072  0.0030  0.1718  0.0559
 2495W        W17964   8.759  12.710   3.323  0.1066 -0.2388  0.0524
 2496W        W17965   3.055   6.860   5.104  0.2358 -0.0353 -0.2300
 2497W        W17966  10.577   1.423   2.141  0.0921  0.1187  0.1238
 2498W        W17967  17.173  17.622   4.089  0.2083  0.3926  0.3526
 2499W        W17968   7.110   0.786   1.955  0.1357  0.2533  0.1741
 2500W        W17969  10.749  16.892  10.689  0.0625 -0.1309 -0.0572
 2501W        W17970   5.723  11.422  11.404 -0.2295  0.0221  0.1719
 2502W        W17971   3.580   0.037   2.557  0.1837 -0.0488 -0.1998
 2503W        W17972   7.713   2.585  13.909 -0.0063  0.1221 -0.0100
 2504W        W17973   1.791   0.617   4.062 -0.1053 -0.2266  0.0099
 2505W        W17974   0.008  13.849  14.454  0.0282  0.0253  0.1867
 2506W        W17975   3.812  10.395  12.122  0.1623 -0.1770  0.3418
 2507W        W17976   3.620   0.276  11.228 -0.1927  0.0481  0.0450
 2508W        W17977   4.288   0.076   5.596 -0.2263  0.0416  0.0603
 2509W        W17978  11.063  15.741   4.341  0.3831 -0.1278  0.5920
 2510W        W17979  12.339  10.021   1.781  0.2166  0.3705  0.0308
 2511W        W17980   9.208   6.317  13.825 -0.1663 -0.0255  0.0798
 2512W        W17981   7.351  12.111   5.659 -0.0152  0.0414 -0.0697
 2513W        W17982   4.261  15.093  11.542  0.2243  0.1783  0.1367
 2514W        W17983  17.118   3.164   3.787  0.2853 -0.0689  0.2494
 2515W        W17984  10.275   7.276  10.950  0.3534 -0.0922 -0.0140
 2516W        W17985   2.423  11.682  11.764 -0.3091 -0.1519 -0.0591
 2517W        W17986   9.827   6.359   1.419  0.1208 -0.1224 -0.2432
 2518W        W17987  12.745  17.719  12.684 -0.0089  0.2545 -0.0126
 2519W        W17988  17.508   4.231  13.764  0.0249  0.1271 -0.0665
 2520W        W17989   1.871   8.567  11.757  0.0376  0.1624  0.2928
 2521W        W17990   1.237   6.705  11.364  0.2669 -0.3077  0.1087
 2522W        W17991  13.010   0.761   0.412  0.1007  0.0089  0.1493
 2523W        W17992  16.049   4.634   2.267  0.2185  0.0176 -0.1455
 2524W        W17993   8.506  12.281   1.887 -0.5411  0.1761  0.2081
 2525W        W17994   2.772   7.013  12.524  0.0793 -0.0213 -0.0582
 2526W        W17995   8.676   3.762   2.110  0.1060  0.3427  0.0272
 2527W        W17996   5.569   9.456   3.975 -0.1836 -0.0201  0.1929
 2528W        W17997  17.031  11.572   4.020 -0.1692 -0.2227 -0.3842
 2529W        W17998  17.568  18.414   4.838  0.0508  0.3825  0.0477
 2530W        W17999  11.764   3.483   4.102  0.1770  0.2007  0.0913
 2531W        W18000   7.102   0.684  14.482  0.1269  0.1928 -0.1785
 2532W        W18001  18.302   0.907  13.792  0.3051 -0.0501  0.1799
 2533W        W18002   3.932  14.293  12.657 -0.0793 -0.0469  0.1655
 2534W        W18003  11.397  14.238  12.562  0.2300 -0.1003  0.1034
 2535W        W18004   2.030   1.482   5.677 -0.0870 -0.0396 -0.2751
 2536W        W18005   3.642   2.767   2.368  0.3487  0.2987 -0.0946
 2537W        W18006   2.320  17.658  12.113  0.1487 -0.0116 -0.1623
 2538W        W18007  12.065   7.993   0.640 -0.1150  0.1135 -0.1107
 2539W        W18008  16.430  13.889  13.205 -0.1278 -0.0560  0.1584
 2540W        W18009   2.949  14.583   2.454 -0.2777  0.0511  0.0534
 2541W        W18010   2.626   8.333   4.593 -0.2176 -0.3166 -0.0440
 2542W        W18011  11.339   9.630  10.592  0.0649  0.0253  0.1429
 2543W        W18012  16.487   2.181  12.040 -0.1505 -0.1752  0.1765
 2544W        W18013  16.597   3.802  10.355 -0.2479 -0.1261  0.2895
 2545W        W18014  17.229  11.274  11.082  0.4280  0.1176  0.0640
 2546W        W18015   3.743   9.775   4.155 -0.2069  0.0245  0.0412
 2547W        W18016   1.093   5.680   2.901  0.0078 -0.0595  0.1039
 2548W        W18017  13.618  11.380  10.909  0.0855 -0.3749 -0.3090
 2549W        W18018   6.507  10.255  12.186  0.2219 -0.0516  0.2850
 2550W        W18019   6.220   3.118  13.264 -0.1064  0.1579  0.1161
 2551W        W18020  18.008  15.211   2.022  0.3306  0.0584  0.1608
 2552W        W18021  12.243  14.879  14.766 -0.1106  0.1674 -0.0692
 2553W        W18022  10.723   0.994   1.875  0.0695  0.0852  0.1698
 2554W        W18023   4.087  12.201  14.157 -0.0347  0.1717  0.0191
 2555W        W18024  15.782  14.669   3.887  0.0458 -0.1494  0.1723
 2556W        W18025   2.195  15.261   2.931 -0.0277 -0.2058  0.2879
 2557W        W18026  17.559   7.832  15.133  0.1900 -0.0558 -0.3068
 2558W        W18027  17.790  11.505   1.449  0.0343 -0.1147 -0.0483
 2559W        W18028   3.685  17.346   2.808 -0.1697  0.0585  0.1136
 2560W        W18029   2.130  15.317   4.538  0.3414 -0.0014 -0.1396
 2561W        W18030  14.289   1.973  11.877  0.0808  0.1607 -0.0357
 2562W        W18031  13.079  17.273  12.783 -0.0959 -0.0377  0.0036
 2563W        W18032  14.365  13.791  12.018  0.4318  0.2771 -0.0684
 2564W        W18033  17.585  14.539   5.966  0.2276  0.2160  0.2147
 2565W        W18034  11.792   2.796  15.001  0.1162  0.4663 -0.0499
 2566W        W18035  14.052   3.010   4.672  0.2487 -0.2045  0.0320
 2567W        W18036  18.139  12.181  14.418 -0.1842 -0.0004 -0.2056
 2568W        W18037   1.864   0.555  13.155 -0.0341  0.2193  0.1401
 2569W        W18038   4.572  18.353   2.873 -0.0914 -0.2089 -0.1944
 2570W        W18039  12.338   3.920  15.683  0.1335 -0.0054 -0.0649
 2571W        W18040   9.927  14.193  14.536  0.0429 -0.1555  0.2164
 2572W        W18041  10.368   3.330  13.258  0.0437  0.1513  0.0047
 2573W        W18042  17.723  13.072  10.386 -0.2196 -0.0407 -0.0927
 2574W        W18043  12.389   0.493  13.836 -0.0254  0.0948  0.0677
 2575W        W18044   3.181  12.024   1.914  0.1545  0.2208 -0.0160
 2576W        W18045  13.009   8.915   4.923  0.0768 -0.0287  0.2853
 2577W        W18046  16.482   1.005   1.032  0.0632  0.0426 -0.1395
 2578W        W18047   9.882  11.938   0.474 -0.1471 -0.0099 -0.0787
 2579W        W18048  17.943   6.960   3.608 -0.1459 -0.1432  0.0820
 2580W        W18049  13.631  16.596   1.155 -0.1724 -0.1122 -0.1660
 2581W        W18050  16.638   9.776  11.684  0.0522  0.1575  0.0061
 2582W        W18051   6.173   5.506  12.990  0.2449 -0.0130  0.0870
 2583W        W18052   3.314   2.998   4.132 -0.2840  0.0579  0.0338
 2584W        W18053   4.145   3.649  14.528 -0.1951 -0.0629 -0.0895
 2585W        W18054  14.852   7.715   3.571 -0.0118  0.1414  0.0076
 2586W        W18055   8.486   0.755   0.021 -0.3131 -0.0127  0.2022
 2587W        W18056  14.378   9.373   5.415  0.1269  0.0467  0.3008
 2588W        W18057  15.392   1.374   2.265  0.1654  0.0512 -0.3921
 2589W        W18058   2.246   5.571   1.360 -0.2150 -0.1981 -0.2920
 2590W        W18059  14.788  15.268  13.568  0.1289  0.1952 -0.2627
 2591W        W18060   9.365   7.059  13.142  0.0515  0.2568  0.1736
 2592W        W18061   0.690  16.396  11.040 -0.3507  0.2258 -0.0158
 2593W        W18062  12.799  11.750   4.388 -0.0194  0.1704  0.0634
 2594W        W18063  18.098  11.099  15.232  0.0005 -0.0591 -0.4189
 2595W        W18064   4.085   2.146   3.365 -0.1409  0.0524  0.0248
 2596W        W18065  12.902  18.057   0.722  0.0385 -0.0263 -0.0578
 2597W        W18066  14.208  14.036  10.321  0.0351 -0.0906 -0.0246
 2598W        W18067  12.265   2.351  10.117  0.0687  0.1924 -0.0593
 2599W        W18068   1.814   6.084   3.084  0.1179 -0.0849 -0.0774
 2600W        W18069  18.168   4.369  14.388  0.2045  0.0788  0.2912
 2601W        W18070   7.598  15.522   1.717  0.3076 -0.0881  0.1618
 2602W        W18071   7.214  17.330  14.734  0.1069  0.2469 -0.6839
 2603W        W18072  15.457  14.168  13.250  0.1796 -0.1812 -0.1840
 2604W        W18073  12.146  15.700  15.168 -0.0292 -0.0075 -0.1064
 2605W        W18074  15.460   7.612  12.291  0.0875 -0.0718  0.0477
 2606W        W18075  12.407   4.186  11.892 -0.1403 -0.0913 -0.2219
 2607W        W18076  16.846   9.581  12.888  0.1512  0.0416 -0.2200
 2608W        W18077   9.842  16.572   1.565 -0.1687  0.2597  0.0913
 2609W        W18078  17.542   7.400   1.931 -0.4210  0.2218  0.4581
 2610W        W18079   8.601   5.793  13.277  0.4229  0.3060 -0.3024
 2611W        W18080   7.408  10.379  10.544  0.2557  0.3705  0.0990
 2612W        W18081   8.481  14.177   0.388  0.1377 -0.1318 -0.0846
 2613W        W18082   8.266   7.284   5.157  0.0922 -0.3147 -0.3669
 2614W        W18083  17.575   8.734  12.962 -0.0493 -0.0598  0.0579
 2615W        W18084  13.277  12.858  14.742  0.1671  0.0299 -0.5151
 2616W        W18085   0.546   3.118  11.730 -0.1542 -0.3157  0.3048
 2617W        W18086  15.499   6.726   1.062  0.2636  0.0929  0.2991
 2618W        W18087  11.169   7.441  12.037 -0.0034  0.0808 -0.2752
 2619W        W18088  18.034   2.028   9.981  0.3131  0.2420 -0.1841
 2620W        W18089  14.218   6.337   0.300 -0.0484 -0.2244  0.2493
 2621W        W18090  15.472   1.297   4.538  0.0239 -0.0571 -0.5714
 2622W        W18091  17.720  11.306   3.288  0.0462  0.2211 -0.0794
 2623W        W18092  10.418  10.257   1.383  0.1507 -0.0240  0.2031
 2624W        W18093  17.661   9.094  15.565  0.1830  0.0926 -0.0148
 2625W        W18094  15.430   2.493  11.891 -0.2660  0.0232 -0.1814
 2626W        W18095   9.341  13.597   2.128 -0.3144 -0.0043 -0.0388
 2627W        W18096  15.713  11.953   5.217  0.0175 -0.0103 -0.2980
 2628W        W18097   6.212  10.625  10.966  0.1545  0.0048  0.2776
 2629W        W18098  12.897   4.264  11.844 -0.1799  0.0856  0.0146
 2630W        W18099  13.299   4.287   1.404 -0.2283  0.0600 -0.3264
 2631W        W18100  10.663  17.318   0.852 -0.2200  0.0147  0.0087
 2632W        W18101   7.068  14.730  14.569  0.3062  0.1573  0.2936
 2633W        W18102  14.781   0.826   5.118  0.1912 -0.0709  0.1064
 2634W        W18103   2.795  17.847  12.188  0.2097 -0.2441  0.3042
 2635W        W18104   4.420   6.438   5.240 -0.0348 -0.1029 -0.2392
 2636W        W18105  16.673   8.243   3.232  0.1218  0.1097 -0.0303
 2637W        W18106   9.887  11.555  12.591  0.0368 -0.2091 -0.3297
 2638W        W18107  11.434   7.637  15.423 -0.0029 -0.0563 -0.0322
 2639W        W18108   3.534   7.091   3.358  0.0473 -0.1674 -0.1303
 2640W        W18109   4.250  14.089  11.091  0.3967 -0.1782  0.1535
 2641W        W18110   9.672   1.391   3.144 -0.0229 -0.4291 -0.3449
 2642W        W18111   4.866   5.036  11.750 -0.0424  0.0445  0.2457
 2643W        W18112   2.213  15.826   3.248  0.2233  0.0455  0.0094
 2644W        W18113  12.207   1.610  12.449 -0.0732  0.0038 -0.2130
 2645W        W18114   6.401   2.585  12.461 -0.1447  0.2748  0.1444
 2646W        W18115   5.335  15.518  12.554  0.1322 -0.2539  0.0377
 2647W        W18116  12.583   4.134   9.278 -0.0547 -0.1310 -0.1299
 2648W        W18117   4.908  18.293  11.648  0.1259  0.1898  0.1662
 2649W        W18118   2.911   5.744   4.295 -0.0107  0.1847  0.0452
 2650W        W18119  12.522   4.327   0.198  0.0405 -0.1383  0.2735
 2651W        W18120  16.716   8.497   5.426 -0.1173  0.1628  0.1350
 2652W        W18121  16.071  12.920   4.751 -0.2355 -0.3619 -0.0381
 2653W        W18122   0.687  17.043  12.317  0.1894  0.0590 -0.1635
 2654W        W18123   1.847   0.040   2.969 -0.1355  0.1193 -0.2544
 2655W        W18124   6.560  12.231   5.790  0.0498 -0.3010  0.1244
 2656W        W18125  10.345   3.549   5.399  0.2260  0.0073 -0.0631
 2657W        W18126  13.586  10.244  14.524  0.1715  0.2245  0.0101
 2658W        W18127   4.609   8.147   4.576  0.0080  0.0237 -0.1446
 2659W        W18128   6.342   3.668  15.678 -0.0556 -0.2020  0.1597
 2660W        W18129  10.638   2.209   4.133  0.2270  0.3747 -0.2137
 2661W        W18130   9.048  15.341   1.722  0.1731  0.0114 -0.0568
 2662W        W18131   3.822  10.357   1.824 -0.0453  0.3338  0.2931
 2663W        W18132   9.248  14.537   4.620  0.0222 -0.1247  0.2693
 2664W        W18133  12.897   6.799   0.104  0.2898  0.1520  0.0719
 2665W        W18134   5.162   8.196   1.619  0.1310  0.1287 -0.1504
 2666W        W18135   3.344  10.916   4.561 -0.0755  0.0440  0.2566
 2667W        W18136   6.132  10.654  14.361  0.0128 -0.0464  0.1260
 2668W        W18137   7.461   0.526  14.828  0.0272  0.2195  0.1782
 2669W        W18138   2.581   9.895   4.375 -0.1139 -0.2285 -0.0106
 2670W        W18139  15.977  12.862  14.301 -0.2610 -0.0890  0.1255
 2671W        W18140   8.828   3.651  12.159  0.0054 -0.0198  0.0780
 2672W        W18141  17.049  18.000   3.710 -0.0685  0.0809  0.0488
 2673W        W18142   0.386   2.369  13.436  0.1959 -0.0158  0.0427
 2674W        W18143  11.835   9.721  11.470  0.1162 -0.2448 -0.2707
 2675W        W18144   3.508   4.097   4.694 -0.4342  0.0882 -0.3450
 2676W        W18145   9.458  16.168   4.437 -0.1210 -0.1668 -0.0039
 2677W        W18146   3.272  12.547   2.006 -0.2248 -0.2482  0.1960
 2678W        W18147  11.884   6.250   5.569 -0.1306 -0.1650 -0.0350
 2679W        W18148   1.714  10.222   1.763  0.1671 -0.3109  0.0352
 2680W        W18149  17.382   7.886  13.796  0.1789 -0.1064  0.1993
 2681W        W18150  17.142   0.798   2.372 -0.0962  0.0432  0.1722
 2682W        W18151   1.807  10.059  13.025  0.2428 -0.1564 -0.0203
 2683W        W18152   8.420   0.755   6.027 -0.0262 -0.1198 -0.2994
 2684W        W18153   4.359  12.650  14.290  0.0536  0.3752 -0.2736
 2685W        W18154  14.567   3.213  15.865  0.1088 -0.2532  0.2428
 2686W        W18155   5.113   7.989   4.473 -0.0775 -0.4765 -0.2123
 2687W        W18156  11.079   3.053   6.416 -0.0134  0.3196  0.1069
 2688W        W18157  14.820   1.745  11.550  0.1060 -0.4048  0.2904
 2689W        W18158   4.312   4.925   2.923 -0.3563  0.1467 -0.0146
 2690W        W18159  15.116  16.324  10.474  0.2628 -0.0175  0.0502
 2691W        W18160  14.639  17.383   3.960 -0.2621 -0.1936  0.1529
 2692W        W18161  12.325   8.428   2.360  0.2687  0.0072 -0.0722
 2693W        W18162   9.992   6.562  12.645 -0.0178 -0.0780 -0.1700
 2694W        W18163   4.944  13.660  12.117 -0.2200  0.0700 -0.2631
 2695W        W18164   0.455   2.390   0.852  0.1025 -0.0443  0.1413
 2696W        W18165  15.863  11.385  11.748 -0.0149 -0.2109  0.1643
 2697W        W18166   2.270  15.676   5.085  0.0431 -0.1725  0.2323
 2698W        W18167   2.792   9.601  11.567 -0.2163  0.2072  0.1442
 2699W        W18168   3.988  12.512  13.285  0.0094  0.0711 -0.0513
 2700W        W18169   8.948  16.531   2.069 -0.2172 -0.2196 -0.2472
 2701W        W18170  17.509  15.907  12.113 -0.4857  0.2300  0.1528
 2702W        W18171   8.974  17.160  14.571  0.2187 -0.0414 -0.0258
 2703W        W18172  17.043   2.092   0.170 -0.1459 -0.0113  0.1044
 2704W        W18173  15.975  17.880   3.586 -0.1431 -0.1215  0.1119
 2705W        W18174  16.299  15.516   2.484 -0.1504 -0.0338  0.1686
 2706W        W18175   6.007   8.301   4.707 -0.0682  0.1856 -0.1423
 2707W        W18176   3.954   7.336   2.731 -0.0439 -0.2029  0.1620
 2708W        W18177  13.589   6.840   4.626 -0.2445  0.0569  0.2464
 2709W        W18178   4.675  12.024  11.341 -0.1332  0.0110  0.0335
 2710W        W18179  13.514   8.671  15.756 -0.2138  0.1406  0.0002
 2711W        W18180   4.715  15.055   3.951 -0.1771  0.0059 -0.1865
 2712W        W18181   6.671  11.060   3.626  0.0984 -0.1218 -0.3390
 2713W        W18182  11.908  16.037  14.689 -0.0473  0.2809 -0.2702
 2714W        W18183   7.278   6.161   1.929 -0.1191  0.2019 -0.1124
 2715W        W18184  16.590   6.316  14.559  0.0001 -0.1363  0.0088
 2716W        W18185   5.662  10.710  12.675 -0.3444  0.0528 -0.0404
 2717W        W18186  16.337  14.987   2.475  0.1996  0.2768  0.1576
 2718W        W18187   2.184   4.027   5.364 -0.0223 -0.2734 -0.1072
 2719W        W18188  11.833   2.118  15.337  0.1329 -0.0355 -0.1632
 2720W        W18189  17.991  10.891  12.797  0.0849 -0.0041 -0.0964
 2721W        W18190   6.936  11.873   1.754  0.3574 -0.0468 -0.1419
 2722W        W18191   7.821   2.826   1.315  0.1173 -0.1290  0.0889
 2723W        W18192  17.424   2.856   3.144 -0.0478 -0.1656 -0.2467
 2724W        W18193   6.954   3.678  11.698 -0.2597 -0.1556 -0.0129
 2725W        W18194   6.310   8.884   4.159 -0.1537 -0.0691 -0.2874
 2726W        W18195  12.769  17.249   2.678 -0.0685  0.0995 -0.2650
 2727W        W18196   9.681  12.360  15.499 -0.1879 -0.0113 -0.0274
 2728W        W18197   1.264  10.071  15.750 -0.0651 -0.1233 -0.1836
 2729W        W18198  13.843  14.771   4.161 -0.0871 -0.1297 -0.0316
 2730W        W18199   9.686   5.563  11.091  0.3185  0.1084 -0.1106
 2731W        W18200  11.142  16.461  14.631  0.3421 -0.0011  0.0363
 2732W        W18201   5.345  16.538   3.495  0.0504 -0.0543  0.0477
 2733W        W18202   4.286   4.905  12.458 -0.0620 -0.1614 -0.0909
 2734W        W18203  12.639   4.502  12.239  0.0166  0.2002  0.1725
 2735W        W18204  13.759   8.939  12.375  0.0221 -0.0330 -0.1204
 2736W        W18205  17.264   8.481  11.010 -0.1785  0.0507 -0.1277
 2737W        W18206  12.573   9.964   4.221  0.3877 -0.1894  0.0070
 2738W        W18207   7.336  15.605  14.981  0.0069  0.1764 -0.2133
 2739W        W18208   3.133   2.867  14.095 -0.0436 -0.0853 -0.1346
 2740W        W18209   7.982  18.441  13.259 -0.3831  0.0569 -0.2052
 2741W        W18210   0.530   1.563   4.653 -0.1862 -0.1464 -0.2249
 2742W        W18211   2.525   2.666   0.095 -0.1435 -0.1884  0.0740
 2743W        W18212   4.271   4.834  14.183 -0.0271  0.0694  0.0263
 2744W        W18213  17.489  12.887  10.870  0.0243 -0.0739  0.0343
 2745W        W18214   7.355  10.242   3.637 -0.0538 -0.0066  0.0442
 2746W        W18215   7.457   5.251   0.410  0.0424 -0.1036  0.0554
 2747W        W18216  13.059  18.314  14.480 -0.0822 -0.0754 -0.1361
 2748W        W18217  13.007  12.247  11.112 -0.0594  0.2216 -0.2743
 2749W        W18218  16.014   8.700  14.138 -0.1237  0.0252  0.1153
 2750W        W18219  17.713   6.147  15.241 -0.0096  0.0756  0.2756
 2751W        W18220   3.161   2.571   1.025 -0.0289 -0.0553  0.0043
 2752W        W18221   6.353   0.786  15.132  0.0281 -0.1369  0.2380
 2753W        W18222   2.441  12.062   0.396  0.5013  0.2571  0.0496
 2754W        W18223   2.071   4.401  13.982  0.1238  0.2308  0.3159
 2755W        W18224  16.013  13.334  15.412 -0.0697  0.0187 -0.0323
 2756W        W18225  17.265  17.628   5.371 -0.3380  0.0162 -0.1232
 2757W        W18226  15.564  15.942   5.684  0.0505 -0.1995  0.0457
 2758W        W18227   2.824  18.000   1.074  0.0122  0.1725  0.1491
 2759W        W18228   1.528   5.683   5.316 -0.0597 -0.4512 -0.2841
 2760W        W18229   1.534   6.491  12.175  0.1842 -0.0781  0.0107
 2761W        W18230   3.543  15.585   3.820 -0.3986 -0.0279 -0.0875
 2762W        W18231   1.916  12.688   0.961  0.0215  0.0133 -0.0148
 2763W        W18232  10.997   6.114   4.459  0.0909  0.0224 -0.2833
 2764W        W18233  12.845  11.021  12.694 -0.0371 -0.0583  0.2501
 2765W        W18234  12.713  12.419   0.764 -0.1389 -0.3382 -0.0800
 2766W        W18235   0.878   2.555  15.780 -0.2068  0.0894 -0.0394
 2767W        W18236   4.731   1.859   0.932 -0.2040 -0.0362  0.2660
 2768W        W18237   6.875   3.905  15.663 -0.2173 -0.3246  0.0766
 2769W        W18238  13.663   8.219   5.931 -0.1196 -0.0104  0.0797
 2770W        W18239   6.240  14.458   4.776 -0.2105 -0.2182  0.0692
 2771W        W18240   2.316   9.531   4.086 -0.2930  0.3033  0.4483
 2772W        W18241   6.134   2.670   4.068 -0.4894 -0.0703  0.1414
 2773W        W18242   7.145   8.886   0.072 -0.2534  0.0489  0.1386
 2774W        W18243  10.106  14.152   4.530  0.1514 -0.2215 -0.5018
 2775W        W18244   5.715   2.578  13.440  0.1272 -0.2218  0.3163
 2776W        W18245   5.945   8.083  11.110  0.0651 -0.0596  0.1241
 2777W        W18246  10.545  13.150  15.234 -0.0133 -0.0675 -0.1366
 2778W        W18247  15.113  11.970  12.545  0.2845 -0.0326 -0.0076
 2779W        W18248  15.550   1.499  13.310 -0.0928  0.0378 -0.1469
 2780W        W18249   5.121   0.263   4.191  0.1387 -0.0314 -0.2558
 2781W        W18250   3.253  10.190   5.160  0.3521  0.0752  0.0719
 2782W        W18251   4.366  16.096   3.566 -0.0950 -0.2376 -0.1232
 2783W        W18252   6.943   3.487  11.154 -0.0463 -0.0917 -0.0921
 2784W        W18253  16.594   4.974   3.622  0.1837 -0.0848 -0.0148
 2785W        W18254   7.112   7.322   4.377 -0.1174 -0.0027 -0.0349
 2786W        W18255   6.251   4.206  11.141 -0.1628  0.2272  0.0549
 2787W        W18256  17.908   7.050  13.725 -0.0412 -0.3531 -0.5341
 2788W        W18257  10.003   0.437   3.986 -0.2443  0.0173  0.2599
 2789W        W18258   3.905   4.121   0.212 -0.0922  0.1801 -0.2235
 2790W        W18259  15.746   5.310  14.287 -0.0224 -0.0574 -0.0501
 2791W        W18260  15.463   8.393   3.761 -0.0770 -0.3220  0.0149
 2792W        W18261   1.850  14.530  15.436 -0.1754  0.0357  0.0543
 2793W        W18262   7.496   1.094   1.189  0.0635  0.1529 -0.0213
 2794W        W18263   1.668  15.889  15.808 -0.1198 -0.3101 -0.1432
 2795W        W18264   4.198   7.580  15.505  0.1037  0.0736 -0.2658
 2796W        W18265  18.232  15.437  15.823 -0.2550 -0.0013 -0.1249
 2797W        W18266  17.232   6.421  12.650  0.0692  0.0980 -0.1918
 2798W        W18267   7.911   0.300   2.294 -0.0380  0.3357  0.3407
 2799W        W18268   1.789   8.219   1.774 -0.1459  0.0085  0.0328
 2800W        W18269  16.600   5.604  15.399 -0.4385  0.0807  0.2924
 2801W        W18270   0.190  14.454   2.400 -0.2498 -0.2341  0.1070
 2802W        W18271  13.781  12.553  14.733 -0.1417 -0.1769 -0.1984
 2803W        W18272  16.086  16.658  12.756  0.0964 -0.0464 -0.1701
 2804W        W18273   0.382   3.839  13.329  0.1891 -0.0305  0.2651
 2805W        W18274  15.346   3.142   4.424 -0.0979  0.2959  0.0544
 2806W        W18275   3.391   4.821   2.855 -0.2132 -0.2805 -0.1986
 2807W        W18276  10.647  16.732  13.658  0.2073  0.3222 -0.0512
 2808W        W18277  11.999  16.405  15.274 -0.1726  0.0217  0.5317
 2809W        W18278  18.123  17.134  10.962 -0.1137 -0.0740  0.0113
 2810W        W18279  12.995   7.635   3.591  0.0264  0.1733  0.4017
 2811W        W18280   0.660   2.855   9.773  0.0287  0.0857  0.2307
 2812W        W18281   7.630   5.257   1.482 -0.1740 -0.0185 -0.0740
 2813W        W18282   6.643   1.228  11.940  0.0183 -0.0481  0.0779
 2814W        W18283   8.606   9.017  11.363  0.1650  0.1398  0.0040
 2815W        W18284  13.124  17.512   5.892  0.0422 -0.0372  0.1768
 2816W        W18285   0.533  11.507   0.885  0.0065 -0.1249  0.1190
 2817W        W18286  12.564   3.827   3.240 -0.0476 -0.0328 -0.3031
 2818W        W18287  16.988   7.619  13.902  0.1242  0.2878 -0.1225
 2819W        W18288  13.422   4.708  15.195 -0.1350 -0.2108  0.2536
 2820W        W18289   9.088   4.074   4.760 -0.1116 -0.2259  0.0957
 2821W        W18290  10.298   0.720   4.971 -0.1519  0.1510  0.0323
 2822W        W18291   7.069   9.008   4.403  0.1156  0.1221 -0.0303
 2823W        W18292  18.117   8.284  12.233  0.1711  0.1760  0.2179
 2824W        W18293  13.261   2.901   2.614  0.0909 -0.0656  0.0044
 2825W        W18294   1.403   2.150  12.561 -0.1767 -0.1879  0.0753
 2826W        W18295  11.746   5.905   1.769  0.3961  0.1996  0.0087
 2827W        W18296  14.993  12.093   1.126  0.3381 -0.0236  0.0166
 2828W        W18297   1.284   1.412   0.411  0.1618 -0.0005 -0.2326
 2829W        W18298  16.423   8.737   1.525  0.2855 -0.1305 -0.1800
 2830W        W18299   0.111   7.041  11.882 -0.0951  0.3359 -0.1324
 2831W        W18300   2.018   2.714  11.930 -0.1022  0.0287 -0.0158
 2832W        W18301  13.569  11.623  15.492 -0.2901  0.0307  0.1220
 2833W        W18302  16.687   2.836   0.623  0.0711  0.1209 -0.0614
 2834W        W18303   6.767   6.204   0.643  0.0888 -0.0174 -0.2508
 2835W        W18304   2.417   1.876   4.004 -0.0114 -0.2990  0.1919
 2836W        W18305   6.517   1.556   0.337  0.0110  0.1526 -0.0408
 2837W        W18306  10.110   1.064   3.346  0.2399 -0.0706 -0.1496
 2838W        W18307   3.134   5.741  12.046  0.1912  0.2203  0.0445
 2839W        W18308  16.838  10.944  10.982  0.0556  0.1270  0.0649
 2840W        W18309  14.616   7.342   1.940 -0.1723 -0.0043  0.0193
 2841W        W18310  14.441  18.140  15.327  0.4247  0.0507  0.0264
 2842W        W18311   2.583   8.784   4.769 -0.1221 -0.1907 -0.2334
 2843W        W18312  10.046  12.236   1.018 -0.0919  0.0894 -0.2336
 2844W        W18313  16.557  17.437   2.810  0.0695  0.0557  0.0559
 2845W        W18314  13.811   2.863   1.688  0.0290 -0.1517  0.1888
 2846W        W18315   9.012  13.945   0.340  0.0562 -0.0440  0.3582
 2847W        W18316  13.517  16.943   1.991  0.0423  0.0761  0.0381
 2848W        W18317   1.053   3.503  12.285  0.1362  0.0838  0.1606
 2849W        W18318  13.584   4.429   4.288  0.0602 -0.2105 -0.1406
 2850W        W18319   4.662  14.983   4.840  0.0068 -0.2786 -0.2396
 2851W        W18320   0.761   1.980  13.305  0.0935 -0.0210 -0.0032
 2852W        W18321  16.414   9.601  11.302  0.0091 -0.2355  0.0052
 2853W        W18322   3.638   7.960  15.174  0.1174  0.1142 -0.3601
 2854W        W18323   1.398   7.278  11.677 -0.2736 -0.4433  0.1300
 2855W        W18324  16.547   9.641   1.455  0.3055  0.1057 -0.3472
 2856W        W18325   9.404   8.533   4.868 -0.0805 -0.0115 -0.4490
 2857W        W18326   5.535  13.958  10.512 -0.0786 -0.1139 -0.2063
 2858W        W18327   9.226   4.877   4.580 -0.2517 -0.0339 -0.1127
 2859W        W18328  16.177  14.781  11.348  0.0089 -0.2331 -0.2877
 2860W        W18329   5.740   4.749   5.761 -0.4083 -0.1075  0.0448
 2861W        W18330  17.208  15.739   3.163  0.0508 -0.2170 -0.2668
 2862W        W18331   4.501   9.482   3.579  0.1620 -0.1617 -0.1459
 2863W        W18332  14.166  12.597   2.251  0.2291 -0.0921  0.1586
 2864W        W18333   0.427  12.101  14.910 -0.0441  0.0114  0.0650
 2865W        W18334   3.091  18.259  11.411  0.0646 -0.2277  0.0652
 2866W        W18335   7.978   7.911  12.426  0.0776 -0.1069  0.0911
 2867W        W18336   9.078   3.298  12.886  0.0379  0.0735 -0.3436
 2868W        W18337   5.902  12.025  12.913  0.2641 -0.0437 -0.2910
 2869W        W18338  13.283   9.317  13.076 -0.0245  0.0498  0.2925
 2870W        W18339   3.889  15.250  12.342 -0.0250  0.2544 -0.5362
 2871W        W18340   6.491  16.084  15.347  0.0263  0.0603 -0.0797
 2872W        W18341  14.995  12.994   0.740  0.1025  0.0783 -0.1151
 2873W        W18342  11.606  12.159  14.416  0.2296 -0.0176 -0.1593
 2874W        W18343   5.265  10.964  13.964 -0.0019  0.2538  0.0480
 2875W        W18344  18.383   2.983   0.318  0.0367 -0.1336  0.0743
 2876W        W18345   2.129  14.583  12.497 -0.4856  0.1313  0.0678
 2877W        W18346   2.138   5.008   4.216  0.2109  0.2000  0.1869
 2878W        W18347  11.249   0.244   4.920  0.1310  0.1209 -0.0612
 2879W        W18348  10.730   2.144  15.669 -0.0253 -0.5393  0.2026
 2880W        W18349  12.381   7.613   2.894  0.0683  0.0516 -0.1133
 2881W        W18350   7.047  10.657   0.651  0.0979  0.1067 -0.2104
 2882W        W18351   8.225  11.790  15.027 -0.0363 -0.0884  0.0651
 2883W        W18352  13.571  15.629   3.983  0.0678  0.0573  0.6222
 2884W        W18353  17.473   7.027   0.578 -0.0304  0.2075 -0.2241
 2885W        W18354   3.767   8.675   1.566  0.0437  0.2491 -0.3480
 2886W        W18355  17.621   4.195   3.117  0.1945  0.4300 -0.1702
 2887W        W18356  12.866   3.966  15.912  0.2417 -0.1127  0.4128
 2888W        W18357  10.391  16.971   2.269  0.0163 -0.2139  0.0407
 2889W        W18358  13.911   0.779   1.401  0.0156 -0.1386  0.1882
 2890W        W18359   5.494   4.492  13.906 -0.0296 -0.1166 -0.0209
 2891W        W18360  11.784   6.416   1.783 -0.0603  0.1346 -0.1084
 2892W        W18361   5.420  14.595  14.626 -0.1281  0.2037 -0.1566
 2893W        W18362   1.378   4.855   4.324  0.0805 -0.1524  0.3158
 2894W        W18363  16.978  16.857   3.757 -0.1989 -0.0269  0.0638
 2895W        W18364  12.869   5.207  11.975  0.1276 -0.2573 -0.1232
 2896W        W18365   8.901   7.674  11.046 -0.1479  0.0915 -0.2264
 2897W        W18366   4.544   9.665   0.230  0.0301 -0.1490  0.3530
 2898W        W18367  14.413   6.315   2.947  0.1893  0.1078 -0.0567
 2899W        W18368  14.274   6.189  15.216 -0.0449 -0.1743 -0.2520
 2900W        W18369   6.640  14.314   3.488 -0.1089  0.1016 -0.0951
 2901W        W18370   3.078  17.488  13.125 -0.0374 -0.1379  0.0698
 2902W        W18371  15.109   4.806  12.607  0.0604 -0.0304  0.0501
 2903W        W18372  18.180   4.600  11.142  0.2588 -0.0610  0.0589
 2904W        W18373  12.726  13.343   5.018  0.0826  0.2319 -0.1313
 2905W        W18374   2.780  13.158  13.238 -0.1186 -0.0221  0.0330
 2906W        W18375  13.875  16.718  12.090 -0.1602  0.1241 -0.1443
 2907W        W18376  10.426   4.221   3.430 -0.3864 -0.2409  0.5390
 2908W        W18377  17.436  14.170   1.829 -0.0999  0.2832  0.1232
 2909W        W18378   8.828  14.108  14.083 -0.0637 -0.1431 -0.0459
 2910W        W18379   5.719  14.052   3.957 -0.1186 -0.3002  0.1428
 2911W        W18380   9.078   2.830   0.629 -0.1614  0.0988 -0.1251
 2912W        W18381   9.014   0.699  12.991  0.1364  0.2871 -0.2082
 2913W        W18382   9.063  16.797  15.637 -0.0354  0.0501 -0.2306
 2914W        W18383  11.914   1.935  14.877  0.0215 -0.1733  0.0558
 2915W        W18384   5.732  10.472  11.238 -0.0020 -0.3158  0.0236
 2916W        W18385   2.576  15.605   4.605  0.2245 -0.0681 -0.1609
 2917W        W18386  13.239   5.871  10.367  0.2561  0.0153 -0.0540
 2918W        W18387   7.585   5.157   3.464  0.3421 -0.0652 -0.3101
 2919W        W18388  14.073   2.398   5.477  0.1076 -0.0523 -0.1741
 2920W        W18389  12.760   5.831  13.128 -0.0569 -0.1081 -0.0128
 2921W        W18390  16.840   6.770  14.495  0.0434 -0.0023 -0.0724
 2922W        W18391  15.859   9.886   1.927 -0.0754  0.0499 -0.2887
 2923W        W18392  10.001  18.191   5.043  0.3245  0.0047  0.0210
 2924W        W18393  10.364  13.600   1.242  0.0081  0.1910 -0.0725
 2925W        W18394  14.916   3.715   2.090 -0.2530  0.2135 -0.4226
 2926W        W18395  18.138  11.877   4.411 -0.1182  0.2375 -0.4236
 2927W        W18396   6.947  17.557   0.240  0.3862 -0.2328  0.4516
 2928W        W18397   7.458  16.206   1.811  0.0881 -0.0766 -0.0039
 2929W        W18398   6.063   6.991   1.487 -0.0800  0.2189  0.1024
 2930W        W18399   3.665  13.305   4.167 -0.1719  0.3307 -0.1284
 2931W        W18400   7.484  12.096   1.630 -0.1818  0.0030 -0.0868
 2932W        W18401  13.618   1.146  12.119 -0.0238  0.0944  0.0344
 2933W        W18402   0.408  17.685   1.100 -0.0922  0.1164  0.1199
 2934W        W18403   6.331   3.255  15.309  0.2836 -0.5036 -0.0824
 2935W        W18404   1.809  16.544   1.304 -0.1979  0.0387 -0.0898
 2936W        W18405   7.658  18.031   5.781  0.2368 -0.2141 -0.0040
 2937W        W18406   3.316  13.619  12.694 -0.2181  0.0103  0.0216
 2938W        W18407  14.914  12.611  13.321  0.3280  0.2310  0.2442
 2939W        W18408  17.599  15.207   3.233  0.2212 -0.1389  0.2420
 2940W        W18409  17.626   8.178  12.195 -0.3010 -0.0083  0.0380
 2941W        W18410  10.119   8.936  13.659  0.0643 -0.0345  0.2265
 2942W        W18411  14.402   7.924   1.134 -0.1102 -0.1955  0.0073
 2943W        W18412   3.785   2.865  10.958  0.2410 -0.0628  0.0876
 2944W        W18413  12.979  13.149   0.961  0.3709 -0.0914 -0.2636
 2945W        W18414  16.161   0.851   0.724  0.0132 -0.3440  0.1335
 2946W        W18415   8.394  10.040  13.696 -0.0734 -0.0505 -0.0110
 2947W        W18416   2.627   9.034   0.266  0.1051  0.0171 -0.1854
 2948W        W18417  10.335  12.989  12.325  0.3290 -0.0438  0.1572
 2949W        W18418  14.280   6.588  12.974  0.0657 -0.0561 -0.0419
 2950W        W18419   4.828  17.282  12.800  0.0281  0.0831  0.3183
 2951W        W18420   2.471   3.273   3.846  0.1340 -0.0037 -0.0387
 2952W        W18421   5.817  10.891   4.270  0.0861  0.1862 -0.0057
 2953W        W18422  10.563  16.475   5.587  0.0697 -0.2884  0.1011
 2954W        W18423   9.731  15.199   1.784 -0.2524  0.1524 -0.1294
 2955W        W18424  18.115   2.183  14.936 -0.1816  0.2354 -0.1465
 2956W        W18425  14.201  16.752   2.483 -0.0061  0.3464 -0.0784
 2957W        W18426   6.673  14.213   5.673  0.2941  0.0957  0.1218
 2958W        W18427   6.922  14.878   4.214 -0.2161  0.0648 -0.1099
 2959W        W18428   4.856   8.459  13.412  0.0594  0.0647  0.1450
 2960W        W18429   5.964  14.087   0.660  0.2302  0.0007 -0.0185
 2961W        W18430   7.581   7.902  11.448 -0.3473  0.0665  0.2104
 2962W        W18431   8.988  15.776  14.591 -0.1099  0.0332  0.0415
 2963W        W18432  17.134   9.881   3.161  0.1951  0.0626 -0.3642
 2964W        W18433   3.377  11.383   1.507 -0.0972 -0.0681 -0.1348
 2965W        W18434   0.100   9.098  12.863 -0.0350  0.1295 -0.1769
 2966W        W18435   6.892   1.735  13.131 -0.1457  0.0047 -0.1602
 2967W        W18436   0.163  17.018   2.619 -0.2152  0.2158 -0.3230
 2968W        W18437  18.227   6.620  11.001 -0.0482 -0.0973  0.1865
 2969W        W18438   9.685  15.529  10.428  0.0552 -0.1748  0.1698
 2970W        W18439   9.186   9.671   2.196  0.0533 -0.0930 -0.3866
 2971W        W18440  15.508  13.347  15.598  0.0616 -0.1705  0.1249
 2972W        W18441   3.854   2.704  10.297  0.4271  0.1128  0.1552
 2973W        W18442  14.176   8.875   3.656  0.0464 -0.2378  0.0244
 2974W        W18443  18.001   9.413   3.008  0.0860  0.1692  0.0825
 2975W        W18444   1.557   9.603   3.462  0.1454  0.0020  0.2878
 2976W        W18445  15.299  18.353   4.440  0.1055 -0.0219 -0.4259
 2977W        W18446  17.741  11.828  13.632 -0.5137  0.1400 -0.1837
 2978W        W18447   4.885   4.492   4.112 -0.2632  0.0759  0.1744
 2979W        W18448  16.960  12.427  13.960  0.0529  0.3076  0.0553
 2980W        W18449   0.685   3.583   0.146  0.1489  0.1661 -0.0415
 2981W        W18450   9.684   7.922   2.161 -0.0179  0.1248  0.1594
 2982W        W18451   4.219  13.422   4.435  0.0740  0.0607 -0.3843
 2983W        W18452  11.619  15.157  13.410  0.0658  0.0787  0.2002
 2984W        W18453   8.588  17.470   1.581  0.1410  0.0421  0.2143
 2985W        W18454   3.135  11.157   4.189  0.0521 -0.3244  0.0683
 2986W        W18455   6.119   4.973   2.611 -0.0478  0.2128 -0.1274
 2987W        W18456  15.477   4.932  13.630  0.0649 -0.1124  0.1202
 2988W        W18457  15.196  13.606   2.250  0.0189 -0.2878 -0.2394
 2989W        W18458   7.843  12.621   2.195  0.1967  0.2599  0.0915
 2990W        W18459   5.105  14.677  10.082 -0.2506  0.0462  0.3842
 2991W        W18460   2.127  12.457  13.966  0.2158 -0.0933 -0.1717
 2992W        W18461  14.315   5.150   1.009 -0.2244  0.3677 -0.3071
 2993W        W18462  14.695  13.295   1.033  0.0854 -0.2838  0.0415
 2994W        W18463   3.182  17.570  14.595  0.1715  0.0736  0.0062
 2995W        W18464  15.458   6.628   1.581  0.1639 -0.1770 -0.0679
 2996W        W18465   0.037  17.616   4.165  0.1638 -0.1484  0.0738
 2997W        W18466  10.649   8.345  10.698 -0.2048 -0.0622 -0.4339
 2998W        W18467   3.813   7.299  14.978 -0.2946 -0.2892 -0.1062
 2999W        W18468   8.527   3.596   5.333 -0.0756 -0.0443  0.1738
 3000W        W18469   0.096   8.353  13.394  0.1683  0.2580 -0.1523
 3001W        W18470  12.678   0.979   4.434 -0.1428 -0.2213 -0.0664
 3002W        W18471  18.483   9.959   3.601  0.1593  0.1645  0.0070
 3003W        W18472   7.329  17.073   1.546  0.0372 -0.0777 -0.1020
 3004W        W18473   3.094   4.501   2.280  0.0740 -0.1126  0.1127
 3005W        W18474   5.804   6.732   0.757 -0.1230  0.3410 -0.1545
 3006W        W18475  14.317   4.954   3.311  0.1346 -0.1299  0.0688
 3007W        W18476   4.745   6.755   5.031  0.1684 -0.1008  0.1872
 3008W        W18477  17.716   2.575  15.659  0.0246  0.0619  0.0713
 3009W        W18478   3.541  17.586   5.973 -0.0892  0.0475  0.0924
 3010W        W18479  14.768   0.295   3.727 -0.0614 -0.4091 -0.1700
 3011W        W18480  10.492   2.491  11.517 -0.2765  0.1900 -0.2028
 3012W        W18481   3.219   7.383  15.601 -0.1410 -0.2130  0.0507
 3013W        W18482   8.461  13.411   3.996  0.0750 -0.1745  0.1571
 3014W        W18483  18.393   6.105   3.601 -0.0066 -0.0699 -0.0197
 3015W        W18484   6.813   5.302  13.639 -0.1388  0.3412 -0.5635
 3016W        W18485  10.995   6.654   4.782 -0.0986 -0.4489  0.3431
 3017W        W18486   6.906  15.415  14.574  0.2094  0.4558 -0.0103
 3018W        W18487  16.660   5.913   1.400  0.1664  0.1108  0.0108
 3019W        W18488  12.442  12.593  12.866  0.2488  0.2979 -0.1397
 3020W        W18489   3.835   6.469   2.361 -0.2445  0.0283  0.0933
 3021W        W18490  16.592   3.224   3.215  0.1010  0.2474 -0.0532
 3022W        W18491  12.884   8.146  11.058  0.1054 -0.0318  0.2113
 3023W        W18492  17.530   4.658   4.690  0.1291 -0.0160  0.0193
 3024W        W18493   8.420   3.326   2.140  0.0137 -0.0520  0.0026
 3025W        W18494  14.494  10.534  14.841 -0.3219 -0.0028  0.0531
 3026W        W18495   8.695   5.996   4.177  0.0851 -0.1117  0.0319
 3027W        W18496  12.864   8.251  10.217 -0.3318  0.0158 -0.2145
 3028W        W18497  11.530   6.112  15.722 -0.1051 -0.0028  0.1144
 3029W        W18498  12.582   2.172  14.256 -0.3961  0.1502  0.2569
 3030W        W18499   3.739  11.720   2.757 -0.1808 -0.4065  0.3558
 3031W        W18500   0.181  15.640  15.811  0.0618  0.1796  0.2307
 3032W        W18501  12.037   6.218  15.796 -0.1686  0.1172 -0.1560
 3033W        W18502   8.501  17.560  15.132  0.0268  0.1019 -0.0418
 3034W        W18503  11.903   5.938   5.135 -0.0816  0.1919  0.0960
 3035W        W18504   2.786   8.467  15.159  0.0245 -0.1145  0.2013
 3036W        W18505   4.221   7.888  11.185  0.3077  0.3849  0.1614
 3037W        W18506  10.259  15.317   0.382 -0.2168 -0.0001 -0.3468
 3038W        W18507  14.379   6.219   1.751  0.0622  0.3518  0.1402
 3039W        W18508  12.458   8.968   4.090  0.0550  0.0648  0.2985
 3040W        W18509   8.739   8.771   0.304 -0.0830  0.2317  0.1543
 3041W        W18510   2.180   0.919  11.796 -0.3202 -0.0207  0.1920
 3042W        W18511  17.044  12.854  15.013 -0.0334  0.1021  0.0792
 3043W        W18512   0.948   6.595  15.886 -0.0766  0.3433 -0.0007
 3044W        W18513  13.894   7.798  11.809  0.2187 -0.2353 -0.1486
 3045W        W18514   8.667  13.393  14.852  0.1812  0.2149  0.2883
 3046W        W18515  16.887   4.740  11.323  0.3112 -0.1459 -0.0326
 3047W        W18516   1.078  10.971  13.935 -0.0647 -0.2470 -0.0022
 3048W        W18517   4.522   8.124   5.429  0.3160 -0.3125  0.1088
 3049W        W18518  12.730   1.887  15.750 -0.1444 -0.0927  0.0693
 3050W        W18519   7.243  18.117   4.322  0.1511  0.2437  0.1254
 3051W        W18520  15.571   1.617  10.273  0.0249 -0.0715 -0.1882
 3052W        W18521  14.895  17.575   4.871 -0.0440  0.1370 -0.2419
 3053W        W18522  18.329   9.169  12.342 -0.2223 -0.2349  0.2325
 3054W        W18523  10.104  11.057   1.741 -0.0296 -0.1811  0.3476
 3055W        W18524  11.372   6.412   4.530 -0.0596  0.1706 -0.1220
 3056W        W18525   0.190   9.711   4.548  0.2254 -0.3385 -0.0795
 3057W        W18526   5.231   3.427  13.053 -0.3016  0.0207  0.0399
 3058W        W18527   0.372   0.970   0.226  0.2061 -0.0322  0.2028
 3059W        W18528   6.819   6.189   3.788 -0.0425 -0.0696  0.0388
 3060W        W18529  17.490  16.736  10.222 -0.0123  0.3484 -0.0176
 3061W        W18530  17.433   1.413  14.848  0.1676 -0.0782  0.0918
 3062W        W18531   1.844  17.115   3.721 -0.0825  0.1170  0.1100
 3063W        W18532   0.559  10.685   5.684 -0.1179  0.1353 -0.2349
 3064W        W18533   8.209  17.876   4.352  0.2069 -0.1070 -0.1866
 3065W        W18534   1.365   5.211   2.932 -0.1553 -0.1139  0.1773
 3066W        W18535  11.704   6.417   5.006  0.3627  0.0391 -0.0097
 3067W        W18536   5.682  11.137   2.466 -0.0757  0.0969 -0.2340
 3068W        W18537  12.648   8.576  11.223 -0.1967  0.0066 -0.0301
 3069W        W18538   0.939  16.499   2.335  0.3103  0.4288 -0.0268
 3070W        W18539   7.077  16.455   5.197  0.4275 -0.0738  0.0956
 3071W        W18540   8.843   8.592   1.259  0.3747 -0.0359 -0.1156
 3072W        W18541  13.028   8.364   0.974  0.1612  0.3607  0.0307
 3073W        W18542  17.410   4.722  10.957 -0.0138 -0.1902 -0.1932
 3074W        W18543  14.854  15.605   5.218 -0.0851 -0.1867  0.0124
 3075W        W18544   0.433   0.117  10.472  0.0690 -0.2637  0.0951
 3076W        W18545  16.776  15.083  15.272  0.2020  0.1427 -0.1353
 3077W        W18546   5.023  12.093  13.690  0.1261 -0.1203 -0.1263
 3078W        W18547  12.424  17.220   3.707  0.1166 -0.2906  0.0992
 3079W        W18548  17.714   2.522  14.829 -0.0557  0.0449  0.1421
 3080W        W18549   9.463  17.498   1.278 -0.1933  0.0948 -0.3088
 3081W        W18550   2.038   5.878   5.354 -0.1087  0.2483  0.2398
 3082W        W18551   8.883   6.779   4.361  0.2327 -0.0221 -0.0485
 3083W        W18552  17.280   4.314  14.569 -0.0128  0.1430 -0.1282
 3084W        W18553   4.775   1.451  11.948 -0.0704 -0.1446 -0.0078
 3085W        W18554   6.096   0.726   1.141 -0.0550 -0.0977  0.1022
 3086W        W18555   4.839   3.481   3.345 -0.1412  0.2433  0.0390
 3087W        W18556  17.381   7.486   0.851  0.2835 -0.4019  0.1952
 3088W        W18557  12.590  16.710  15.062  0.1250  0.1786  0.1940
 3089W        W18558  17.177   8.105   9.860  0.0518  0.1091 -0.1087
 3090W        W18559  11.751  13.322  14.581  0.0516 -0.1282  0.3458
 3091W        W18560   2.681   6.162  12.662 -0.2588  0.0097  0.1748
 3092W        W18561  13.713  15.873  13.303  0.2753  0.1161 -0.3243
 3093W        W18562  18.168  14.759   4.390 -0.4009 -0.0811  0.2352
 3094W        W18563   0.095  18.184  15.323  0.0395  0.2152  0.2074
 3095W        W18564  16.330   8.566   4.043  0.3097  0.0176 -0.0555
 3096W        W18565   6.600   0.491  14.503  0.0882 -0.1786 -0.0217
 3097W        W18566  13.647   9.171  15.784 -0.0295 -0.2518  0.0220
 3098W        W18567   0.792   4.783  13.557 -0.0566  0.0195  0.1233
 3099W        W18568   1.035  11.719  14.251  0.2571  0.1523 -0.0600
 3100W        W18569  13.603  16.623  11.641  0.1471 -0.0444 -0.2498
 3101W        W18570   5.344   0.812  12.429 -0.2719  0.1567  0.0216
 3102W        W18571  17.195  17.161  12.823  0.1192 -0.4633  0.0608
 3103W        W18572  10.410   7.901   2.716  0.1381  0.0293 -0.2594
 3104W        W18573   6.592  10.619   1.051  0.3639  0.0235 -0.0106
 3105W        W18574  16.112   3.532   2.226 -0.1615  0.0641  0.1726
 3106W        W18575  11.938  16.686  12.210 -0.0962  0.0453 -0.1530
 3107W        W18576   1.535   0.080  10.982  0.0669 -0.1581  0.0668
 3108W        W18577   1.157  17.448   4.382 -0.0962 -0.0665 -0.2046
 3109W        W18578   6.917  12.071   4.131 -0.2059  0.0693 -0.2709
 3110W        W18579   8.057   2.688  15.488 -0.0084 -0.1460 -0.1284
 3111W        W18580  13.159   0.981  14.012  0.1795  0.0073 -0.0805
 3112W        W18581  17.415   1.296   1.077  0.2465 -0.1824 -0.3074
 3113W        W18582  18.133   3.488  12.635  0.1684  0.2041 -0.3244
 3114W        W18583   7.308  11.612  14.329  0.0768 -0.0553 -0.0242
 3115W        W18584  16.546  12.185  15.666 -0.1268 -0.1248 -0.0998
 3116W        W18585   3.283   8.370   0.189 -0.1077 -0.3076 -0.1096
 3117W        W18586  18.364  13.058  10.433 -0.0723 -0.3474 -0.1461
 3118W        W18587  14.690   2.094   4.644 -0.1766  0.0162  0.0879
 3119W        W18588   7.291   8.725  11.123  0.1603 -0.1322 -0.0286
 3120W        W18589   2.570   3.136   3.334 -0.0661 -0.1414  0.0807
 3121W        W18590  16.677  11.586   4.703 -0.2247 -0.0082 -0.0614
 3122W        W18591   9.143   4.196   2.679  0.1234  0.1308  0.0347
 3123W        W18592  14.734  14.715   5.165  0.2618 -0.0332 -0.3538
 3124W        W18593   9.548  13.987   2.343 -0.0519  0.3539  0.0140
 3125W        W18594   3.565  11.530   4.011 -0.0332 -0.2867  0.1453
 3126W        W18595  11.346  10.820   3.419  0.2408 -0.3401 -0.1497
 3127W        W18596  14.229   9.092  12.199  0.1666  0.1649 -0.1556
 3128W        W18597   5.956   4.228   3.116  0.2756 -0.1733 -0.0883
 3129W        W18598  16.139   3.671   0.010 -0.0836  0.1111  0.2194
 3130W        W18599  11.649   1.624  12.377 -0.1717  0.1205 -0.1453
 3131W        W18600   3.249  10.432  15.026 -0.3588  0.0020  0.1134
 3132W        W18601  10.699  16.257  14.403  0.0655  0.1782  0.1625
 3133W        W18602   4.191  12.533   0.683 -0.0013  0.3061  0.1137
 3134W        W18603  14.817  16.055  12.744  0.0673 -0.1316 -0.1249
 3135W        W18604  16.814   0.927  15.633  0.1589  0.0401  0.0908
 3136W        W18605  15.035  11.488   1.938 -0.1607  0.0536 -0.0349
 3137W        W18606   2.693  15.438   2.765  0.0497  0.0301 -0.0391
 3138W        W18607   8.492  10.394  14.826 -0.0683 -0.1668  0.2687
 3139W        W18608  13.055  13.460   4.684 -0.1472 -0.2392 -0.1837
 3140W        W18609  15.129   2.982   3.090  0.0175  0.0517  0.0664
 3141W        W18610  11.113   0.644  15.702 -0.0667  0.0651  0.1451
 3142W        W18611  11.690   7.799   2.293  0.4251  0.1248 -0.0247
 3143W        W18612  16.349   8.004  10.204  0.3838 -0.2283  0.2486
 3144W        W18613   0.210  17.590  14.855 -0.0124  0.0617  0.2658
 3145W        W18614  14.989   6.331  12.809  0.3689 -0.0056  0.1338
 3146W        W18615   5.615   2.469  12.939  0.1281  0.1460  0.1259
 3147W        W18616  18.312   2.597  12.714 -0.2751  0.2981  0.3325
 3148W        W18617  11.308   4.310   4.230  0.0633  0.1406 -0.0389
 3149W        W18618   2.959  10.524  14.639  0.1704 -0.0603 -0.0621
 3150W        W18619   8.253   7.368   3.814  0.0623  0.1792 -0.5572
 3151W        W18620   7.774   6.612   4.447 -0.0076  0.0638 -0.0058
 3152W        W18621   2.097   3.116   4.108 -0.0909 -0.3085  0.1545
 3153W        W18622  15.584  10.030   0.859 -0.3409 -0.2919 -0.0699
 3154W        W18623   7.906  10.362  10.578  0.2274 -0.3607 -0.1666
 3155W        W18624  14.256   0.037  15.855  0.0132 -0.1581 -0.1583
 3156W        W18625   8.759  14.033  15.166 -0.2548  0.2550  0.3467
 3157W        W18626  13.829   5.084  14.236  0.2872 -0.0581 -0.3887
 3158W        W18627  11.637   3.949  14.193 -0.0808 -0.0002  0.1311
 3159W        W18628  16.749   8.700   0.704  0.0751 -0.1008  0.1038
 3160W        W18629  14.769   5.743  14.609 -0.1025 -0.3578  0.0825
 3161W        W18630   0.310   9.535   1.841  0.3076  0.1972  0.1592
 3162W        W18631   0.023  14.252  12.252 -0.1233 -0.0578  0.0294
 3163W        W18632   3.173   9.311   2.666 -0.2190 -0.0512 -0.1525
 3164W        W18633  15.638  11.730   3.834  0.0345  0.4111 -0.2320
 3165W        W18634  15.807  18.153   0.618 -0.2631  0.3502 -0.0588
 3166W        W18635  14.909  10.746  14.962  0.2035  0.3666 -0.1306
 3167W        W18636   5.006  12.462   3.387 -0.2817  0.3578  0.1514
 3168W        W18637   9.820   9.385  13.727  0.1030  0.3063  0.1886
 3169W        W18638  11.379  13.221   2.792  0.3114 -0.0326 -0.1211
 3170W        W18639   6.729   1.254  13.055 -0.2970  0.0827  0.3007
 3171W        W18640   7.157  12.870  13.015 -0.1265 -0.0063 -0.1684
 3172W        W18641   8.652  17.151  14.909  0.1230  0.1116 -0.1324
 3173W        W18642   0.212  16.961   0.729 -0.2802  0.0073  0.1430
 3174W        W18643   9.329   6.255   4.924  0.2993 -0.0288 -0.0507
 3175W        W18644  17.924   1.851  13.079 -0.1605  0.0132 -0.4750
 3176W        W18645   9.365  15.400  12.719 -0.4165  0.0546  0.0418
 3177W        W18646  15.117   9.003   3.843 -0.1282 -0.1761  0.1990
 3178W        W18647   7.508  10.776   3.546 -0.0718 -0.1729  0.0051
 3179W        W18648   6.067   7.024   2.486 -0.0856 -0.1073  0.0586
 3180W        W18649  15.162   1.616   4.054  0.0680 -0.0864 -0.2358
 3181W        W18650   6.347  17.025  12.654 -0.1102 -0.3289 -0.1582
 3182W        W18651   6.751   3.655  13.906 -0.1700 -0.0645 -0.2857
 3183W        W18652   1.312  12.804  14.540  0.1626  0.3071  0.2014
 3184W        W18653  13.123   6.669   5.070 -0.0019 -0.3545  0.0402
 3185W        W18654   9.723  13.072  10.661 -0.0134  0.1954 -0.1038
 3186W        W18655   6.974   3.874   3.628  0.1253  0.2536 -0.2659
 3187W        W18656  17.581   1.464   4.390 -0.0886  0.2662 -0.0935
 3188W        W18657   1.611   1.620  12.584  0.1451 -0.0023  0.2381
 3189W        W18658  16.751  11.268   0.174  0.0519  0.4936 -0.1769
 3190W        W18659  17.941   4.551   4.489 -0.0622  0.2046 -0.0117
 3191W        W18660   1.859   8.797   3.557  0.3292 -0.3869  0.5019
 3192W        W18661   0.960   9.204  14.690 -0.2258  0.0365 -0.0620
 3193W        W18662   2.428  16.981  10.979 -0.1031  0.0445  0.0857
 3194W        W18663  12.203   5.795  14.087 -0.0025  0.0057 -0.1233
 3195W        W18664   7.943   5.330  10.910  0.3190 -0.0270  0.0585
 3196W        W18665   0.784  17.629   2.670  0.0258  0.0872  0.4151
 3197W        W18666  17.414   9.879   1.262  0.0193 -0.2728  0.1253
 3198W        W18667  13.643  18.337   1.707 -0.0634  0.1553  0.0908
 3199W        W18668   4.812   6.935  12.440 -0.0035  0.2328  0.2156
 3200W        W18669   8.616   8.423  15.792 -0.1819  0.0501  0.0810
 3201W        W18670  14.358   1.950  11.403 -0.2601 -0.1855 -0.1154
 3202W        W18671  18.014   4.190   1.495  0.0401 -0.1452 -0.1327
 3203W        W18672   6.212   9.247   0.201 -0.0879  0.2835  0.1116
 3204W        W18673   1.038   1.121   3.189 -0.1062 -0.0267 -0.1095
 3205W        W18674   7.496   4.399  12.334  0.2238 -0.2313  0.0590
 3206W        W18675   4.578   8.250  11.243 -0.1561  0.1841  0.2740
 3207W        W18676   0.939   8.436  13.604  0.0791 -0.2637  0.1764
 3208W        W18677  13.502  14.768   1.497 -0.1795  0.1583 -0.1243
 3209W        W18678   8.854   3.540  11.669 -0.2690 -0.2964 -0.1541
 3210W        W18679  13.477  16.987  14.068  0.1132  0.0016  0.1826
 3211W        W18680   4.384   2.108   2.457 -0.1930 -0.0511 -0.2413
 3212W        W18681  13.750  12.674  10.897  0.2818  0.1555  0.2578
 3213W        W18682   0.386  13.732   1.239  0.0965 -0.0230  0.2070
 3214W        W18683  13.660  12.042  13.075  0.0028 -0.2125 -0.0024
 3215W        W18684  13.204   0.932  12.023  0.0514 -0.1102  0.0637
 3216W        W18685   9.154   0.609  13.948  0.3192 -0.2209 -0.1765
 3217W        W18686   7.616   6.396  13.358  0.3204 -0.2058 -0.4274
 3218W        W18687  18.138  10.456   2.069 -0.2579 -0.0774 -0.1012
 3219W        W18688   1.730   6.941  15.316 -0.0134  0.3153  0.1019
 3220W        W18689  10.556  13.392   0.860 -0.3096  0.1513  0.2074
 3221W        W18690   1.364  18.376   5.916  0.0319  0.0954 -0.0652
 3222W        W18691   4.364  14.627  14.644 -0.0369  0.1479  0.2850
 3223W        W18692  13.117  10.418  15.409 -0.0518 -0.0986 -0.3576
 3224W        W18693   9.754   5.268   3.400  0.3633 -0.0531 -0.0423
 3225W        W18694   1.174   1.603  14.693 -0.3511 -0.2774  0.2782
 3226W        W18695   6.423   7.110  10.653 -0.0769 -0.2126  0.1266
 3227W        W18696   9.629  16.267   4.946 -0.1295  0.0449 -0.2276
 3228W        W18697   8.544  14.951   0.848 -0.0592 -0.2152 -0.0164
 3229W        W18698  12.855   8.981  15.080 -0.0619 -0.2159  0.0185
 3230W        W18699  17.204   3.828  13.702 -0.1701 -0.2726 -0.0578
 3231W        W18700   7.088  11.196  15.549 -0.0571 -0.2510 -0.0844
 3232W        W18701  11.446   5.130  12.792  0.1784  0.1046 -0.0089
 3233W        W18702   7.053   5.171   3.860  0.2560 -0.0410 -0.2807
 3234W        W18703  11.452  13.509   5.347 -0.1186  0.0213  0.1771
 3235W        W18704   5.933  12.022   2.416 -0.0737 -0.2351  0.0044
 3236W        W18705  13.413   1.486   4.573 -0.4255  0.3377  0.2374
 3237W        W18706  16.451   4.672  15.186  0.2758  0.4996  0.0503
 3238W        W18707   0.746   0.741   4.945  0.1959  0.1261 -0.0492
 3239W        W18708   6.792  18.109   3.319  0.0613 -0.0169 -0.3783
 3240W        W18709  12.928  14.078  11.878 -0.2415  0.3364 -0.0089
 3241W        W18710   9.814   7.141  12.513  0.1024 -0.2786 -0.0389
 3242W        W18711   9.409  12.266   2.455  0.0487 -0.1140 -0.3394
 3243W        W18712   0.808  14.972  13.858  0.2788  0.0125 -0.2063
 3244W        W18713   6.226   2.676  15.593  0.0950 -0.1172 -0.1406
 3245W        W18714   9.468   2.667   5.022  0.0315 -0.1080  0.2089
 3246W        W18715   4.050   0.956   4.801  0.1021  0.1132 -0.0707
 3247W        W18716   5.242   4.940  15.811  0.0615 -0.0823 -0.2220
 3248W        W18717   9.776   7.096  14.554  0.0655  0.2192  0.0682
 3249W        W18718   0.480   7.402  15.845  0.0139  0.5015  0.1407
 3250W        W18719  13.487  11.747   3.505  0.1155 -0.1493  0.4567
 3251W        W18720  16.030   6.057   1.213 -0.0338  0.3614  0.1155
 3252W        W18721  10.820   6.386   0.090 -0.3034  0.1623 -0.0019
 3253W        W18722   3.807  18.444   1.931 -0.0484 -0.1492  0.0891
 3254W        W18723   7.033   5.691  12.165 -0.0516  0.4468 -0.0084
 3255W        W18724  16.045  11.468   3.214  0.0817  0.1775  0.2679
 3256W        W18725   3.926  11.735   5.355 -0.0437  0.0500 -0.2320
 3257W        W18726   0.471   0.923  14.254 -0.0047  0.1842  0.3315
 3258W        W18727  17.090   4.261  12.829 -0.2381 -0.0976 -0.0863
 3259W        W18728   0.383   2.524   4.014 -0.1524 -0.1527 -0.0814
 3260W        W18729  14.197  11.411  13.681 -0.0048 -0.2567 -0.0264
 3261W        W18730   5.251  10.630  11.868  0.4475  0.1489  0.2311
 3262W        W18731  15.002  11.248  14.998  0.0381  0.2261  0.2168
 3263W        W18732   0.375   1.480  14.948 -0.1079 -0.1010 -0.1002
 3264W        W18733  13.069  11.505   5.672 -0.2357  0.1155  0.0932
 3265W        W18734  12.540  14.697   0.681  0.2425 -0.1642  0.1961
 3266W        W18735  17.416   2.543  13.496  0.2667  0.1892  0.2354
 3267W        W18736  13.606   4.036  12.518 -0.1690  0.2472 -0.1775
 3268W        W18737  11.021  18.111   2.001 -0.1349  0.1814  0.3141
 3269W        W18738   4.404  12.985  14.923  0.0280  0.2329  0.2373
 3270W        W18739  13.111   6.597   2.182  0.0768  0.1890  0.1559
 3271W        W18740   5.664   2.955  12.505 -0.0480 -0.2389 -0.0173
 3272W        W18741  14.617  16.582  15.095 -0.2512 -0.3640 -0.2936
 3273W        W18742  13.490   1.118   2.123 -0.0779 -0.0119  0.0742
 3274W        W18743   6.959  18.033   3.805  0.3143  0.2317  0.1386
 3275W        W18744   7.422  12.415   4.221 -0.1612 -0.0344  0.1260
 3276W        W18745  16.525   0.920   1.530  0.0994 -0.3096 -0.0529
 3277W        W18746   0.518  17.965   0.669  0.0736  0.2873 -0.1775
 3278W        W18747  13.255   6.155  13.463  0.1773  0.3178  0.0490
 3279W        W18748   4.675   0.736   2.015 -0.0629 -0.1611  0.2833
 3280W        W18749  14.717   8.771  12.220  0.0589  0.4008 -0.0118
 3281W        W18750  14.882  10.583  14.481  0.0718  0.0661 -0.3606
 3282W        W18751   6.756   3.306   5.478  0.0080 -0.2165 -0.0092
 3283W        W18752   2.580  15.517   4.119  0.0309 -0.1012  0.3157
 3284W        W18753  10.852   9.375  15.681 -0.2502 -0.1635 -0.4093
 3285W        W18754   9.827   6.544  13.885 -0.2283  0.0279 -0.1801
 3286W        W18755   4.192   4.178  13.052  0.1215 -0.2434  0.0575
 3287W        W18756   0.727  15.903  15.701  0.0896  0.0010  0.2218
 3288W        W18757  16.629  14.120  15.677 -0.0980  0.0657 -0.1481
 3289W        W18758   7.369  13.597   2.120 -0.0652 -0.1682 -0.3459
 3290W        W18759   2.462  14.706   1.092  0.1492  0.0023 -0.3560
 3291W        W18760   0.200   0.425  14.608  0.1840 -0.2629  0.0719
 3292W        W18761   6.773  14.007  13.989 -0.1396 -0.1938 -0.3444
 3293W        W18762   0.632  17.962  13.816  0.2013 -0.0121  0.1612
 3294W        W18763  13.533  17.655  13.551  0.1009  0.3269 -0.0169
 3295W        W18764   1.311  14.757   5.725 -0.0128 -0.0977 -0.0834
 3296W        W18765  10.983  17.533  11.948  0.1011  0.6285  0.0293
 3297W        W18766   7.754  14.756  13.060  0.1267 -0.2759 -0.0777
 3298W        W18767   4.321   0.138   4.620  0.0279  0.1632  0.0462
 3299W        W18768   2.232  14.350  14.890 -0.0544 -0.2654  0.1289
 3300W        W18769  14.002  17.446   1.892  0.0925  0.0126  0.0387
 3301W        W18770  17.059   4.002   1.810  0.0930  0.1484  0.2810
 3302W        W18771   0.739  12.477  11.678 -0.3443 -0.0274 -0.0616
 3303W        W18772  16.811   0.806   3.255  0.1839  0.5579  0.3155
 3304W        W18773   2.906  10.912  11.402  0.0445  0.0451  0.3849
 3305W        W18774   9.690   7.926  14.379 -0.1815  0.1731  0.2035
 3306W        W18775   7.420  11.831  14.854 -0.1968 -0.3463  0.1714
 3307W        W18776   2.840   2.706   5.328  0.0739 -0.0456  0.0236
 3308W        W18777  10.761  10.181  13.749 -0.3970  0.1451 -0.0803
 3309W        W18778   2.570  10.714   4.794 -0.3830  0.0366 -0.0213
 3310W        W18779   8.140   1.532   2.079  0.4853 -0.0723  0.1772
 3311W        W18780   4.103  13.996  13.679  0.2309  0.1688  0.1779
 3312W        W18781   2.700   6.139   4.638  0.0652  0.0063  0.0940
 3313W        W18782   3.733   0.532  11.779  0.0969 -0.0389 -0.0338
 3314W        W18783   5.791  10.092   0.083 -0.0742 -0.1667 -0.2877
 3315W        W18784   0.072  15.394   3.253  0.0676  0.0708 -0.0765
 3316W        W18785   4.621  12.341  10.920  0.2989 -0.2423  0.1444
 3317W        W18786  10.226  13.155  13.901  0.5491 -0.0309  0.3078
 3318W        W18787  15.738   7.349  14.914  0.0442 -0.2287 -0.0422
 3319W        W18788  10.881   9.283  13.079  0.2946  0.1822 -0.2632
 3320W        W18789   5.525   6.104   2.297  0.0719  0.0485 -0.0394
 3321W        W18790   9.224  13.440  12.579  0.0170  0.0834 -0.0237
 3322W        W18791  10.204   7.539  15.589  0.0402 -0.0879  0.1903
 3323W        W18792   5.659   7.521   1.349 -0.1400  0.1458 -0.1217
 3324W        W18793   9.688   3.621   0.615 -0.2040  0.2122 -0.0711
 3325W        W18794  13.993  12.518  11.933  0.1011 -0.1553  0.0085
 3326W        W18795  17.210   9.539   0.722  0.1161 -0.0369  0.1446
 3327W        W18796   8.048  12.643   5.343 -0.2573 -0.1930  0.3120
 3328W        W18797  16.437   1.979  12.466  0.0063 -0.0036  0.2489
 3329W        W18798   3.632   0.461   3.831  0.0250 -0.1226 -0.2177
 3330W        W18799   1.054   7.278  12.025  0.0505  0.0497 -0.3402
 3331W        W18800  11.998  15.072  10.999  0.0635  0.3360 -0.2060
 3332W        W18801  10.155  10.657  14.131 -0.1735 -0.2430  0.1432
 3333W        W18802   7.872  17.496   1.115  0.1365 -0.0402 -0.6058
 3334W        W18803  10.563  12.989  13.438  0.1956 -0.2104 -0.0145
 3335W        W18804  14.631   3.619  13.411 -0.1942  0.3657  0.1211
 3336W        W18805  14.960   1.080   2.327  0.1207 -0.0568  0.0501
 3337W        W18806   6.504  13.268  13.620  0.2172  0.3814 -0.0295
 3338W        W18807   3.261   0.637  11.955 -0.0579 -0.0132 -0.0097
 3339W        W18808   5.595  15.266   2.873  0.1075 -0.0862  0.0081
 3340W        W18809   5.041   6.029  10.673 -0.3740 -0.1715 -0.0489
 3341W        W18810   4.701   3.729   3.795 -0.1171  0.1292 -0.0791
 3342W        W18811   6.889  10.811   3.070 -0.2079  0.0994  0.3366
 3343W        W18812   9.711  15.788   4.685 -0.0607 -0.0646  0.0882
 3344W        W18813   0.995  11.370   0.194 -0.0760 -0.3053  0.3761
 3345W        W18814  13.197  11.158  14.776  0.0049  0.0638 -0.0401
 3346W        W18815   1.512   7.611  13.789 -0.0338  0.0981 -0.2248
 3347W        W18816   8.116   7.892   3.862 -0.0976  0.2907  0.2765
 3348W        W18817  12.646   5.307  10.546 -0.2490  0.1137 -0.1098
 3349W        W18818  14.765   6.816  13.068  0.1744 -0.0272  0.2330
 3350W        W18819  10.205  15.578   3.992  0.0189  0.1361  0.0124
 3351W        W18820  10.594   9.705  15.319 -0.0543 -0.3683  0.0193
 3352W        W18821   9.123   3.337  10.743 -0.1913  0.0892 -0.1807
 3353W        W18822  16.739  17.550   1.861 -0.2198 -0.2511 -0.1564
 3354W        W18823   2.511   8.607   1.511  0.1058 -0.2389  0.1409
 3355W        W18824   3.077  10.015  13.800  0.0018 -0.1007 -0.4451
 3356W        W18825  10.325   0.830   2.933 -0.1324  0.0703 -0.2504
 3357W        W18826  12.191  10.475  13.412  0.1956  0.0950  0.1800
 3358W        W18827  13.903   3.328   5.003 -0.0240  0.1697 -0.2345
 3359W        W18828  10.855  10.500   4.429 -0.0372 -0.4207 -0.1829
 3360W        W18829  18.166   7.888  14.788 -0.2750 -0.5071  0.2376
 3361W        W18830  11.295  11.152   2.478 -0.0203  0.0791 -0.1960
 3362W        W18831  10.577  15.619   4.401  0.2096  0.1450 -0.1915
 3363W        W18832   2.459  12.019   4.650 -0.0461  0.2079 -0.2116
 3364W        W18833   2.162   0.993   5.735  0.0589  0.0998 -0.0398
 3365W        W18834   0.746   7.390  15.380 -0.3133 -0.2840  0.0905
 3366W        W18835  13.366  15.384   5.957  0.4691  0.1263 -0.1870
 3367W        W18836   9.903   5.241  13.345  0.0910  0.0537 -0.2955
 3368W        W18837   0.550  11.648  15.400  0.0701 -0.0936  0.1012
 3369W        W18838   8.020   0.046   3.678  0.1596 -0.0110  0.0600
 3370W        W18839  15.823   0.057  12.368 -0.3464 -0.3509  0.2670
 3371W        W18840  12.840  10.060  15.013 -0.0602 -0.0803  0.1019
 3372W        W18841  16.273  14.771  13.031 -0.1089  0.2315  0.2433
 3373W        W18842   4.084  18.022   0.750 -0.2814 -0.2286 -0.0818
 3374W        W18843  17.465   0.514   2.889 -0.6356  0.0186  0.0494
 3375W        W18844  15.690   9.412   1.031 -0.0504  0.2226  0.2249
 3376W        W18845  11.671   0.238  12.710 -0.1914  0.3115  0.2246
 3377W        W18846   9.699  11.192   5.094  0.1665 -0.0503  0.1820
 3378W        W18847   1.998  14.440   2.306  0.1954 -0.0720 -0.2436
 3379W        W18848  12.949  18.167  12.540 -0.0960  0.1199  0.1232
 3380W        W18849   8.177   3.330   3.512 -0.0051  0.1393  0.2318
 3381W        W18850   0.727  15.401  12.629  0.0666 -0.0394 -0.1213
 3382W        W18851  11.119  10.301  14.197  0.0591  0.2401 -0.1231
 3383W        W18852   6.208   6.947  14.488  0.3029 -0.1362  0.2209
 3384W        W18853   5.283  14.170  12.044 -0.2261  0.0860  0.0840
 3385W        W18854   5.420  13.098  12.749  0.2243  0.0376  0.1533
 3386W        W18855  16.076  17.010   2.343 -0.1682 -0.0004 -0.0077
 3387W        W18856   7.839  12.080  11.145 -0.1943  0.0709  0.1033
 3388W        W18857   6.531  14.241  12.226  0.2572 -0.1606  0.1753
 3389W        W18858   4.529   9.117   1.491  0.0174  0.0737  0.0768
 3390W        W18859  18.068   0.769  10.838 -0.0082  0.3693 -0.0114
 3391W        W18860   5.401  16.542   5.212  0.3323  0.0562  0.2404
 3392W        W18861   9.090   9.468   2.790  0.0919 -0.0659  0.1471
 3393W        W18862  13.897  16.610  11.221  0.2595  0.1292 -0.0596
 3394W        W18863  13.115  15.107   2.093  0.2469 -0.2875  0.0652
 3395W        W18864   1.835   9.595   5.760 -0.1511 -0.0889 -0.2567
 3396W        W18865  10.296  14.508   4.819  0.0271  0.0202 -0.1901
 3397W        W18866  13.370   9.149  13.751 -0.0733 -0.1359 -0.1548
 3398W        W18867  10.173  10.925  11.480 -0.2929  0.0808  0.4097
 3399W        W18868   6.617  15.861   0.805  0.1163  0.0023  0.0925
 3400W        W18869   5.250  15.413   1.193  0.1084  0.0529 -0.0348
 3401W        W18870   6.910   5.603  11.286 -0.1006  0.1529 -0.2271
 3402W        W18871  17.782   1.860   5.114 -0.1874 -0.1745 -0.2010
 3403W        W18872   1.686  10.931   4.325 -0.0898  0.1651  0.1893
 3404W        W18873  12.453   3.425   2.304  0.2415 -0.2213  0.4666
 3405W        W18874   7.792   0.187  11.182 -0.1082  0.0853 -0.1521
 3406W        W18875  16.618  12.897   4.112  0.1122 -0.1057  0.0922
 3407W        W18876   4.807   0.944   2.508 -0.4796  0.0941 -0.2127
 3408W        W18877   5.638   1.212  11.521 -0.3753 -0.3656  0.1442
 3409W        W18878   1.803   6.187   1.790 -0.1066  0.0159  0.4257
 3410W        W18879  13.783  12.655  11.435  0.2982 -0.1925  0.2622
 3411W        W18880   7.701   0.864   3.408 -0.1978 -0.0153 -0.2383
 3412W        W18881   1.020   9.494  12.739 -0.2737  0.2061 -0.0090
 3413W        W18882   6.254   1.909   2.108 -0.0372 -0.0966 -0.0251
 3414W        W18883   9.257   3.508   3.839  0.1720 -0.1108 -0.0860
 3415W        W18884   2.107   7.661  14.763  0.0592  0.4294  0.0607
 3416W        W18885  15.296  13.515   5.948  0.2256 -0.1060 -0.0812
 3417W        W18886  10.667   6.970   2.980 -0.4012  0.0034  0.0393
 3418W        W18887   9.343   8.905   2.298 -0.0438  0.0600 -0.0336
 3419W        W18888   4.942  18.463  14.838  0.0875  0.0234  0.2426
 3420W        W18889  17.201  11.858  11.793 -0.4841 -0.0803 -0.0776
 3421W        W18890   3.299  13.017  10.695 -0.1002 -0.0143  0.3160
 3422W        W18891   5.236  12.840  14.315 -0.1590  0.0103  0.1127
 3423W        W18892   1.812   7.766   1.536  0.0458  0.1807 -0.0594
 3424W        W18893  12.934   1.071  15.406 -0.0786 -0.0071  0.0038
 3425W        W18894   8.947   7.413   0.013 -0.0021 -0.1256 -0.0507
 3426W        W18895  14.683   4.963   2.044 -0.1034  0.0737 -0.0462
 3427W        W18896   0.605  17.930   1.795 -0.0041  0.2016 -0.0533
 3428W        W18897  12.766   3.121  14.540 -0.1118  0.2947 -0.1606
 3429W        W18898  14.769  14.850   4.022  0.0255  0.4219 -0.1525
 3430W        W18899  14.092   5.089   2.852  0.0050 -0.1670 -0.1047
 3431W        W18900  13.771   5.601  14.297 -0.1559 -0.1426  0.0260
 3432W        W18901  13.926  17.562  14.785 -0.0416  0.0288  0.0740
 3433W        W18902  11.023   0.306  12.836 -0.0249 -0.3639  0.1298
 3434W        W18903  18.211  10.374   3.485  0.0415  0.0452 -0.3443
 3435W        W18904  13.953  13.866   1.683 -0.0872  0.1426 -0.1306
 3436W        W18905  14.829   6.315   5.277 -0.1995  0.1290  0.1138
 3437W        W18906   0.158  14.811  12.879 -0.4012 -0.1169  0.2991
 3438W        W18907  11.509   3.895   0.117  0.2837  0.3461  0.0283
 3439W        W18908   2.233   4.041  14.343 -0.3567  0.0527  0.1073
 3440W        W18909   2.093   5.239   4.719  0.0824  0.1924 -0.0363
 3441W        W18910  15.317   9.096   1.233  0.1677  0.0665  0.1533
 3442W        W18911  16.870  11.161  14.685 -0.3022 -0.1095  0.0740
 3443W        W18912   1.702   8.356  12.960 -0.1416 -0.2104  0.1020
 3444W        W18913   4.146   6.864  10.840 -0.0135 -0.0403 -0.1041
 3445W        W18914  10.306   6.506  14.657 -0.0279 -0.2775  0.1033
 3446W        W18915  11.974   5.257  12.958 -0.1178  0.0932  0.0441
 3447W        W18916  14.448  11.165   0.494  0.0813 -0.2339  0.0552
 3448W        W18917  14.335  11.011   5.628 -0.2145  0.0459  0.0506
 3449W        W18918  10.751   4.069  11.791 -0.0434 -0.1656 -0.0427
 3450W        W18919  18.076  17.753   4.353  0.2093 -0.0771 -0.2138
 3451W        W18920  15.180   2.863  14.511  0.3006 -0.1179 -0.0262
 3452W        W18921   6.135   7.191  14.964  0.2246 -0.0124 -0.0669
 3453W        W18922  11.469   0.697   2.386  0.0253  0.1516 -0.0014
 3454W        W18923  14.578  13.608   1.804  0.1089  0.2431 -0.1688
 3455W        W18924  18.230   2.693   4.715 -0.1281 -0.5642 -0.0592
 3456W        W18925  10.477  15.378  14.453  0.0196 -0.1457 -0.0871
 3457W        W18926  12.914   7.673   2.662  0.1993  0.2144  0.0696
 3458W        W18927   1.745   3.170   3.316 -0.4281 -0.2686  0.1365
 3459W        W18928   0.633   6.725   0.460  0.4679  0.0243  0.1674
 3460W        W18929   9.550   8.829   4.317 -0.2466 -0.1377 -0.1320
 3461W        W18930   9.305   0.802   4.987 -0.0796  0.1812  0.1498
 3462W        W18931  15.332  16.550  10.934  0.0376  0.1326  0.4761
 3463W        W18932   8.844  13.526   4.580 -0.3445  0.1225  0.1076
 3464W        W18933   8.585   5.392   4.327 -0.0546 -0.0359  0.0194
 3465W        W18934   9.047   7.328  13.896  0.0969  0.1047 -0.0659
 3466W        W18935  15.941   2.162   4.008 -0.2411  0.0041  0.2920
 3467W        W18936   1.214  15.532   2.610  0.2569 -0.0164 -0.0062
 3468W        W18937   3.805   8.262  13.382  0.0210 -0.0083  0.2862
 3469W        W18938   7.959   4.269  14.917 -0.2439 -0.1199 -0.0185
 3470W        W18939  16.083   6.940   5.167  0.2051  0.2763 -0.1502
 3471W        W18940  17.435   4.417   5.482 -0.0053  0.0212  0.2182
 3472W        W18941  13.791  18.103  13.341  0.3377  0.3421  0.1141
 3473W        W18942  11.181  13.483  14.637  0.0878  0.1318  0.0436
 3474W        W18943   1.824   5.257  14.140  0.2009 -0.0419  0.0051
 3475W        W18944  18.400   2.908  12.319 -0.0229  0.0061 -0.2082
 3476W        W18945  16.395  16.718  10.627  0.3103 -0.3829  0.1349
 3477W        W18946  12.648  13.792   4.829 -0.1251  0.0149 -0.0569
 3478W        W18947  14.529   5.715  15.332 -0.0001 -0.1261 -0.0795
 3479W        W18948  14.759   6.196   3.362 -0.3282  0.2834  0.0924
 3480W        W18949  13.696   3.515   3.874 -0.1056  0.0171 -0.0585
 3481W        W18950  10.796  13.588  11.217 -0.0329  0.2028 -0.0349
 3482W        W18951   9.284   0.054   3.006 -0.1412  0.0895  0.0275
 3483W        W18952   8.610   1.691   1.936 -0.0183 -0.2806 -0.0100
 3484W        W18953   0.172  15.277   4.809 -0.2086 -0.1945 -0.3448
 3485W        W18954  16.999   7.492   4.618 -0.0528  0.4439  0.1887
 3486W        W18955  16.568  13.761  12.764 -0.0636 -0.0090  0.3221
 3487W        W18956  15.661  13.566   1.667 -0.1132 -0.0598  0.1342
 3488W        W18957  16.246  14.979  14.790  0.1021 -0.0321 -0.0957
 3489W        W18958   7.666  14.405   2.897  0.1673  0.1698 -0.0644
 3490W        W18959  15.849   5.380  10.841  0.2885 -0.0906  0.0016
 3491W        W18960  18.482  12.707  14.410 -0.0705  0.1926  0.2442
 3492W        W18961  12.775  15.551   2.925 -0.0920 -0.1393 -0.1790
 3493W        W18962  12.110   0.103  13.667  0.1278  0.0110 -0.1375
 3494W        W18963   1.124   0.168  12.067  0.4338  0.1568  0.1452
 3495W        W18964   5.879  18.355  11.524  0.1084 -0.0983  0.1006
 3496W        W18965  13.029   8.192   2.684  0.0425  0.2910 -0.0420
 3497W        W18966  17.720  15.960  14.263 -0.0894  0.0682  0.2380
 3498W        W18967  11.560   2.651   2.371 -0.1539 -0.1119 -0.1058
 3499W        W18968  11.918  18.056  13.121 -0.2320  0.1170  0.1647
 3500W        W18969   3.567   6.945  13.335 -0.0776 -0.1184 -0.0193
 3501W        W18970  12.632  18.168   1.856  0.5517  0.0473  0.2790
 3502W        W18971   9.525   1.078  13.011 -0.0185  0.0516 -0.2020
 3503W        W18972   6.578   4.075   2.334 -0.2466  0.0415  0.0655
 3504W        W18973  10.824  18.268  12.005  0.0970  0.1597 -0.0743
 3505W        W18974  11.064  16.605   2.594  0.1552  0.0005  0.0848
 3506W        W18975   5.695   9.929   1.804  0.0844 -0.1711  0.0592
 3507W        W18976  10.335  16.996  11.743 -0.1732  0.0051  0.0900
 3508W        W18977  15.870   9.936  10.725 -0.2451  0.1459  0.2075
 3509W        W18978   5.919   1.618   2.870 -0.3224 -0.0228 -0.1264
 3510W        W18979   7.059  10.954  12.927 -0.3518  0.1396 -0.1456
 3511W        W18980  15.657  17.223  13.729  0.0840  0.0198 -0.0740
 3512W        W18981   7.760  10.711   1.961 -0.0258 -0.0291 -0.1768
 3513W        W18982  15.044   9.088   3.309  0.0201 -0.0429  0.0441
 3514W        W18983  15.548  13.836   3.607 -0.0023  0.1308 -0.2673
 3515W        W18984  14.843   4.295  14.008  0.1421 -0.1933  0.3470
 3516W        W18985  13.908   1.222  12.592  0.3063 -0.4007  0.2212
 3517W        W18986   8.300   2.805  10.870  0.1862 -0.2283  0.2602
 3518W        W18987  13.625   7.952   4.135  0.2174 -0.3030 -0.0337
 3519W        W18988  15.903   6.826  15.075  0.1984  0.2653  0.0229
 3520W        W18989  11.305   3.351   5.426  0.0081 -0.1600 -0.2737
 3521W        W18990  11.430   6.337   3.203  0.3101 -0.0131  0.1965
 3522W        W18991  10.550  10.231   2.157  0.1458  0.1233 -0.0063
 3523W        W18992  16.685   4.350  14.389  0.0041  0.4551 -0.1156
 3524W        W18993  11.805  10.041   2.613 -0.1554 -0.0106 -0.0040
 3525W        W18994  14.869   6.150  13.681 -0.0453 -0.2030  0.0728
 3526W        W18995  17.501  17.096   1.574 -0.2714 -0.2913 -0.0373
 3527W        W18996   8.385   7.474   1.530 -0.0513  0.0705  0.2019
 3528W        W18997  10.360  16.808  12.195 -0.2181  0.0131  0.0512
 3529W        W18998   8.464  16.472  15.734 -0.0709  0.1732  0.0902
 3530W        W18999  18.007   9.288  10.578 -0.4683  0.0347 -0.0045
 3531W        W19000  13.740   8.922   1.534  0.0139  0.1455 -0.2989
 3532W        W19001   2.373   1.986  13.038  0.1329  0.0699  0.1063
 3533W        W19002   8.647   8.676  13.251 -0.0127 -0.0559  0.2049
 3534W        W19003   2.931  16.115  11.228  0.1267  0.1268  0.0016
 3535W        W19004  15.241   9.532   3.745  0.0008 -0.2704 -0.0513
 3536W        W19005   8.044  17.870  13.387  0.1338  0.3751 -0.0202
 3537W        W19006  10.745  12.002  10.601 -0.0679 -0.0977 -0.1124
 3538W        W19007   4.420  18.099  13.740  0.0580  0.0842  0.2269
 3539W        W19008   6.863   5.711  15.661 -0.0864 -0.0332 -0.0645
 3540W        W19009   8.552   9.063   2.509 -0.1797  0.0519 -0.1033
 3541W        W19010   2.521  12.140  12.068  0.1134  0.2575  0.0254
 3542W        W19011   8.806   1.318   2.258 -0.3960  0.0747 -0.1055
 3543W        W19012   0.333  17.781   5.778 -0.0165 -0.1301 -0.0473
 3544W        W19013  12.945   5.302  15.215  0.2486 -0.0302 -0.1946
 3545W        W19014  10.893   7.628   4.587 -0.1501 -0.2895  0.0729
 3546W        W19015   9.133   6.073  12.434 -0.0471  0.2508  0.1558
 3547W        W19016   8.504   0.321   6.293 -0.1021  0.0498  0.0504
 3548W        W19017   0.791  11.749   2.041  0.4716  0.1859  0.1403
 3549W        W19018   2.960  17.128  14.926 -0.0744 -0.3406 -0.2497
 3550W        W19019  17.802   4.780  13.366 -0.0227 -0.1435  0.1711
 3551W        W19020   5.958  13.044   5.034  0.2270 -0.0856 -0.3162
 3552W        W19021  18.448  17.988  12.657 -0.0374 -0.4988 -0.0936
 3553W        W19022   1.561   0.037  15.204 -0.1054  0.0714 -0.1662
 3554W        W19023  15.067   8.800  12.628  0.0189 -0.1845  0.1227
 3555W        W19024   4.165   7.842  15.030 -0.0644  0.3035  0.2340
 3556W        W19025  10.355   4.187   1.996 -0.0404 -0.2265 -0.2831
 3557W        W19026   1.003   5.710  13.289  0.0527 -0.1732 -0.1470
 3558W        W19027   2.135  14.242   3.976  0.1004 -0.1082  0.3799
 3559W        W19028   9.782   1.551  12.868 -0.1362  0.0394  0.0956
 3560W        W19029   7.776   8.582   0.884 -0.0983 -0.1517  0.1034
 3561W        W19030   1.691  13.963   2.340  0.0022  0.0355 -0.2244
 3562W        W19031   3.849   2.039  14.252  0.1661 -0.0530 -0.0701
 3563W        W19032  18.389   5.032  11.859 -0.2654  0.0802 -0.0614
 3564W        W19033   1.791  10.052   3.294 -0.1246 -0.0179  0.1045
 3565W        W19034  15.625   0.335   4.285 -0.1698  0.0033  0.1950
 3566W        W19035  16.666   6.424  11.908 -0.1604  0.1899 -0.0467
 3567W        W19036  12.171   6.303   0.371 -0.1041  0.1170 -0.1508
 3568W        W19037   5.877  11.882   3.171  0.1211 -0.1224  0.0941
 3569W        W19038  13.984   2.100   2.325  0.0182  0.1155  0.1103
 3570W        W19039   5.900   4.256  13.914  0.0188  0.0997  0.2765
 3571W        W19040  10.457   7.562  11.330  0.2392  0.3150  0.2200
 3572W        W19041  17.794   5.271  13.691 -0.1001 -0.2685  0.2656
 3573W        W19042   6.132  14.662  15.897 -0.0497  0.0531 -0.0603
 3574W        W19043   1.897  17.967   4.573 -0.0107  0.3044  0.0954
 3575W        W19044  14.901  16.012   3.937 -0.1388  0.1257  0.0715
 3576W        W19045   6.604  15.828   3.026 -0.1609  0.1379  0.1153
 3577W        W19046   9.609   3.524   3.421  0.2571 -0.2523 -0.2512
 3578W        W19047  14.688  14.105  10.241  0.0047  0.0111 -0.0750
 3579W        W19048   6.002   9.550   4.815  0.1969  0.0039 -0.0585
 3580W        W19049   1.834  12.577   9.842  0.0883 -0.1578 -0.2847
 3581W        W19050   4.256  11.725   4.028 -0.4217  0.0291 -0.0430
 3582W        W19051  16.139   3.144  15.880 -0.1821  0.5083  0.0769
 3583W        W19052  10.652  14.807   4.493 -0.2805  0.3902  0.0252
 3584W        W19053   8.457  16.230   0.291  0.3957 -0.1608  0.1457
 3585W        W19054  16.799   0.382  11.308  0.0738  0.2811  0.1011
 3586W        W19055  15.644  13.949   4.597  0.2614 -0.0393 -0.1714
 3587W        W19056   6.498  17.121   4.785  0.2134 -0.0723 -0.0732
 3588W        W19057  16.276   0.677  14.232 -0.1620  0.0512  0.2816
 3589W        W19058   3.371   3.902  13.744 -0.1550 -0.1377 -0.1509
 3590W        W19059   1.736   4.985   1.093  0.0120  0.3581  0.2214
 3591W        W19060  13.902  14.153   1.130 -0.1837 -0.0505 -0.0641
 3592W        W19061   9.892  15.290  15.186  0.0408  0.1512  0.2411
 3593W        W19062  15.943   8.556   3.735 -0.1320  0.0787  0.0569
 3594W        W19063  13.076  15.594  11.735  0.2082 -0.1064 -0.3406
 3595W        W19064  12.146   6.385   2.468  0.3000 -0.2522 -0.0783
 3596W        W19065   2.172   6.197   4.724 -0.0602  0.0331  0.5861
 3597W        W19066   5.172  13.163   0.665  0.1576  0.0216 -0.5473
 3598W        W19067  10.455  10.766   1.279 -0.0862  0.3320 -0.2595
 3599W        W19068  14.552   1.805  14.841 -0.2897 -0.1475 -0.0216
 3600W        W19069   1.869   8.573   5.383  0.2549 -0.0855  0.2445
 3601W        W19070   4.663   2.754  10.297 -0.2371  0.0858 -0.0211
 3602W        W19071   2.447   7.470  14.183 -0.2449  0.0653 -0.2922
 3603W        W19072   0.032  11.707  15.432 -0.2945  0.0164  0.1899
 3604W        W19073  11.118  10.935  12.938  0.0458  0.0653 -0.1378
 3605W        W19074  16.253  13.752  15.419  0.0550 -0.0729 -0.5930
 3606W        W19075  17.499   1.786   0.619  0.2631  0.1195  0.3633
 3607W        W19076   5.883   9.340  10.918  0.0759 -0.2066 -0.0924
 3608W        W19077   3.261  18.061   0.260 -0.1171 -0.0982  0.2069
 3609W        W19078  18.331   8.505  12.958 -0.0503  0.1961  0.2678
 3610W        W19079  17.043   5.024   6.001 -0.0321  0.0743  0.1721
 3611W        W19080   2.491   5.323   4.404 -0.0194 -0.0191 -0.0197
 3612W        W19081   3.693   3.181  10.094  0.1019  0.0973  0.2118
 3613W        W19082   5.258  17.207   3.224 -0.1410 -0.1411 -0.0187
 3614W        W19083   2.524   5.601  15.728  0.1391 -0.1233  0.3224
 3615W        W19084  10.652  15.731   6.145  0.6121  0.2328  0.0434
 3616W        W19085  14.724  18.112  13.238  0.1848  0.0238 -0.1125
 3617W        W19086   5.003   0.690   4.786 -0.1665 -0.0028 -0.0951
 3618W        W19087   9.393   2.919  10.718  0.0571  0.0970  0.0458
 3619W        W19088  15.846  13.721  15.803  0.0519  0.0072  0.2188
 3620W        W19089   2.033  12.471  13.154 -0.2013  0.3751 -0.1593
 3621W        W19090   5.438   0.420   1.467 -0.2138 -0.3292 -0.0696
 3622W        W19091  18.162   2.399   1.620  0.3028  0.0710  0.0091
 3623W        W19092  14.825   2.852   5.167 -0.0319  0.0157  0.1246
 3624W        W19093  11.726   6.656   2.355  0.2930 -0.1975 -0.0220
 3625W        W19094   1.743  13.924   4.628 -0.1261  0.0873  0.0271
 3626W        W19095   1.354   6.655   4.943 -0.1781 -0.1578  0.4832
 3627W        W19096   6.272  14.685  15.404  0.0131 -0.0982 -0.2063
 3628W        W19097  12.747  17.838  13.248 -0.2975  0.0160  0.1247
 3629W        W19098   3.300  13.411  11.033  0.1041  0.4240  0.2058
 3630W        W19099   6.386   7.353  13.984  0.0036  0.1868  0.1629
 3631W        W19100  10.736  11.181   2.356 -0.1591 -0.3065  0.0691
 3632W        W19101  13.564  12.361  14.024 -0.0601 -0.1264  0.1957
 3633W        W19102  16.962   6.097  11.502 -0.0530  0.3374 -0.1990
 3634W        W19103   5.586  12.841  14.694  0.3659  0.2984 -0.2511
 3635W        W19104   8.875   0.718   4.081  0.2705  0.0290  0.4896
 3636W        W19105  15.304  16.090  14.554  0.2154 -0.0650 -0.2028
 3637W        W19106   8.423   5.463  11.293  0.0671  0.5029  0.3061
 3638W        W19107  13.535   7.201  15.351 -0.2005  0.0613 -0.0080
 3639W        W19108   7.806  15.934   1.551 -0.2938  0.0880 -0.1231
 3640W        W19109   5.329   5.042  11.187  0.1870 -0.1473 -0.0161
 3641W        W19110  15.640  14.065  11.415  0.0526 -0.1717  0.0005
 3642W        W19111   2.735  18.460   2.495 -0.1776 -0.1882  0.1355
 3643W        W19112  16.266   4.133   3.310 -0.1289 -0.0009 -0.0299
 3644W        W19113  12.554   0.843   0.611 -0.1308  0.2686  0.0420
 3645W        W19114  16.657   2.387   5.413  0.4831 -0.0271  0.1120
 3646W        W19115   4.512   9.765  12.761  0.0145 -0.2322 -0.1097
 3647W        W19116  10.050  17.284  12.853  0.1318 -0.0314  0.0300
 3648W        W19117   6.902   9.198  15.536  0.1557  0.0539 -0.2855
 3649W        W19118   6.325  11.205  15.451 -0.1432 -0.0850 -0.1115
 3650W        W19119  17.103   2.690  15.814  0.0086 -0.1184  0.0755
 3651W        W19120  12.725  13.691  12.582  0.1586 -0.0756  0.0253
 3652W        W19121  17.369   5.139   3.556 -0.2704 -0.0878  0.3565
 3653W        W19122   8.972   8.556  12.608  0.1297  0.1717 -0.0452
 3654W        W19123   8.012   4.667   2.015  0.0161  0.1781 -0.0730
 3655W        W19124  14.715   8.451  15.661  0.4060  0.2664 -0.0250
 3656W        W19125   2.356  13.534  14.159 -0.0460  0.1596 -0.2333
 3657W        W19126   1.708   6.014  13.615 -0.2890 -0.2809 -0.1530
 3658W        W19127  12.194   8.998  11.758  0.4231  0.2544  0.0710
 3659W        W19128   6.441  11.405  14.305 -0.3293 -0.0279  0.0184
 3660W        W19129  11.903   9.344  12.822  0.2905 -0.0818  0.1959
 3661W        W19130   1.482  14.186   3.112 -0.1010  0.1635 -0.0569
 3662W        W19131  16.819   5.267  14.097  0.3167 -0.2108 -0.2059
 3663W        W19132  17.671  14.958  14.378 -0.0899  0.0580 -0.0533
 3664W        W19133  16.763  18.220  10.089  0.1196 -0.2024 -0.0985
 3665W        W19134   5.854   1.306   4.610  0.0963  0.1762 -0.0866
 3666W        W19135   4.053  15.105  12.841  0.2640 -0.1301 -0.0668
 3667W        W19136   9.990   1.441  10.882 -0.2757 -0.0546  0.1877
 3668W        W19137  17.689   1.167   2.724 -0.0249  0.0872  0.0797
 3669W        W19138  12.167  13.591   0.725  0.2042  0.1248  0.3173
 3670W        W19139   1.476   8.640   1.605 -0.0405  0.0694 -0.0959
 3671W        W19140   0.504   6.666  13.126  0.0369 -0.0673  0.2620
 3672W        W19141   0.042   0.950  11.929  0.3537  0.2606 -0.3109
 3673W        W19142  12.396   0.031   4.372 -0.1025 -0.0602  0.0004
 3674W        W19143   5.534   5.968   4.592  0.2320 -0.0013 -0.0032
 3675W        W19144   1.027  11.613   0.714 -0.1717  0.1242  0.0373
 3676W        W19145  13.137   8.621  15.271 -0.0566 -0.0825  0.1254
 3677W        W19146  15.470   5.956   2.299  0.1157  0.4197  0.1531
 3678W        W19147   1.746  16.573   3.004  0.0371 -0.0666 -0.2351
 3679W        W19148  11.348  15.988  10.375 -0.3514  0.2363  0.0936
 3680W        W19149   1.230  15.276   1.765 -0.1174  0.0706 -0.1736
 3681W        W19150   4.112   7.274   4.908  0.0808  0.1613  0.2616
 3682W        W19151  11.921   0.799  11.424  0.0582 -0.3132  0.1438
 3683W        W19152  16.136   8.725  14.590 -0.0985 -0.0770 -0.2829
 3684W        W19153   1.485  11.837   0.933  0.0598 -0.0322  0.3721
 3685W        W19154   9.197  16.983  11.454  0.0535  0.1022 -0.0729
 3686W        W19155  17.942   8.552  14.064  0.0860 -0.0794 -0.0065
 3687W        W19156  13.234  10.325   4.440 -0.0507  0.0902  0.0166
 3688W        W19157  12.481  12.015  11.736 -0.3394 -0.0695  0.2776
 3689W        W19158  16.665  17.756  14.334  0.0689  0.6012  0.0605
 3690W        W19159   6.299   0.611  12.948 -0.0825  0.1981 -0.0256
 3691W        W19160  14.219   8.520   1.492 -0.0760  0.0186 -0.2139
 3692W        W19161  15.927   0.371  15.387 -0.2970  0.5247 -0.0316
 3693W        W19162   2.221   9.917  11.692  0.2215  0.0861  0.1411
 3694W        W19163   5.533   5.689  13.992  0.4159  0.5494  0.0346
 3695W        W19164   5.415  12.417   3.665  0.0975  0.3508  0.2168
 3696W        W19165   1.802   4.251   0.300  0.1646 -0.0740 -0.2456
 3697W        W19166   8.025  14.455  14.594 -0.4138 -0.1968  0.2385
 3698W        W19167  10.405   6.579  12.321  0.2408  0.0071 -0.1575
 3699W        W19168  10.830   4.419   2.002  0.1347 -0.1781  0.1060
 3700W        W19169  15.235   8.648   3.012  0.2600  0.0429 -0.3286
 3701W        W19170  17.280   1.897   3.165 -0.1454 -0.2310 -0.1883
 3702W        W19171   0.654  13.311   3.006  0.0506  0.1337 -0.0649
 3703W        W19172  14.445  18.060   1.115  0.0562  0.0270 -0.0800
 3704W        W19173  17.444   3.213  14.142  0.0467  0.0471  0.3618
 3705W        W19174   4.382   2.986   3.892  0.1055  0.2388 -0.0368
 3706W        W19175   7.721   5.213   2.039  0.1473  0.0120 -0.2386
 3707W        W19176  15.488   8.606   1.136  0.1001 -0.0397 -0.3235
 3708W        W19177  13.437  11.990  11.828  0.0842  0.2381 -0.0794
 3709W        W19178  17.374  14.210   4.082  0.2145  0.0703 -0.0543
 3710W        W19179  12.128   1.384  14.200 -0.0279 -0.1151  0.2505
 3711W        W19180   3.356  15.797  15.868 -0.2743 -0.3124  0.0084
 3712W        W19181  13.470  10.430  12.143  0.1763 -0.0759  0.3069
 3713W        W19182  11.545   9.411   3.917 -0.0862 -0.2857  0.0856
 3714W        W19183  18.198   1.128  14.535 -0.1717 -0.0979 -0.1959
 3715W        W19184   9.834   2.754  15.411 -0.1879 -0.0370  0.1159
 3716W        W19185   8.487  11.275   3.978  0.0260  0.0297 -0.3742
 3717W        W19186   2.841   6.737   0.459  0.0458  0.1964  0.0408
 3718W        W19187  12.491   6.208  10.639 -0.0296  0.0465 -0.1408
 3719W        W19188  17.634   3.881  11.061  0.0107  0.0930  0.3629
 3720W        W19189   9.187   0.830   5.668 -0.1743 -0.0655  0.3333
 3721W        W19190  10.320  14.470  11.350  0.0118  0.2573 -0.0486
 3722W        W19191  11.087  17.546  14.067  0.1411 -0.2799 -0.4009
 3723W        W19192  17.703   5.884   4.749 -0.2400 -0.0496  0.0382
 3724W        W19193   9.866  11.340   3.491 -0.0373 -0.3567 -0.1519
 3725W        W19194   6.338  18.217   3.161 -0.2988 -0.0180  0.2355
 3726W        W19195  13.422   6.279   2.362  0.1589  0.4151 -0.1903
 3727W        W19196   1.931  16.192   5.719 -0.0725 -0.0633 -0.1030
 3728W        W19197   7.613  11.572  12.286 -0.0944 -0.0053  0.0660
 3729W        W19198   1.173   9.387   9.688 -0.1516  0.0369  0.0847
 3730W        W19199   6.296   9.412   3.885 -0.0106  0.0719  0.3556
 3731W        W19200  16.888   8.475  15.127  0.0754  0.0604 -0.2527
 3732W        W19201   7.662  14.650   0.612  0.0536  0.2168 -0.0442
 3733W        W19202  14.039  16.408  13.537 -0.3273 -0.1231  0.3578
 3734W        W19203   8.363  17.092  12.950 -0.0950 -0.3371  0.1487
 3735W        W19204   3.894  17.269  12.969  0.2557 -0.0216  0.1236
 3736W        W19205   4.173   2.381  13.306 -0.1815  0.1193  0.4197
 3737W        W19206   1.616  13.387  11.911 -0.0617 -0.0949  0.1392
 3738W        W19207  10.793   4.932  13.834  0.0535 -0.2754 -0.0382
 3739W        W19208   1.862   9.288  15.670  0.3230  0.0140 -0.1275
 3740W        W19209   6.660   9.111  13.993 -0.0495 -0.2706 -0.2750
 3741W        W19210   0.975  10.084  11.002 -0.0183  0.0061  0.0581
 3742W        W19211   6.852  14.274   1.614  0.0528  0.2776  0.0549
 3743W        W19212   5.321  11.952  12.154 -0.4482 -0.1245  0.1415
 3744W        W19213   4.990   2.211  10.828  0.4020 -0.0339  0.3056
 3745W        W19214   6.038   2.397   0.562 -0.1310  0.4941 -0.2891
 3746W        W19215  15.769   2.684  11.125  0.0789 -0.0637  0.0059
 3747W        W19216   1.762  14.979   5.462  0.0024  0.0561 -0.0040
 3748W        W19217   4.588   4.020  12.439  0.1342 -0.2194  0.0684
 3749W        W19218   5.495  13.171  14.032  0.0727  0.0582  0.2473
 3750W        W19219  13.308   4.294  15.561 -0.4055  0.0353 -0.2246
 3751W        W19220   1.793  13.585   0.596  0.2344 -0.0314 -0.0507
 3752W        W19221  13.127   8.975  15.595  0.0882 -0.0386  0.0936
 3753W        W19222   8.734   6.102  14.150 -0.0747 -0.4180 -0.3088
 3754W        W19223  15.896   4.476  11.278 -0.0856 -0.2473  0.0986
 3755W        W19224   1.154   0.919  14.763 -0.1533  0.0745  0.0295
 3756W        W19225  13.256  12.054  15.864 -0.1255 -0.2547  0.0815
 3757W        W19226   1.375   1.378  13.053  0.1872 -0.1628  0.0002
 3758W        W19227  15.749  18.449  13.238 -0.3188 -0.0264 -0.3412
 3759W        W19228  14.815  10.852  11.554  0.0392  0.1607 -0.0942
 3760W        W19229   1.971   7.465  13.538  0.4457 -0.0031 -0.2671
 3761W        W19230   3.410   9.204  13.063 -0.2872  0.3005  0.2344
 3762W        W19231  12.691  14.156  15.548  0.1151 -0.0070 -0.0950
 3763W        W19232   8.111  16.192  12.640 -0.2125  0.0115 -0.1908
 3764W        W19233  13.588  17.320  12.812 -0.0267 -0.1558 -0.2331
 3765W        W19234  17.844   7.912   0.184 -0.1438  0.3998 -0.3216
 3766W        W19235  15.552   4.698   2.116 -0.0956  0.1199 -0.0078
 3767W        W19236  17.622  12.971  13.194 -0.0300 -0.1722 -0.2706
 3768W        W19237   6.688   3.291   0.634 -0.1749  0.2171 -0.1673
 3769W        W19238   1.338  15.145  12.326  0.2011  0.0053 -0.1414
 3770W        W19239  15.175   2.021   1.009 -0.0021 -0.2665 -0.1133
 3771W        W19240  18.301   2.131  14.334 -0.1413 -0.1443 -0.0544
 3772W        W19241   6.714  13.566   4.001 -0.0500  0.4221  0.2712
 3773W        W19242   6.771   6.602   4.077 -0.1747 -0.3333  0.1974
 3774W        W19243  16.431   1.449  15.058 -0.0468  0.0647  0.4190
 3775W        W19244   6.390   4.523  10.693 -0.0718  0.0166 -0.0586
 3776W        W19245  13.032   0.477  12.041 -0.2453 -0.1774  0.2859
 3777W        W19246   3.443  11.258  12.635  0.0021 -0.0232 -0.0575
 3778W        W19247   5.758   1.962   0.419 -0.2126 -0.4154 -0.1672
 3779W        W19248   6.831  17.214   4.403  0.0223  0.0604 -0.1647
 3780W        W19249   0.640   4.632  14.353  0.1717 -0.0432 -0.3243
 3781W        W19250  13.730   2.456  14.659  0.0157 -0.1068 -0.1319
 3782W        W19251   6.775   1.990   1.676 -0.1330  0.0821  0.0387
 3783W        W19252  17.481   7.593   4.708 -0.1994  0.1887 -0.0226
 3784W        W19253  17.227  14.990  10.699  0.2197 -0.0338  0.0681
 3785W        W19254   5.910   6.350  14.590  0.6032 -0.1780 -0.0548
 3786W        W19255  10.616   3.833  12.265  0.2828  0.0841  0.0831
 3787W        W19256  11.830   9.287  15.454  0.1742  0.0362 -0.0058
 3788W        W19257   8.607  18.369   3.319 -0.0498 -0.2680 -0.2359
 3789W        W19258  15.166   2.596  12.729 -0.0772 -0.1337  0.2615
 3790W        W19259   8.166  16.268   4.242  0.0129  0.1183  0.1108
 3791W        W19260  18.265   0.483   2.656  0.3665  0.0314  0.1296
 3792W        W19261   7.297  11.050   0.950 -0.3169 -0.0555  0.0628
 3793W        W19262   2.547  12.636  14.132 -0.1843  0.1457 -0.1755
 3794W        W19263   8.722   9.686  13.513 -0.2089  0.0111  0.1982
 3795W        W19264   3.435   8.612  12.919  0.0276  0.0018  0.0500
 3796W        W19265   7.619  18.271  11.436  0.2082  0.3295  0.2541
 3797W        W19266  12.049  16.425   4.651 -0.0985  0.1037 -0.0032
 3798W        W19267  11.921  10.676  12.253  0.1094 -0.3011  0.0221
 3799W        W19268  13.225  18.193  15.677 -0.0230 -0.0235 -0.0260
 3800W        W19269   6.222   3.477  14.717  0.0493  0.0197 -0.0192
 3801W        W19270   6.731   6.993   0.911 -0.0941  0.2266  0.0074
 3802W        W19271  12.440  17.980   4.832  0.1018  0.4085  0.3638
 3803W        W19272   6.318   8.362   2.903 -0.2496 -0.0711  0.2434
 3804W        W19273  14.223  17.604   0.474  0.0394  0.1090  0.2282
 3805W        W19274   7.049  15.931  14.568 -0.0611  0.0010 -0.0847
 3806W        W19275   7.952  11.580  13.224  0.0510  0.0399 -0.2535
 3807W        W19276  13.901   0.110   5.044 -0.0497  0.0404 -0.0198
 3808W        W19277  10.011   8.285  13.055 -0.2491 -0.0934 -0.1644
 3809W        W19278  15.901   7.793   3.598 -0.1081  0.0279  0.0721
 3810W        W19279   6.440   6.608   0.591 -0.2019  0.0631  0.1307
 3811W        W19280   1.092   8.146  11.702 -0.0855  0.2981 -0.1753
 3812W        W19281   3.378   2.426   0.153  0.4033 -0.1529 -0.2593
 3813W        W19282  11.016   8.966  13.490 -0.1589 -0.0145 -0.1262
 3814W        W19283  13.209   6.252   3.836 -0.1144 -0.0772  0.1971
 3815W        W19284   1.189   8.757   0.300 -0.0566  0.0746  0.0338
 3816W        W19285  13.181   8.125   3.815  0.0582  0.1143 -0.1788
 3817W        W19286   1.089   5.013  15.277  0.1649 -0.2677  0.3111
 3818W        W19287  14.700   8.474   4.859 -0.0262  0.0745 -0.0743
 3819W        W19288   6.659  12.852  10.727 -0.3194 -0.0790 -0.1444
 3820W        W19289   3.482   6.100  11.918 -0.1891 -0.2486 -0.2155
 3821W        W19290  17.499  15.020   2.385  0.0782  0.0158  0.0737
 3822W        W19291   7.338  18.143   1.956 -0.3399  0.3102  0.0594
 3823W        W19292   3.918   2.794  13.291 -0.0003  0.0024  0.0416
 3824W        W19293   7.241   7.062   1.042  0.1038  0.0579 -0.1013
 3825W        W19294  17.255  10.051  15.229 -0.0433  0.0617  0.1610
 3826W        W19295  10.024  17.384   2.885 -0.0299 -0.1524 -0.1764
 3827W        W19296   0.597  17.502   3.131  0.3973  0.0975 -0.0422
 3828W        W19297   2.349   5.320   2.736  0.0966 -0.0474 -0.1156
 3829W        W19298  14.486  11.520  13.103  0.2816 -0.0166  0.0726
 3830W        W19299   8.205   1.082   3.968 -0.2957  0.0597  0.0931
 3831W        W19300   3.655   6.234   1.428  0.2946  0.1119 -0.0129
 3832W        W19301  14.851   6.709  13.891  0.4699  0.1363  0.5845
 3833W        W19302   2.522  14.758   4.798  0.2131 -0.0903  0.3475
 3834W        W19303   6.217  11.507  10.656  0.0060 -0.0815 -0.0188
 3835W        W19304   2.539   8.385  13.261  0.1569  0.2796 -0.3345
 3836W        W19305  11.817   0.562  13.930  0.0815 -0.0716  0.1016
 3837W        W19306   3.842   4.903  14.903 -0.2865  0.0361  0.1646
 3838W        W19307   9.804  12.782   4.472 -0.1507 -0.3255 -0.1628
 3839W        W19308   1.193   4.305  12.810  0.0729  0.0411 -0.1737
 3840W        W19309  13.500  16.274  11.994 -0.3897 -0.0509  0.3490
 3841W        W19310  10.053   9.058   4.392  0.2789  0.1258  0.1564
 3842W        W19311   1.308  18.395   3.557 -0.0835  0.0508  0.2136
 3843W        W19312   5.433  18.270   4.898  0.1853 -0.0332 -0.0992
 3844W        W19313   4.136   4.856   1.540 -0.1060  0.1102 -0.2651
 3845W        W19314   4.397   6.508  11.308 -0.2422  0.2634  0.2273
 3846W        W19315  12.157   3.878  12.454 -0.0412  0.1732  0.0376
 3847W        W19316  18.126   6.237  12.742 -0.1941 -0.2013  0.0844
 3848W        W19317  10.256  16.541   2.444 -0.1779  0.2770  0.1960
 3849W        W19318  10.218   7.851   4.495  0.1487  0.1495 -0.0406
 3850W        W19319   6.232   6.835   0.966  0.1208  0.0596 -0.4441
 3851W        W19320   7.916   7.539   4.388  0.2521  0.1377  0.0281
 3852W        W19321   4.659   6.916  10.991  0.1110 -0.1261 -0.1427
 3853W        W19322  11.669  16.127   2.018 -0.0924  0.4534 -0.0437
 3854W        W19323   7.147  18.167  13.605  0.0880 -0.0025  0.0070
 3855W        W19324   9.222   0.942   3.775 -0.2004  0.1936 -0.0542
 3856W        W19325  14.540  14.687  14.403  0.1671 -0.2684 -0.1195
 3857W        W19326   6.533  13.004   0.096 -0.2119  0.3670 -0.0138
 3858W        W19327  16.495  16.322  11.536 -0.2460 -0.2327  0.2477
 3859W        W19328  15.791  13.352   4.689 -0.0919  0.0594 -0.1585
 3860W        W19329   7.414  16.606   1.398  0.1378 -0.0990 -0.0516
 3861W        W19330   9.053  10.611  11.425  0.2345 -0.2737  0.0799
 3862W        W19331  17.448  11.013  10.508  0.0962 -0.1846  0.1885
 3863W        W19332   6.501  14.120   2.433  0.1486  0.0784  0.2847
 3864W        W19333  13.204   6.387  14.942  0.1029  0.1409  0.2978
 3865W        W19334   5.218   7.638  11.331  0.0695  0.1754 -0.2427
 3866W        W19335  13.760   6.910  10.426 -0.3683  0.2702 -0.1260
 3867W        W19336  13.032  12.320  13.981 -0.0682 -0.3417  0.1876
 3868W        W19337  15.931  14.941   0.841  0.0471  0.3718 -0.0963
 3869W        W19338   7.133  11.656  12.588  0.1469  0.1149 -0.0673
 3870W        W19339   4.371  17.994   0.198 -0.0780 -0.0896 -0.2018
 3871W        W19340   2.131  14.288  12.042 -0.1037 -0.0221  0.0358
 3872W        W19341   6.944  13.811   1.841  0.1498 -0.4391  0.1075
 3873W        W19342  14.665   8.728  13.960  0.1604  0.0000  0.0158
 3874W        W19343   6.585  13.803  13.559  0.1812  0.0276  0.0326
 3875W        W19344  15.354   3.695   0.417  0.0862  0.3009 -0.0781
 3876W        W19345  10.328  10.914  14.723 -0.1212 -0.1745 -0.1688
 3877W        W19346  14.827   3.646   3.178 -0.2405 -0.0901  0.2919
 3878W        W19347   2.780   0.724   4.994  0.1415 -0.0295  0.3596
 3879W        W19348   6.170   6.904  15.525 -0.1786  0.1270 -0.0633
 3880W        W19349  16.678  13.790  14.309  0.0581 -0.1189 -0.2323
 3881W        W19350  16.340   7.845  14.314 -0.0509 -0.6630 -0.2888
 3882W        W19351  10.464   1.098   4.713 -0.0415 -0.2491  0.4112
 3883W        W19352   4.288   0.089  15.088 -0.2701  0.1061  0.1792
 3884W        W19353  17.008   5.548  13.236  0.0404 -0.1119  0.1403
 3885W        W19354  11.020  17.193   1.702 -0.0439  0.2276  0.0421
 3886W        W19355  11.664  15.449  13.893 -0.2196  0.2992 -0.1681
 3887W        W19356   9.909   2.911  11.208 -0.0266 -0.1007 -0.2788
 3888W        W19357  16.511   0.009   2.254 -0.3226 -0.2260 -0.1303
 3889W        W19358  15.422  13.315  15.096  0.3240  0.0120 -0.0551
 3890W        W19359   2.702  15.033   2.408  0.0313  0.1899  0.0910
 3891W        W19360   2.010  16.313   4.380 -0.1313  0.0412 -0.1363
 3892W        W19361  10.910  15.590   2.252 -0.0924  0.2088 -0.2114
 3893W        W19362  15.115   7.221  12.288 -0.1458 -0.0342 -0.3143
 3894W        W19363   4.016   2.415  15.084  0.0247 -0.0926  0.0940
 3895W        W19364  17.087  14.638  15.366 -0.2395  0.1822  0.0460
 3896W        W19365   7.147   9.880  14.338 -0.1431  0.0861 -0.0688
 3897W        W19366  10.941  11.669  14.656  0.3988  0.0341 -0.1820
 3898W        W19367   0.024  17.321  15.214  0.1164 -0.1697 -0.3760
 3899W        W19368   8.939  13.633  13.418 -0.0637 -0.1711  0.3555
 3900W        W19369  10.692   2.306  12.736  0.1036 -0.1411 -0.1512
 3901W        W19370  16.343   1.738   0.603 -0.1931 -0.2566  0.0823
 3902W        W19371   7.289  14.948   3.263  0.3312 -0.1642  0.0970
 3903W        W19372   9.704  17.074   4.199  0.1099  0.0237  0.0032
 3904W        W19373  17.198   9.246  11.604 -0.0340 -0.2791 -0.1077
 3905W        W19374  15.765   4.133  14.894  0.0837  0.0687 -0.0525
 3906W        W19375   1.227   2.998   5.777 -0.1731  0.1256  0.1157
 3907W        W19376  15.705   7.863  14.710 -0.0655 -0.0273 -0.0026
 3908W        W19377   8.428   8.136  12.431  0.1190 -0.0116 -0.4181
 3909W        W19378   8.846  17.154   3.364  0.0133 -0.0197  0.0908
 3910W        W19379   2.007   9.665  13.528  0.4538 -0.0202  0.0044
 3911W        W19380   5.875  17.899   3.019  0.1681  0.0160  0.0987
 3912W        W19381   2.314  13.096  12.504  0.2236  0.0739 -0.0567
 3913W        W19382  16.968  13.212   1.976  0.0141 -0.0149  0.0494
 3914W        W19383   4.168  16.013   2.235 -0.0133 -0.1817  0.3617
 3915W        W19384   2.565   0.159  11.155 -0.2820 -0.1236 -0.1961
 3916W        W19385   5.480   8.019  15.506  0.1610  0.0481  0.2536
 3917W        W19386  15.399  17.712  14.719 -0.5451 -0.0962 -0.0897
 3918W        W19387  17.486   7.774  12.473  0.2937 -0.0491 -0.0186
 3919W        W19388  15.325  14.728  10.304  0.0804  0.2913 -0.0963
 3920W        W19389   6.651   0.562   2.284  0.0480 -0.5831 -0.2013
 3921W        W19390   9.958  15.720   1.999 -0.1205 -0.2114 -0.0454
 3922W        W19391   2.400   5.204   3.515  0.4443 -0.0272 -0.0354
 3923W        W19392   4.363   8.505  14.378  0.3055  0.0637  0.2272
 3924W        W19393   8.738   2.142   1.901  0.1334 -0.0903  0.2098
 3925W        W19394   9.258   8.006   1.075  0.3288 -0.1655  0.1196
 3926W        W19395   0.263  15.629  13.515  0.0958 -0.3541 -0.0892
 3927W        W19396  10.620  16.763   2.757  0.3772 -0.2134  0.1873
 3928W        W19397  18.311   0.416   4.560 -0.1454 -0.0436 -0.1374
 3929W        W19398   2.878   1.704   0.188  0.2555  0.1480  0.0185
 3930W        W19399   5.423  16.139   2.539 -0.0991 -0.0423 -0.3297
 3931W        W19400   7.938  14.541   3.354  0.1640 -0.0177 -0.1851
 3932W        W19401   6.140   2.688  14.695  0.0669 -0.1655 -0.1097
 3933W        W19402   9.922   5.592   4.275 -0.0123  0.1969  0.0623
 3934W        W19403  14.174   9.018  11.525 -0.1583  0.2120  0.1610
 3935W        W19404   6.225   4.689   0.752 -0.2452  0.0405 -0.1508
 3936W        W19405   6.019   1.424  14.597  0.1143 -0.1351 -0.0364
 3937W        W19406  16.143   2.363  13.575 -0.0657 -0.0401 -0.2679
 3938W        W19407   1.607  17.382  11.027  0.0790  0.3599 -0.0212
 3939W        W19408   7.452  10.111  12.738  0.0642 -0.1127 -0.0097
 3940W        W19409  16.427  15.860  10.348 -0.3573  0.1310  0.2615
 3941W        W19410  10.973   1.250  15.596  0.2887 -0.2830  0.1789
 3942W        W19411   2.749   9.492   0.694  0.0526  0.2348 -0.1645
 3943W        W19412   1.399  17.758   5.776  0.0036 -0.1420 -0.1264
 3944W        W19413  18.315   5.496   1.009 -0.0853  0.1841  0.4597
 3945W        W19414  14.164  12.542   5.188 -0.1882 -0.0663  0.1846
 3946W        W19415   4.373  14.757   5.192 -0.3427  0.0790 -0.2330
 3947W        W19416  16.011  13.702  11.496 -0.3739  0.6017  0.1436
 3948W        W19417   2.568   0.429   5.341  0.0272 -0.2476 -0.2091
 3949W        W19418   2.131   5.807  13.342  0.0197 -0.2220 -0.0508
 3950W        W19419  18.012  18.137   4.671  0.0156  0.1701 -0.2689
 3951W        W19420   7.832  17.541  11.394 -0.3726 -0.0034  0.0516
 3952W        W19421  16.544  17.044   3.877 -0.1948 -0.1284  0.3238
 3953W        W19422   9.395  12.353  13.753 -0.0409  0.1475 -0.1148
 3954W        W19423  18.466   9.102  14.962 -0.1502  0.0107  0.0167
 3955W        W19424   7.326   3.219   6.112 -0.1891  0.1879 -0.0808
 3956W        W19425   0.392   9.798  13.580  0.2217  0.3694 -0.0664
 3957W        W19426  14.065   4.162  14.563 -0.1714  0.4525 -0.0681
 3958W        W19427   9.878  14.402   3.131  0.0137  0.2068 -0.0775
 3959W        W19428  13.892  14.272  15.128 -0.1544 -0.2944  0.0738
 3960W        W19429  17.710   1.664  15.617 -0.0084  0.1216  0.1331
 3961W        W19430   4.265   4.334   2.973  0.0865 -0.0687 -0.0280
 3962W        W19431   5.082  14.724   5.096  0.2092  0.1241  0.0712
 3963W        W19432   1.342   1.081  11.384  0.0109  0.0152 -0.0399
 3964W        W19433  14.537  12.967  14.654  0.0962 -0.1807  0.5272
 3965W        W19434   6.545   4.668  11.198  0.3927 -0.2913  0.2335
 3966W        W19435   4.218   6.810   3.122  0.2105 -0.0835 -0.2465
 3967W        W19436  18.134   1.493  14.131 -0.0361  0.2118 -0.0582
 3968W        W19437  10.899   1.611   1.443  0.0856  0.2693  0.0094
 3969W        W19438  11.226   3.050  12.803 -0.1785 -0.0445  0.0092
 3970W        W19439  10.116  11.415   5.228  0.0279  0.0764 -0.4405
 3971W        W19440   5.620   6.988   1.195  0.0381 -0.0607  0.1935
 3972W        W19441   6.484   4.289  11.582  0.2377  0.2302  0.2499
 3973W        W19442  18.415   1.584   3.849 -0.2036  0.0581 -0.1685
 3974W        W19443   6.211   6.129   1.549  0.3097 -0.0895  0.0122
 3975W        W19444  16.898   3.598  11.504  0.0724  0.0622  0.1564
 3976W        W19445   0.399   3.739   4.587  0.0666 -0.0269 -0.0692
 3977W        W19446  13.021  11.823   6.204  0.2801  0.3051 -0.3215
 3978W        W19447   3.013  15.743  14.257  0.2320 -0.1292 -0.0490
 3979W        W19448  17.423   1.295  12.785 -0.1527  0.1805 -0.0064
 3980W        W19449  12.515   7.368   3.812 -0.0054  0.0213 -0.1458
 3981W        W19450   8.465  15.480  15.805  0.1730 -0.3775 -0.0613
 3982W        W19451   5.213  14.550  13.415  0.0131  0.2148 -0.2322
 3983W        W19452  14.053  16.330  14.921 -0.0919 -0.0304 -0.1740
 3984W        W19453   7.400   0.952   4.335  0.1034 -0.0574 -0.2132
 3985W        W19454   2.691   7.641  15.641  0.0286  0.0386 -0.1376
 3986W        W19455   5.820  15.855   1.481 -0.0348 -0.4536 -0.4308
 3987W        W19456  12.980  10.016   1.129 -0.1002  0.0346  0.0942
 3988W        W19457   0.659  17.578   5.365 -0.1244  0.1467 -0.0115
 3989W        W19458   3.344   9.710   3.816  0.1211  0.1534 -0.2985
 3990W        W19459  16.118   5.952   5.637 -0.0506 -0.1352 -0.0102
 3991W        W19460   8.314  16.727   1.612  0.2137  0.1751 -0.0665
 3992W        W19461  12.338   0.411   0.710  0.0467  0.0392 -0.2310
 3993W        W19462   1.174  16.982   3.609 -0.0332 -0.0466  0.0362
 3994W        W19463  12.614   4.289  11.421 -0.0998  0.0079 -0.0700
 3995W        W19464   0.147   8.395   3.274 -0.1463 -0.1127  0.3063
 3996W        W19465  17.947   1.761  12.201  0.0631  0.1246  0.0517
 3997W        W19466   7.938  16.420   1.607  0.4763  0.2475 -0.1451
 3998W        W19467   8.774  12.237   0.169  0.0396  0.0669 -0.0281
 3999W        W19468  14.488  10.212   4.717 -0.0267 -0.1303 -0.0203
 4000W        W19469  13.548  14.933   5.892  0.0350 -0.1736  0.0363
 4001W        W19470   3.963   5.876  11.874  0.2627  0.3103 -0.3446
 4002W        W19471  13.004   4.059   3.588  0.0052  0.0192 -0.0876
 4003W        W19472   0.363  11.147   3.114 -0.1515 -0.0919  0.1949
 4004W        W19473  10.012   5.206  11.175  0.3244  0.1114  0.0628
 4005W        W19474   7.470  17.558   3.581 -0.0193  0.1438 -0.2128
 4006W        W19475   2.912  14.229   2.860  0.3067 -0.0713  0.1606
 4007W        W19476   0.757   6.780   4.574 -0.0883  0.1818 -0.2497
 4008W        W19477   2.083  11.184  12.924 -0.1974  0.1374  0.0771
 4009W        W19478   5.798   9.691   3.150  0.5085  0.3795  0.2735
 4010W        W19479  17.682  14.378   0.789  0.0999 -0.3117 -0.3716
 4011W        W19480  18.373  17.422   5.737  0.1510 -0.1757  0.1159
 4012W        W19481   0.631   2.725   1.805 -0.2962  0.0261  0.1737
 4013W        W19482  14.963   4.248  14.690 -0.2426  0.0947 -0.1193
 4014W        W19483  16.095   8.987   9.923  0.0042 -0.2044  0.0077
 4015W        W19484   5.223   4.774  12.543 -0.1491 -0.4872 -0.3460
 4016W        W19485   3.190   0.571  15.153  0.5227  0.2972 -0.0612
 4017W        W19486   3.811   5.224   3.735 -0.1595  0.2093 -0.0635
 4018W        W19487   4.776  15.813  15.360 -0.4947  0.0497  0.1885
 4019W        W19488  12.616  10.555   0.079  0.1282  0.3056  0.1073
 4020W        W19489  10.400   1.476  13.008  0.3730 -0.4268 -0.1246
 4021W        W19490  16.322  15.460   0.187  0.1240 -0.0077  0.2635
 4022W        W19491  15.946   8.612  11.983 -0.0181 -0.0742  0.1524
 4023W        W19492  12.911  11.572   3.327  0.3308  0.1430 -0.4484
 4024W        W19493  11.721   8.070   0.222 -0.1933 -0.2554 -0.0686
 4025W        W19494  16.864   8.794  11.073 -0.1261  0.0778 -0.0151
 4026W        W19495  10.401  13.272  11.409  0.0098  0.2341  0.1199
 4027W        W19496   6.129  10.037  14.395 -0.1267  0.0138 -0.0341
 4028W        W19497  12.616  17.395   1.646 -0.0978  0.0912  0.1564
 4029W        W19498  14.337   5.632  14.350 -0.0236 -0.2695  0.0283
 4030W        W19499  15.823  11.865  10.986  0.2233 -0.0059 -0.0263
 4031W        W19500  10.010   3.037  11.690 -0.0987  0.2332  0.0617
 4032W        W19501  15.796   7.025   0.787 -0.2917  0.2315 -0.1448
 4033W        W19502   1.164   7.240  14.685  0.0079  0.1552 -0.3559
 4034W        W19503  11.996   8.063   1.525 -0.0907  0.3555  0.1276
 4035W        W19504   5.116   9.513   0.392 -0.4772  0.0889  0.0582
 4036W        W19505   6.696  15.655   5.084 -0.1470 -0.0731 -0.1545
 4037W        W19506   7.039  16.429   0.126 -0.1454 -0.2986 -0.1209
 4038W        W19507   0.962  17.506   4.874  0.0187  0.0581  0.1499
 4039W        W19508   3.345  13.228   3.351  0.1602  0.1808 -0.2019
 4040W        W19509   6.743   3.509  14.870  0.1130 -0.2401  0.2504
 4041W        W19510  12.067  10.957  14.787 -0.0130 -0.2011  0.0925
 4042W        W19511  18.118   6.275   2.359 -0.0885 -0.0048  0.0223
 4043W        W19512   6.303  10.025   3.168 -0.1357  0.0566  0.0780
 4044W        W19513   8.603  10.806  11.551  0.1275 -0.2578 -0.0388
 4045W        W19514  10.926  10.647  14.627 -0.0882 -0.2510 -0.0680
 4046W        W19515  17.304   7.234   3.783  0.1028 -0.0423 -0.0558
 4047W        W19516  13.559  12.588   1.569  0.1491 -0.1127 -0.0036
 4048W        W19517  14.583  17.033  13.731  0.2036  0.2903  0.1583
 4049W        W19518  11.682   2.535  14.163 -0.2092 -0.0446  0.3386
 4050W        W19519   1.671   2.668  14.055 -0.0465 -0.1335  0.3992
 4051W        W19520   7.464  13.304  13.791 -0.2804  0.0116 -0.1066
 4052W        W19521   5.133  18.027  15.513  0.2551 -0.1241  0.3336
 4053W        W19522  15.330  15.619   3.840 -0.2410  0.3739  0.0129
 4054W        W19523   7.821   2.182  13.571 -0.1343  0.0262 -0.1662
 4055W        W19524  12.746  11.452  14.784  0.2400  0.3810 -0.0163
 4056W        W19525   0.144   6.487   5.104  0.1520  0.1568  0.0979
 4057W        W19526  13.395   5.517   4.505 -0.0036  0.1753 -0.0121
 4058W        W19527   3.928   0.003  15.446  0.3479 -0.1930  0.2588
 4059W        W19528   6.593  17.300   3.077  0.0531 -0.1878  0.0621
 4060W        W19529  14.237   9.699   2.055  0.2740 -0.2624 -0.1857
 4061W        W19530   7.341  14.735   2.752  0.1229  0.0101 -0.0079
 4062W        W19531  18.059   5.804  15.374 -0.2239 -0.2547  0.4393
 4063W        W19532   5.822  11.804  11.959 -0.0322  0.1752 -0.0551
 4064W        W19533   2.416  10.141   4.865 -0.1022 -0.0076  0.0952
 4065W        W19534   8.613  15.236   6.060 -0.0294 -0.0497 -0.0544
 4066W        W19535  17.523  16.425  10.729 -0.1331  0.0100 -0.1623
 4067W        W19536  17.025   4.986   0.679 -0.0247 -0.1903 -0.2187
 4068W        W19537  16.623  16.528   2.464  0.2979  0.0768 -0.0174
 4069W        W19538   7.727   8.219  15.312  0.1069 -0.2320  0.4461
 4070W        W19539   7.657   3.179   5.723 -0.0934 -0.2641 -0.2042
 4071W        W19540   0.702  16.715  12.702  0.1681 -0.3237  0.1344
 4072W        W19541   8.343   4.546   2.766  0.2243  0.2286 -0.0981
 4073W        W19542  12.325  16.180   4.204  0.5023  0.4924 -0.0204
 4074W        W19543  12.578   4.342  15.006  0.4302  0.0327  0.1195
 4075W        W19544  12.182  18.315  12.266  0.0257 -0.0639  0.0019
 4076W        W19545   8.433   2.497   2.197 -0.0214 -0.1691 -0.0084
 4077W        W19546  18.216  14.590   0.233  0.0573  0.3128 -0.2128
 4078W        W19547  16.965   7.999   0.629  0.0504  0.1384  0.0365
 4079W        W19548   3.745  13.311   5.206 -0.1715  0.2418 -0.1348
 4080W        W19549   3.838  17.280  12.445  0.1667 -0.0787  0.0221
 4081W        W19550   9.108  17.451   4.612  0.2301  0.1507 -0.3659
 4082W        W19551  10.561   5.252   3.991 -0.3205 -0.2334 -0.1772
 4083W        W19552  10.937   8.886   0.903 -0.1129 -0.2437  0.1167
 4084W        W19553  16.559   9.697   4.093 -0.1048  0.2153 -0.0162
 4085W        W19554  11.602  16.824   0.661 -0.1392  0.0374 -0.1161
 4086W        W19555  14.708   9.408   2.351  0.0310 -0.0279  0.0815
 4087W        W19556   4.099   5.407   6.100  0.0414  0.2305 -0.0276
 4088W        W19557   5.862   3.039   3.691 -0.0455 -0.0892  0.1248
 4089W        W19558   9.013   6.559  12.376 -0.1376 -0.0858 -0.1105
 4090W        W19559   9.412  14.910   4.970 -0.2357 -0.0465 -0.1890
 4091W        W19560   0.612  10.304  12.499 -0.0503  0.0203 -0.0011
 4092W        W19561   7.330  17.154   4.363 -0.1011 -0.3315  0.1101
 4093W        W19562   3.816  11.838  15.515  0.1115 -0.1334 -0.1552
 4094W        W19563  18.170   2.511   0.089 -0.0444  0.0064  0.4816
 4095W        W19564   0.481  15.934   0.697  0.1023 -0.0687  0.1552
 4096W        W19565  17.298  10.695   9.599  0.2642 -0.0229 -0.0887
 4097W        W19566  12.555  15.693   3.789  0.3587 -0.1629 -0.2747
 4098W        W19567   4.833   3.217   3.786  0.0001  0.3048 -0.3567
 4099W        W19568  17.269   3.797  14.409  0.2661 -0.0442 -0.0963
 4100W        W19569  14.239   1.064  11.362 -0.1894 -0.0128  0.0345
 4101W        W19570   2.902  11.290  11.074 -0.0512 -0.1456 -0.2248
 4102W        W19571   2.356   8.929  14.833 -0.2121 -0.0376  0.0410
 4103W        W19572   0.671  12.021   4.269 -0.1152 -0.0883 -0.0421
 4104W        W19573  17.996   9.033   1.020 -0.2967 -0.0398 -0.0806
 4105W        W19574   8.357  10.089  15.692 -0.2527  0.0485  0.0288
 4106W        W19575   3.482  13.004   0.046  0.1317  0.3601 -0.0117
 4107W        W19576  13.466   2.216   0.302 -0.0613  0.1885  0.0188
 4108W        W19577   3.392  10.294  15.493  0.2056 -0.4114 -0.2103
 4109W        W19578  16.979  10.205  11.678 -0.3079 -0.0310  0.0446
 4110W        W19579  12.183  10.629   0.745 -0.1203 -0.2954  0.1291
 4111W        W19580  16.225  18.325   0.307 -0.0089 -0.6942  0.1330
 4112W        W19581  16.594  12.807   3.583 -0.0641 -0.4326 -0.1716
 4113W        W19582   4.974   4.485  15.716  0.0108 -0.2290  0.1313
 4114W        W19583  18.353  10.013  15.902  0.0575  0.0728  0.0859
 4115W        W19584   5.549  16.251   4.820  0.1438  0.0844  0.0781
 4116W        W19585  10.641   9.509   0.207 -0.2402  0.1130  0.2358
 4117W        W19586   4.267   2.711  13.646  0.0486 -0.1488  0.0139
 4118W        W19587  15.318  17.549   2.253  0.0908  0.2989 -0.1131
 4119W        W19588  13.943   1.434   4.480 -0.0729 -0.0547 -0.1792
 4120W        W19589   3.408   4.221   2.607  0.6707  0.0932 -0.0826
 4121W        W19590  10.376  12.443  12.174  0.2060 -0.0046 -0.3246
 4122W        W19591  14.565   1.313  11.090 -0.0309 -0.2118  0.2029
 4123W        W19592  13.682  10.146   4.513  0.1722 -0.0624  0.0876
 4124W        W19593  10.861  17.797  13.149 -0.2523  0.1875 -0.1012
 4125W        W19594   3.277   4.489  12.909  0.2104  0.2159  0.1144
 4126W        W19595   8.393   1.727  14.717 -0.0207  0.0698 -0.1614
 4127W        W19596   7.249   4.826   0.640 -0.3653 -0.0805 -0.0243
 4128W        W19597   3.924  18.004  13.484 -0.0628 -0.1670 -0.0827
 4129W        W19598   9.416   1.724   0.656  0.1789  0.1201 -0.1022
 4130W        W19599  16.768   8.032  11.764 -0.3996  0.0383 -0.0811
 4131W        W19600  11.983   2.122  14.340 -0.0584  0.0632  0.0987
 4132W        W19601  16.088   7.595   2.080  0.0364 -0.3114 -0.2169
 4133W        W19602   8.259   8.234   0.856  0.2357  0.3970 -0.0575
 4134W        W19603   1.552   1.839  10.895 -0.0239  0.0368  0.0163
 4135W        W19604   1.259  12.587   2.079 -0.0496  0.0918 -0.0955
 4136W        W19605   3.247   8.880  11.546 -0.1394 -0.0204 -0.3953
 4137W        W19606   2.467   6.441   3.650 -0.0399 -0.0489  0.0918
 4138W        W19607  16.828   3.529  14.236  0.0629  0.2181 -0.1021
 4139W        W19608  16.850   9.753  15.281  0.0768 -0.1873 -0.0972
 4140W        W19609  16.395   5.519   5.554  0.0269 -0.0203  0.0191
 4141W        W19610  18.149  14.379  11.478  0.3593  0.0226 -0.1170
 4142W        W19611  16.181  17.309  14.429 -0.2029  0.0900  0.1557
 4143W        W19612   0.214   5.130   1.353 -0.0999 -0.0899 -0.1955
 4144W        W19613  12.200   5.531   1.205  0.1094  0.0434 -0.2145
 4145W        W19614  13.644   5.225   4.826  0.1720 -0.1842 -0.2205
 4146W        W19615   3.529   5.030  13.142  0.0598  0.0945  0.6859
 4147W        W19616   4.692  11.924   1.107 -0.4602  0.1071 -0.1273
 4148W        W19617   8.736   7.040  14.184  0.1996  0.2665  0.0335
 4149W        W19618   1.772   6.423  15.526  0.0819  0.4516  0.0048
 4150W        W19619   9.429  17.236  11.959  0.2712 -0.3451 -0.0088
 4151W        W19620  11.091   8.050   0.311 -0.1773  0.2160 -0.1659
 4152W        W19621  11.286   6.049   0.949 -0.5024 -0.3098 -0.0034
 4153W        W19622   7.027   4.012   2.826 -0.1450  0.2604 -0.0388
 4154W        W19623  16.985  13.393  12.697 -0.4181 -0.1784  0.2286
 4155W        W19624  16.345   2.654  11.923 -0.0292 -0.1252  0.1001
 4156W        W19625  17.650  11.037  14.432  0.0121  0.2684 -0.0823
 4157W        W19626   6.866   1.962  10.858 -0.2822  0.2397 -0.2108
 4158W        W19627   0.290  15.537   4.427  0.1472 -0.0671 -0.0975
 4159W        W19628   0.751   3.083  12.222  0.0001 -0.2378 -0.1501
 4160W        W19629   7.968   6.974  12.021  0.0521 -0.0742 -0.2998
 4161W        W19630   3.283  13.175  12.399  0.0250 -0.0919 -0.2041
 4162W        W19631   3.978   9.790  14.794  0.1238 -0.4295  0.0227
 4163W        W19632  17.265   2.625   3.744 -0.1041 -0.0007 -0.0739
 4164W        W19633  14.061   7.195  15.493  0.0377 -0.1353 -0.1073
 4165W        W19634   8.974   9.209   2.159  0.0303 -0.0086 -0.1180
 4166W        W19635   5.076  11.623   1.038  0.0327 -0.0648  0.0206
 4167W        W19636  11.748  11.206   5.082  0.0430 -0.0350  0.0932
 4168W        W19637  17.571   0.465  14.197  0.1535  0.1023 -0.2190
 4169W        W19638   3.149  16.907  12.358 -0.2248 -0.0777 -0.2981
 4170W        W19639   1.792  14.874   6.015  0.2085 -0.0327 -0.2312
 4171W        W19640   6.827   3.376  12.554  0.2455  0.2736 -0.0907
 4172W        W19641   2.266   5.230  13.933 -0.3378  0.0103 -0.0830
 4173W        W19642  10.523  15.629   5.588  0.0639 -0.0883  0.2107
 4174W        W19643   8.499   8.842   5.304  0.0131  0.0643 -0.0322
 4175W        W19644  13.778   3.716  11.096  0.0719 -0.1546  0.1170
 4176W        W19645  13.361   0.222   5.007  0.1366  0.0100 -0.2644
 4177W        W19646   6.004   5.266  15.380  0.1826  0.1438 -0.0593
 4178W        W19647  17.680  13.588   2.436  0.5051 -0.0887 -0.0876
 4179W        W19648  14.951  18.044  11.236 -0.2719 -0.1152 -0.3560
 4180W        W19649  17.305  13.863  14.993  0.1697 -0.1787 -0.1140
 4181W        W19650  18.394  10.698   1.714  0.0053 -0.0486  0.2382
 4182W        W19651   6.527  17.541  15.186  0.3881 -0.2591  0.1035
 4183W        W19652   7.465   0.843  13.595 -0.0285 -0.0442  0.2523
 4184W        W19653  13.664  12.697   3.252 -0.0107  0.0314 -0.5768
 4185W        W19654  11.678   3.937   3.206  0.0513  0.5713  0.0896
 4186W        W19655  18.324   4.669   0.631 -0.4210 -0.0594 -0.0014
 4187W        W19656   2.139  16.739   3.352  0.2043  0.2731  0.4042
 4188W        W19657   2.494  18.011  13.821 -0.3678  0.1644  0.0450
 4189W        W19658  15.570   9.501  12.938  0.2780  0.0369 -0.0980
 4190W        W19659   6.220   8.757  15.103 -0.0259  0.0738 -0.0441
 4191W        W19660   4.940   1.399  14.935  0.3136 -0.0487 -0.0796
 4192W        W19661  17.861  16.446  14.408  0.2891 -0.4595  0.2057
 4193W        W19662  11.193  17.827  14.493  0.0899 -0.0863  0.2523
 4194W        W19663   5.778   2.179   4.692 -0.1482 -0.1051  0.2812
 4195W        W19664  12.531   5.322   0.222 -0.1738 -0.1240  0.3025
 4196W        W19665   3.831  15.663   0.278  0.3847  0.0824  0.3283
 4197W        W19666   7.285   3.928   5.245 -0.3403  0.0788  0.2212
 4198W        W19667  15.793   8.939  11.190 -0.0436  0.0742  0.1549
 4199W        W19668  13.433   6.132   5.645 -0.0985  0.0524  0.1407
 4200W        W19669  14.314  14.118   1.543  0.1727  0.0809 -0.0467
 4201W        W19670   7.264  11.430  11.862  0.0824  0.0085 -0.2589
 4202W        W19671  10.338  12.392   1.455  0.1550 -0.2876  0.1558
 4203W        W19672  16.320   6.693  15.252 -0.1011  0.0119  0.2318
 4204W        W19673  11.644   0.703  15.008 -0.0332  0.3590 -0.0140
 4205W        W19674   2.875   1.228  12.913 -0.4045  0.0191  0.1416
 4206W        W19675  11.987   2.850  11.178  0.0065  0.0623 -0.0088
 4207W        W19676   6.520   4.147  15.464  0.1008  0.2963  0.3466
 4208W        W19677   3.632   5.272   5.119  0.1739  0.1509 -0.0989
 4209W        W19678   7.918  16.652   5.972  0.1956 -0.0257 -0.2754
 4210W        W19679   9.823  16.798   3.062  0.1833 -0.4860  0.1482
 4211W        W19680  11.251   7.095   1.351 -0.3192  0.0194  0.0106
 4212W        W19681   9.782  11.576   1.681  0.1826  0.1828 -0.3014
 4213W        W19682  14.720   1.203  13.077 -0.2252 -0.0944  0.1942
 4214W        W19683  17.013  13.047  11.038  0.0851 -0.1774 -0.0286
 4215W        W19684   6.606  12.978   5.489 -0.1083 -0.2379  0.0688
 4216W        W19685  10.047  12.150   4.077 -0.2144  0.2334  0.1441
 4217W        W19686   7.604  18.097  13.232 -0.1234 -0.1500 -0.0795
 4218W        W19687   7.851  12.375  13.974  0.3931 -0.2085  0.0921
 4219W        W19688   0.980   9.324   5.496 -0.1011 -0.2288  0.3231
 4220W        W19689  17.462   1.798  11.302  0.0877 -0.0676 -0.1180
 4221W        W19690  17.845   1.816  10.900  0.0044  0.3672 -0.0970
 4222W        W19691   5.460  16.810   3.022  0.1241 -0.0196  0.3755
 4223W        W19692   2.447  13.400   5.038  0.3829 -0.1038 -0.1088
 4224W        W19693  11.826   8.656   2.548 -0.2165  0.1797  0.3495
 4225W        W19694   4.842  11.142  13.857  0.0136 -0.1647  0.1135
 4226W        W19695  15.835   4.302  11.831  0.1518 -0.3559 -0.0273
 4227W        W19696   3.656   7.847  13.658  0.2390  0.0068 -0.0854
 4228W        W19697   9.660   3.026   9.766 -0.3326  0.0599 -0.1756
 4229W        W19698   4.930   6.486   1.594  0.1402 -0.0485  0.1853
 4230W        W19699  11.086  14.965   5.752 -0.0814  0.2040  0.1411
 4231W        W19700  10.356  15.130   4.257  0.0423  0.1676  0.1233
 4232W        W19701  18.000  16.589   3.784 -0.0265 -0.4917  0.1202
 4233W        W19702   5.306  10.861   1.643  0.1948  0.2873  0.1696
 4234W        W19703  10.048   4.923  14.451 -0.0907 -0.0136 -0.2055
 4235W        W19704  14.719  12.838   2.981  0.3571 -0.1646  0.0348
 4236W        W19705   6.092   7.598  11.150 -0.2884  0.1707 -0.0808
 4237W        W19706   0.066   9.721   2.725 -0.3185 -0.0904 -0.2915
 4238W        W19707   3.081  16.649  11.289 -0.0392  0.2481  0.0228
 4239W        W19708  17.423   8.625  12.462  0.1359  0.1140  0.2692
 4240W        W19709   2.823   2.756   3.016  0.0883  0.4371  0.0488
 4241W        W19710  10.016  17.761  14.094 -0.0912  0.2629 -0.2637
 4242W        W19711  10.360   0.276   1.474 -0.0221 -0.1405  0.2866
 4243W        W19712  16.927  16.915  12.479 -0.1313 -0.1764 -0.0918
 4244W        W19713   2.338   5.034  10.767 -0.0147  0.0622 -0.0517
 4245W        W19714   2.002  15.333   3.425 -0.1580  0.0635 -0.0748
 4246W        W19715   1.942  15.668   2.159 -0.0787  0.2921 -0.0103
 4247W        W19716  18.102  11.427  12.698  0.1235  0.2996 -0.1808
 4248W        W19717  13.725   5.883   4.002 -0.0566  0.0615  0.0045
 4249W        W19718  12.564   5.565  15.079  0.1017 -0.2531 -0.0660
 4250W        W19719   8.133   4.376  12.988 -0.0464 -0.0216 -0.1522
 4251W        W19720   8.290  11.407   5.393 -0.1059  0.0310  0.0726
 4252W        W19721  13.657  14.045  12.616 -0.3158 -0.1724 -0.0120
 4253W        W19722  10.199  17.707   1.768  0.0893 -0.4288 -0.0868
 4254W        W19723   6.238   8.359  10.399 -0.0785  0.3044 -0.0314
 4255W        W19724  11.331   5.023  14.669  0.0199 -0.0803 -0.3625
 4256W        W19725   0.627   7.028  14.528 -0.2703 -0.2137  0.0538
 4257W        W19726  10.691  11.759  11.102 -0.3637 -0.2113  0.0796
 4258W        W19727  17.845  16.968   2.877  0.3922 -0.0140 -0.0340
 4259W        W19728   4.025  16.342   3.312  0.2538 -0.1340  0.2328
 4260W        W19729  13.688   2.320   2.913  0.1563  0.1725 -0.0897
 4261W        W19730   4.360   2.504  14.736  0.1462  0.3468  0.1099
 4262W        W19731  10.785  16.663  12.497 -0.0404 -0.1961  0.1038
 4263W        W19732   2.228  10.639  10.692 -0.0662 -0.1025  0.0806
 4264W        W19733  10.839  12.078  11.494  0.1383 -0.1070 -0.0685
 4265W        W19734  12.194  17.591  15.667 -0.0394  0.1906 -0.1033
 4266W        W19735   4.386  14.898  13.315 -0.2952  0.1997  0.0964
 4267W        W19736   8.413   8.309   2.960 -0.0141 -0.0993  0.1641
 4268W        W19737   8.845  11.315  12.664  0.0063  0.0162  0.3206
 4269W        W19738   5.139  12.477   2.129 -0.0642 -0.1573 -0.0136
 4270W        W19739  11.726   1.295  13.353  0.3449  0.2594  0.0793
 4271W        W19740  11.696   3.751  10.213  0.0368  0.2403 -0.1044
 4272W        W19741   8.813   9.887  15.730  0.3008  0.1839  0.0863
 4273W        W19742  18.161   4.515   3.749  0.0419  0.1133  0.0871
 4274W        W19743  16.791  16.033   2.857 -0.0618 -0.0048  0.2027
 4275W        W19744   8.542   6.663  13.336 -0.2092 -0.1649 -0.0029
 4276W        W19745   9.605   7.908  11.486  0.2872 -0.0726 -0.2723
 4277W        W19746   7.219   6.400   5.627  0.0428  0.2308  0.0991
 4278W        W19747   1.677  14.429  14.927 -0.0938  0.1757  0.0107
 4279W        W19748   4.683  16.673  14.583  0.3924  0.1718  0.0737
 4280W        W19749   5.502  13.955  15.829  0.2589 -0.2029 -0.1130
 4281W        W19750  14.650   1.372  15.696 -0.0157  0.2444  0.1402
 4282W        W19751  17.609   8.545  15.587  0.0504 -0.2748  0.1624
 4283W        W19752   3.430   9.353  12.238 -0.0905 -0.0113  0.2341
 4284W        W19753  17.046   5.777  15.803  0.1349 -0.1502 -0.1398
 4285W        W19754  12.709  16.923   4.867  0.1862  0.1592 -0.2567
 4286W        W19755   1.303   3.125  12.446  0.0224  0.2012 -0.0945
 4287W        W19756  14.597  17.669  13.478 -0.0768 -0.0384 -0.0553
 4288W        W19757   7.550   9.013  11.433  0.0090  0.2003  0.1235
 4289W        W19758  17.219  16.370  15.715  0.5092 -0.0623 -0.1416
 4290W        W19759   9.926   2.459   0.653 -0.0551  0.1229 -0.1512
 4291W        W19760  12.501  10.762  12.275 -0.3252 -0.1971 -0.1187
 4292W        W19761   4.717  15.295  15.300 -0.0419 -0.0951  0.1509
 4293W        W19762   7.505  17.502  12.671 -0.1057  0.1898 -0.0424
 4294W        W19763   8.188  11.936  12.925  0.0387 -0.1656 -0.3453
 4295W        W19764   1.628   5.283   1.965  0.3613 -0.1715 -0.1409
 4296W        W19765   9.087   3.733   3.496 -0.0506  0.1567 -0.0329
 4297W        W19766  15.317   4.560   9.697  0.1687  0.0500  0.1264
 4298W        W19767  15.025   7.651  12.571  0.0753  0.2644 -0.0127
 4299W        W19768   7.310   9.571   2.120  0.0415 -0.1243 -0.0955
 4300W        W19769   7.158   1.376   5.118 -0.1727  0.3209  0.2511
 4301W        W19770   5.877   3.598   0.081  0.1890  0.0634  0.0693
 4302W        W19771  16.761   6.633  14.021 -0.0857  0.1542 -0.0022
 4303W        W19772  18.347  11.614  11.305 -0.0452  0.4568 -0.0869
 4304W        W19773   0.778   2.972  10.800 -0.0166  0.0952 -0.2101
 4305W        W19774  10.469   9.699  10.989 -0.1464  0.2255 -0.2259
 4306W        W19775   7.523  14.104  10.105 -0.0369 -0.1604 -0.1782
 4307W        W19776   1.193   9.393  14.265 -0.1097 -0.1413  0.0299
 4308W        W19777   9.248   5.548  12.466  0.1461 -0.2199  0.0426
 4309W        W19778  17.911   5.523   0.265  0.0253  0.1280  0.2858
 4310W        W19779   6.210  17.740   5.665 -0.1595  0.0994  0.1399
 4311W        W19780   7.679  17.832  12.204 -0.0562  0.3660  0.0622
 4312W        W19781   6.698   0.941  14.268 -0.2399  0.0992 -0.0437
 4313W        W19782   2.302   2.240  11.440  0.2526 -0.0710  0.2020
 4314W        W19783  17.643  15.096   9.979  0.1393  0.1430  0.0142
 4315W        W19784  14.169   4.004  15.702  0.0077  0.1462 -0.4210
 4316W        W19785   1.911   1.648  15.090  0.1234 -0.1195 -0.2607
 4317W        W19786  11.439   4.870   0.975 -0.3042 -0.1478  0.2034
 4318W        W19787   7.780   9.467  15.499  0.0234 -0.0868  0.3983
 4319W        W19788  12.314  16.143   2.828 -0.0680 -0.1724  0.0440
 4320W        W19789  12.186   9.293   3.258  0.0710 -0.2644  0.1933
 4321W        W19790   0.643  17.157  15.432 -0.2071 -0.0290  0.5079
 4322W        W19791   6.801   2.175   4.160 -0.0022  0.1568  0.0440
 4323W        W19792   8.257   1.014  11.209 -0.0668  0.2488 -0.1466
 4324W        W19793   1.192   9.723   0.237 -0.1294  0.2132  0.4334
 4325W        W19794   3.523   9.656  12.643 -0.1932  0.1804 -0.1352
 4326W        W19795   0.180   7.281  14.399 -0.0933 -0.0874 -0.1932
 4327W        W19796   4.115   6.882   2.588 -0.2758 -0.1594  0.0641
 4328W        W19797  11.939  15.109   0.768 -0.1108 -0.0512 -0.3587
 4329W        W19798  17.518  17.197  14.142  0.4038 -0.0563 -0.1196
 4330W        W19799  15.941  17.152  12.349  0.0189  0.1249 -0.1693
 4331W        W19800  14.216   3.116   1.935  0.0247 -0.1123  0.0040
 4332W        W19801   5.153  15.877   4.808 -0.1280 -0.3316 -0.3232
 4333W        W19802   5.661   0.431   5.257 -0.3353  0.1421 -0.1055
 4334W        W19803   3.545   7.706   0.008  0.1084 -0.2514  0.0011
 4335W        W19804   1.175  10.910   1.441  0.0203 -0.0120 -0.0328
 4336W        W19805  11.146  17.804   4.735  0.0447  0.1202  0.4465
 4337W        W19806  14.663  13.294  15.910 -0.0079 -0.0334 -0.1932
 4338W        W19807   3.838  10.407   5.823 -0.3458  0.0208  0.0316
 4339W        W19808   5.017   9.631   3.893 -0.1361 -0.1348 -0.0380
 4340W        W19809   1.480  10.153  12.684  0.1231 -0.0597 -0.2233
 4341W        W19810   6.987   1.655  11.909 -0.0860  0.0819 -0.0821
 4342W        W19811   1.892   1.313   2.837  0.6020 -0.1536  0.0354
 4343W        W19812   9.913   2.305  13.431  0.2165 -0.1716 -0.1367
 4344W        W19813  15.187  14.983  15.318  0.1064  0.1515 -0.0466
 4345W        W19814  10.749  15.100  11.161  0.0821 -0.1918 -0.0211
 4346W        W19815   8.228  14.966  12.182  0.1378 -0.4409  0.2931
 4347W        W19816  11.296   7.652  11.205  0.2701 -0.1826 -0.0944
 4348W        W19817  18.338   3.430  11.665  0.2387  0.2094  0.0178
 4349W        W19818  16.891   3.363   6.246  0.0269  0.2460  0.3687
 4350W        W19819  13.245  12.948   1.382 -0.0989 -0.3477 -0.2746
 4351W        W19820  10.750  16.269   2.932 -0.0098 -0.0312 -0.3437
 4352W        W19821  13.788   0.750  11.311 -0.0083 -0.1659 -0.0448
 4353W        W19822  17.866  16.465  13.399 -0.2174  0.0141  0.0631
 4354W        W19823   3.794  16.584   0.105  0.1189 -0.0181  0.3155
 4355W        W19824   7.540  11.337  13.899 -0.1114 -0.2410  0.1649
 4356W        W19825   3.599  16.572  12.098 -0.1634 -0.3015  0.0700
 4357W        W19826   4.351   3.674   5.049  0.1186 -0.3308  0.0707
 4358W        W19827   8.648  16.996  13.727  0.0336  0.4123 -0.0139
 4359W        W19828   7.719  15.199  12.508  0.0354  0.1062  0.3374
 4360W        W19829   1.066  11.433  13.754  0.2925 -0.0125  0.2516
 4361W        W19830  12.878  18.205   5.483 -0.0099  0.1019  0.2034
 4362W        W19831   7.418   7.809  14.665 -0.1353 -0.3627  0.3276
 4363W        W19832   0.071   5.718  15.344  0.2062 -0.0732  0.2669
 4364W        W19833   4.646   8.760  12.704  0.4792  0.1102  0.0639
 4365W        W19834  15.885   3.839  14.504 -0.0364 -0.2759  0.1894
 4366W        W19835   9.698   3.389   0.015  0.0818 -0.1582  0.1289
 4367W        W19836   4.729  15.009  11.499 -0.0408  0.0918 -0.0631
 4368W        W19837  18.311   9.401   1.861  0.4231  0.1662  0.0223
 4369W        W19838  14.051  16.319   3.765  0.2080 -0.2163 -0.0168
 4370W        W19839   0.231  17.783   2.080  0.1625 -0.1251  0.0282
 4371W        W19840  10.076   3.475   4.519  0.2034 -0.1916 -0.1657
 4372W        W19841  12.286  12.625  14.335  0.1744  0.3134 -0.0844
 4373W        W19842   9.881  18.312  15.652 -0.0695 -0.1186 -0.4566
 4374W        W19843  14.031  18.386  10.267 -0.0595 -0.0186  0.0356
 4375W        W19844   2.639  15.770  12.145 -0.6009  0.0960  0.1003
 4376W        W19845   0.259   4.664   1.062  0.0493 -0.0435  0.0306
 4377W        W19846  15.995  12.781  11.927 -0.0437 -0.0106 -0.0476
 4378W        W19847  12.267  14.803   1.109  0.2091  0.0506 -0.3314
 4379W        W19848   7.767  16.064   0.351 -0.0835 -0.2671  0.0636
 4380W        W19849  17.815   5.824  12.535  0.3038  0.0567  0.3513
 4381W        W19850  14.805   0.733   3.186  0.2378 -0.0945 -0.2696
 4382W        W19851  10.596   2.903  15.322  0.3729 -0.2670 -0.1113
 4383W        W19852  13.841   8.140  12.934 -0.0675 -0.1118  0.4206
 4384W        W19853  12.658   2.547   2.827  0.1669 -0.0129  0.0783
 4385W        W19854   0.414  15.452  13.026  0.2193 -0.1120 -0.4208
 4386W        W19855   9.870   9.697  14.811  0.4516 -0.1182 -0.3726
 4387W        W19856  15.093   2.553   1.198 -0.2094 -0.1551  0.3046
 4388W        W19857  12.234   5.111  10.822 -0.0084  0.1711  0.1796
 4389W        W19858  15.342   5.871   1.782 -0.0497 -0.2082 -0.0205
 4390W        W19859  10.627   1.534   2.945  0.2485  0.0428 -0.1763
 4391W        W19860  10.412   2.236   5.412 -0.0483 -0.2234 -0.0000
 4392W        W19861  13.440  12.972   1.876 -0.2251  0.1420  0.0600
 4393W        W19862   8.619   1.762   6.005 -0.4066  0.1040 -0.3005
 4394W        W19863   4.555  16.072  14.785  0.1813 -0.4357 -0.0835
 4395W        W19864  13.169  14.360  13.105  0.1117  0.1677 -0.0393
 4396W        W19865  11.297  11.373  13.717 -0.1468  0.0069  0.0786
 4397W        W19866  16.119  15.052   5.521  0.3804  0.2146  0.2743
 4398W        W19867   3.899   0.499   1.570  0.0938 -0.2042 -0.2216
 4399W        W19868   5.455   9.481   0.749 -0.0160 -0.1843  0.0565
 4400W        W19869  15.178  11.377   0.436 -0.0648 -0.0696 -0.2657
 4401W        W19870  16.128  14.356   1.079 -0.0221  0.0209  0.2076
 4402W        W19871  11.611  15.130  14.523  0.2619 -0.3802  0.1469
 4403W        W19872   4.144   1.405   1.480 -0.0483  0.1591 -0.2238
 4404W        W19873   5.562   2.668  15.837 -0.1301  0.0128  0.1169
 4405W        W19874   4.178  18.240   4.348 -0.3032  0.2292 -0.4260
 4406W        W19875   3.844  14.281   3.020  0.1079  0.1092 -0.0860
 4407W        W19876   1.359  11.416  13.335 -0.1494  0.0836  0.0136
 4408W        W19877   6.687   0.620   4.706 -0.1918 -0.0721 -0.0645
 4409W        W19878  10.013   3.088  12.196 -0.1331  0.1839  0.0983
 4410W        W19879  12.187  14.590   0.285 -0.3412  0.2536 -0.2633
 4411W        W19880   7.886   2.041   5.153 -0.0908 -0.0101 -0.0650
 4412W        W19881  12.442  13.856   1.085  0.2385 -0.1947 -0.1906
 4413W        W19882   2.479   2.660   3.331 -0.0564 -0.1531  0.0792
 4414W        W19883  16.858  13.527   1.581  0.3430  0.0634 -0.0520
 4415W        W19884   9.198  16.565   4.135 -0.4230  0.0724  0.0495
 4416W        W19885  14.489   4.555   1.651  0.0479 -0.0047 -0.0261
 4417W        W19886  13.896   4.220   0.805  0.0973 -0.2664  0.1764
 4418W        W19887   6.750  13.908  11.719  0.2443 -0.0911 -0.4327
 4419W        W19888  14.280  15.372   2.436  0.1886 -0.1190 -0.0942
 4420W        W19889   8.903   0.691   0.613 -0.2107  0.1244 -0.1092
 4421W        W19890  11.302   8.515   0.198  0.2576  0.1826  0.1610
 4422W        W19891  12.608  11.765  12.176 -0.0288 -0.2089  0.0924
 4423W        W19892  16.186  17.146  12.852  0.2348 -0.0354 -0.0854
 4424W        W19893  16.776   4.343   4.062  0.1221  0.0634  0.0432
 4425W        W19894   3.685   6.972   2.922  0.1652  0.0176 -0.3790
 4426W        W19895  11.920  10.156   0.931  0.2033  0.0362 -0.0657
 4427W        W19896   8.212  17.905  15.439 -0.1594 -0.1231  0.1709
 4428W        W19897  18.172   7.839   0.548 -0.1335 -0.4116 -0.0544
 4429W        W19898   5.448  16.979   0.276 -0.2333 -0.2849  0.0534
 4430W        W19899   9.957   0.815  11.873 -0.0227  0.0764 -0.1051
 4431W        W19900  10.513   3.122  10.761  0.0356 -0.1144  0.0076
 4432W        W19901  15.725  13.791   4.079  0.0964  0.3282 -0.2587
 4433W        W19902  18.170  10.452  15.608 -0.2027  0.0774  0.1649
 4434W        W19903   6.383  14.035   3.099 -0.2917 -0.0767 -0.1809
 4435W        W19904   0.578   0.862   3.200 -0.0234 -0.1386 -0.1209
 4436W        W19905  12.655   1.739  12.154  0.0319 -0.1167  0.1892
 4437W        W19906  13.554   6.201   5.072 -0.2432  0.1967  0.4347
 4438W        W19907   4.427   0.534   2.980  0.1316 -0.1401 -0.0297
 4439W        W19908   0.780  12.792   3.736 -0.2899 -0.1848  0.2676
 4440W        W19909   3.112   2.979  15.027 -0.3735 -0.1522 -0.2569
 4441W        W19910  17.716   5.832  15.745 -0.0403  0.1180  0.1398
 4442W        W19911  10.939   4.279  11.297  0.1251  0.1238 -0.0470
 4443W        W19912  12.628  15.671   5.281  0.2407 -0.1626 -0.2719
 4444W        W19913   7.542  12.028  12.523  0.0048  0.2197 -0.2452
 4445W        W19914  14.677  11.776   5.829 -0.0428  0.1459 -0.1802
 4446W        W19915   0.102   4.602  11.976 -0.0501 -0.1566  0.4503
 4447W        W19916   8.295   3.515   1.300  0.0012  0.0045  0.1332
 4448W        W19917  12.985   3.207   4.980  0.2534 -0.2465  0.0393
 4449W        W19918   4.801  15.103   0.007  0.2535  0.0184 -0.0218
 4450W        W19919   7.388  17.756  11.356 -0.0180  0.1576  0.2035
 4451W        W19920  15.683   4.933   4.568 -0.4323  0.3994 -0.1949
 4452W        W19921  11.243  15.665  15.370  0.1640 -0.0366  0.2332
 4453W        W19922   6.446   1.124  11.411  0.0043  0.0572 -0.0575
 4454W        W19923   5.585  13.591   4.901 -0.2725  0.3402 -0.4259
 4455W        W19924  16.244   6.723  12.987  0.4368  0.3197 -0.2681
 4456W        W19925   4.773   4.170   1.741  0.2320 -0.1539  0.0248
 4457W        W19926   5.960  16.607   3.268 -0.0107 -0.0455 -0.0466
 4458W        W19927   5.715   0.168   0.189 -0.1081 -0.0509 -0.0831
 4459W        W19928   2.423  10.473   0.108 -0.1599  0.0334  0.0104
 4460W        W19929  12.557  11.855   1.487 -0.6255 -0.1601 -0.3335
 4461W        W19930  17.696  15.589   0.175  0.0707  0.1625  0.0127
 4462W        W19931  15.839   6.436  12.285 -0.0211 -0.1075 -0.0286
 4463W        W19932   8.893  11.276  11.716  0.1487  0.0484 -0.1762
 4464W        W19933   6.216  13.289  15.070 -0.1693 -0.1365  0.1977
 4465W        W19934   6.644   5.912   4.750  0.0691 -0.1209 -0.0531
 4466W        W19935  18.266   3.729   1.667  0.1061  0.0487  0.0599
 4467W        W19936   9.012   7.384  13.347  0.0226 -0.0692 -0.0660
 4468W        W19937   0.516   5.715  13.438  0.0241  0.0440 -0.0697
 4469W        W19938   6.730   3.593   1.502  0.3093 -0.3827  0.0622
 4470W        W19939  16.443   6.361   1.188 -0.2674  0.1807 -0.3157
 4471W        W19940   8.052  12.123   0.711  0.0228  0.0816  0.0716
 4472W        W19941   0.989   1.692   1.378 -0.1741  0.2260 -0.4024
 4473W        W19942  10.422   5.412   3.426 -0.2041  0.1536 -0.0273
 4474W        W19943  16.779  10.706   9.691 -0.1428 -0.1378 -0.4230
 4475W        W19944   7.000   9.215   0.916  0.5981  0.1955  0.0539
 4476W        W19945  11.865   7.562  14.395  0.2821 -0.2003  0.7282
 4477W        W19946   2.496  12.197   3.650 -0.0562 -0.1328 -0.0695
 4478W        W19947   3.645  10.382   3.740  0.2310 -0.2415 -0.0372
 4479W        W19948  15.129  15.002  10.698 -0.0420  0.1116  0.1244
 4480W        W19949   7.947  18.022   6.193  0.0356 -0.0918 -0.3614
 4481W        W19950  12.674   7.648  14.527 -0.0075  0.0462  0.0339
 4482W        W19951   8.995   4.848   5.048 -0.0189  0.2691  0.0654
 4483W        W19952   3.134  13.493  14.862 -0.1121 -0.3347 -0.0942
 4484W        W19953   4.995   3.305   0.023 -0.0766  0.0860  0.3123
 4485W        W19954   8.420  12.470   1.029  0.2624 -0.1572  0.0123
 4486W        W19955  14.982   5.302  10.888 -0.4787  0.1225  0.1287
 4487W        W19956  10.466   7.572  12.361 -0.2190  0.0201 -0.0262
 4488W        W19957  11.231  16.033   0.636 -0.3215 -0.2892  0.0225
 4489W        W19958   2.030   8.620   2.474 -0.1726 -0.1267 -0.0150
 4490W        W19959   5.043  13.086   1.937  0.0505  0.1888  0.1637
 4491W        W19960  18.292   7.860   3.140 -0.0308  0.1006 -0.0304
 4492W        W19961   1.157  13.831  13.631 -0.0184 -0.0041 -0.0925
 4493W        W19962   0.910   3.729  14.370  0.1429 -0.0064  0.2648
 4494W        W19963  10.903   9.589   4.389 -0.1238  0.3136 -0.0756
 4495W        W19964  12.023   9.404  11.189 -0.0073 -0.1548  0.1953
 4496W        W19965  18.435  11.063  12.621  0.0362  0.0741 -0.2268
 4497W        W19966   8.552  13.544   5.379 -0.0161 -0.2432  0.0003
 4498W        W19967   7.879   8.330   4.196  0.1219 -0.2572 -0.0304
 4499W        W19968   5.020   1.364   0.912 -0.1109  0.2704  0.1697
 4500W        W19969  11.381   1.492  13.741  0.1383 -0.2662  0.0684
 4501W        W19970  15.027   7.270  12.971 -0.2161  0.0824  0.1550
 4502W        W19971  13.031   5.243   0.479 -0.0638  0.1387  0.3260
 4503W        W19972   5.714  15.309  13.559  0.0559  0.2170 -0.2631
 4504W        W19973  16.639  12.726  13.633  0.1932 -0.1570  0.0138
 4505W        W19974  16.645  10.045  11.269  0.2486  0.0656  0.1009
 4506W        W19975  13.392   8.497   0.362  0.3162  0.1047  0.0489
 4507W        W19976   2.947  15.505  15.674 -0.0633  0.1526  0.1181
 4508W        W19977   7.733   9.335   5.155 -0.2031  0.0966  0.1301
 4509W        W19978   9.338   6.982   4.206  0.1026  0.0783 -0.1314
 4510W        W19979  12.538   9.758  15.270 -0.1047  0.0100  0.0451
 4511W        W19980  15.019   9.371   0.230  0.1788  0.1498  0.2337
 4512W        W19981   6.013   7.333   2.898 -0.1364 -0.1753  0.0717
 4513W        W19982   1.134   6.716   0.802  0.0428  0.0806 -0.0992
 4514W        W19983  17.839   3.081   2.279 -0.3656  0.0871 -0.0254
 4515W        W19984   3.554   0.235  15.050 -0.1421 -0.0284 -0.0637
 4516W        W19985   3.525  11.145  12.111 -0.3460 -0.2516 -0.0073
 4517W        W19986   0.338  15.012   0.579 -0.2513 -0.3316 -0.3912
 4518W        W19987   9.551  15.873   2.777  0.0738  0.1698 -0.0205
 4519W        W19988   7.090   2.179  11.729 -0.0118  0.1248 -0.2929
 4520W        W19989   4.236   6.007   4.935 -0.0373 -0.2332 -0.0126
 4521W        W19990   8.520  13.885   3.151 -0.2470  0.1848  0.0198
 4522W        W19991   4.391  15.223  12.510 -0.2475  0.3123  0.0034
 4523W        W19992  16.815   0.596  13.308  0.0739 -0.0779 -0.1609
 4524W        W19993   2.103  15.705  12.260  0.2556  0.1328 -0.0642
 4525W        W19994  18.436   3.241   2.922 -0.0404 -0.2126 -0.4649
 4526W        W19995  17.439  14.558  10.873  0.1273 -0.3175 -0.0454
 4527W        W19996  10.682   9.721  13.501 -0.2754  0.1662  0.1727
 4528W        W19997  12.349   6.552  11.949  0.0399 -0.1206  0.2063
 4529W        W19998  14.848  13.592   2.631  0.1680  0.3099 -0.2143
 4530W        W19999   2.096  17.883  12.972 -0.1252  0.2404 -0.2993
 4531W        W20000  13.255  14.769  13.865 -0.2685 -0.2182  0.1941
 4532W        W20001   6.690   8.545   3.148 -0.0306 -0.0985 -0.0810
 4533W        W20002   0.664   9.028   4.486 -0.1380 -0.0476 -0.3761
 4534W        W20003   3.481  11.781   2.261 -0.2138  0.0403 -0.2273
 4535W        W20004   3.428   6.548   2.131  0.3721  0.0781  0.0027
 4536W        W20005   6.904   2.298  13.556 -0.2178 -0.1214 -0.0995
 4537W        W20006  12.706   9.955   5.059 -0.0286 -0.0635  0.0005
 4538W        W20007  10.005   0.907  12.953  0.2399  0.1103  0.1886
 4539W        W20008   3.370  10.144   1.685  0.2025  0.0400  0.3701
 4540W        W20009  16.219  13.490  12.980 -0.3165  0.0970 -0.1318
 4541W        W20010   7.125   9.770   4.889  0.2526  0.0112 -0.3023
 4542W        W20011  16.115  13.298  14.024  0.1537 -0.1762 -0.1701
 4543W        W20012  16.061  10.482  11.429  0.0063  0.0880  0.1298
 4544W        W20013   6.836   8.709  13.206  0.1872 -0.4993 -0.0525
 4545W        W20014   2.897   1.893   3.652  0.0460  0.1360  0.0946
 4546W        W20015   3.687   3.319  14.303 -0.2523  0.1451 -0.2119
 4547W        W20016  10.696  10.874  15.878  0.1036  0.2091  0.0458
 4548W        W20017  16.482   7.281   4.599 -0.1468  0.0685  0.2264
 4549W        W20018  14.691  14.911  15.421 -0.2700  0.2369 -0.1348
 4550W        W20019   1.065  18.283  15.412 -0.2370 -0.1066 -0.2532
 4551W        W20020   2.707   6.310   1.381  0.0446  0.0894  0.3410
 4552W        W20021  15.703  12.969  15.274 -0.0568 -0.0885  0.2665
 4553W        W20022  12.803  13.197  15.467 -0.1251 -0.1190  0.1344
 4554W        W20023   7.057  16.462   4.016 -0.1308 -0.0379  0.0225
 4555W        W20024   3.781   3.460   0.980 -0.0034  0.0869  0.1390
 4556W        W20025   7.627   6.795   0.766 -0.5687 -0.1779  0.0530
 4557W        W20026   1.142   4.533  13.225 -0.0208  0.1933  0.2701
 4558W        W20027   1.776   4.666   4.537  0.1105  0.0507 -0.0708
 4559W        W20028  17.252   7.058  13.186  0.4029  0.2406 -0.0329
 4560W        W20029   1.639   6.425   0.089 -0.1243 -0.1025 -0.0467
 4561W        W20030   8.872  10.032  13.111 -0.0999 -0.2460 -0.1026
 4562W        W20031   9.415   3.013  15.769  0.0084 -0.1074 -0.3040
 4563W        W20032  10.317   9.525  15.746 -0.0693 -0.1658  0.0204
 4564W        W20033   4.967  11.328   0.060  0.1590  0.1211  0.0223
 4565W        W20034  17.183  14.188  13.207  0.0816 -0.1381  0.2885
 4566W        W20035  16.329   1.397   2.012  0.1224  0.1650  0.2178
 4567W        W20036  13.745  11.502  12.744  0.0685  0.0413  0.1181
 4568W        W20037  10.500   6.659   4.843 -0.1284  0.0237 -0.0859
 4569W        W20038   4.529   0.055  11.891 -0.3587  0.1297  0.3519
 4570W        W20039  10.453   8.673  13.351 -0.0387  0.0096 -0.0601
 4571W        W20040   2.264   8.394   1.980  0.0289 -0.1435 -0.1183
 4572W        W20041  10.452  10.213  12.195  0.1804  0.3211 -0.0884
 4573W        W20042  18.471   6.215  10.778 -0.0735  0.0734  0.2396
 4574W        W20043   1.244  10.728   4.393  0.0614 -0.0524  0.1789
 4575W        W20044  16.648  17.209  11.047 -0.2683 -0.0099  0.0683
 4576W        W20045   1.579   9.186  13.040  0.1015  0.1482  0.1405
 4577W        W20046   7.346   0.495  13.108 -0.0088  0.0688 -0.0357
 4578W        W20047  11.892   6.747   4.511 -0.0799  0.0327  0.2706
 4579W        W20048   8.701  12.361  11.347 -0.0592  0.1611  0.1847
 4580W        W20049  14.108   3.260   3.817 -0.0558  0.2086  0.1901
 4581W        W20050  12.625   8.151   5.324  0.1524  0.3740 -0.1512
 4582W        W20051   9.308  13.297  13.602 -0.1102 -0.3127  0.2411
 4583W        W20052  15.333  12.908   0.372  0.0851 -0.0910 -0.1554
 4584W        W20053  12.501   7.632   0.432 -0.2648 -0.0650  0.1756
 4585W        W20054   7.761   6.408   0.481 -0.1488  0.3307  0.1071
 4586W        W20055   2.045   0.151  10.937 -0.0016 -0.1561 -0.1665
 4587W        W20056  13.004   7.170  15.491  0.1475  0.0326 -0.1474
 4588W        W20057  12.330  15.101   5.099  0.0177 -0.1371 -0.1322
 4589W        W20058  15.409  14.577  12.728 -0.2074  0.0648  0.0545
 4590W        W20059   6.739   1.844  14.225 -0.0323 -0.3342  0.0645
 4591W        W20060  15.367   4.710   1.692 -0.1297 -0.0154  0.3722
 4592W        W20061   5.642  13.452  15.904  0.2984  0.0265  0.0503
 4593W        W20062   5.349   3.210  14.945  0.3786  0.0957  0.1695
 4594W        W20063   1.196   7.488  14.162 -0.1413 -0.1341  0.3304
 4595W        W20064  17.334   3.002  15.402 -0.0696 -0.3088  0.0830
 4596W        W20065   8.249   5.224  12.597 -0.0471  0.2407  0.0956
 4597W        W20066  11.717   1.085  14.512 -0.0987 -0.2662  0.0426
 4598W        W20067  10.998  16.601  14.138  0.1387  0.1358  0.0382
 4599W        W20068  11.993  15.953  12.388  0.0093 -0.0480 -0.0695
 4600W        W20069   6.430   1.225  13.843 -0.2358  0.2474 -0.0815
 4601W        W20070  15.712  17.897  15.096 -0.0391 -0.2530 -0.1800
 4602W        W20071  14.044   0.914  14.716  0.1857 -0.0633  0.4224
 4603W        W20072  14.938   6.491   1.675 -0.0633  0.0055  0.0803
 4604W        W20073  14.229  13.994  14.912 -0.0350  0.1105  0.0825
 4605W        W20074   7.237   9.451   5.306  0.0648 -0.3222 -0.0630
 4606W        W20075  13.453   2.884   0.649 -0.1023 -0.1368  0.0272
 4607W        W20076  10.339  16.576   1.414  0.0365 -0.0826 -0.1722
 4608W        W20077   7.200   6.954   3.501 -0.0236  0.1226 -0.0090
 4609W        W20078  11.094   0.598   2.041 -0.1656 -0.1238  0.0641
 4610W        W20079   3.159   8.664  14.864 -0.1692 -0.1782  0.1249
 4611W        W20080  12.668   5.779  10.387 -0.6549 -0.1927  0.2433
 4612W        W20081   4.899  17.107   0.451  0.0946 -0.0517  0.0260
 4613W        W20082   7.017  18.119   1.443 -0.2441 -0.1240  0.3182
 4614W        W20083   6.142   0.299  12.610  0.0554  0.0503 -0.0508
 4615W        W20084  12.622   4.071   4.010  0.0208  0.0607  0.4590
 4616W        W20085   7.662   2.364  11.916 -0.1873  0.1423  0.4638
 4617W        W20086   0.568  13.610   4.494  0.0739 -0.3237  0.3351
 4618W        W20087   4.274  12.541  14.821  0.1720  0.1942 -0.3256
 4619W        W20088   7.063  17.919   4.959  0.1382  0.0613  0.1184
 4620W        W20089  14.539   2.417   5.473  0.1555  0.1078 -0.3494
 4621W        W20090   5.691   6.747  10.971 -0.0047  0.2105  0.1974
 4622W        W20091  10.317  15.651   1.161  0.0634 -0.1812  0.1417
 4623W        W20092   0.296   4.700  11.049 -0.0337 -0.0057 -0.2618
 4624W        W20093  13.661  17.509   0.363  0.1918  0.0247  0.1830
 4625W        W20094  18.109  14.303   3.478  0.0335  0.2740 -0.0787
 4626W        W20095  14.532   9.860   3.066 -0.0328 -0.0467 -0.0539
 4627W        W20096   1.292   5.658   4.860 -0.0531 -0.3030 -0.0915
 4628W        W20097   1.684  16.838   0.907  0.0616  0.0184  0.2480
 4629W        W20098   7.001  13.225  13.576 -0.1647  0.2764 -0.0276
 4630W        W20099   7.702   0.121  15.907  0.1499  0.2705 -0.0050
 4631W        W20100   3.461  13.467  11.974 -0.0792 -0.0438 -0.2044
 4632W        W20101   0.552  17.889   3.433 -0.0679  0.0649 -0.0252
 4633W        W20102  10.522   4.890  12.301 -0.1977  0.5541 -0.0698
 4634W        W20103   5.977  17.295   1.167 -0.1705 -0.0407  0.4988
 4635W        W20104  15.338   7.103   0.678 -0.1314 -0.1434  0.1418
 4636W        W20105   7.148   8.924  10.678  0.2202  0.0946 -0.0114
 4637W        W20106   5.794  13.273  14.813 -0.0556  0.2356  0.0756
 4638W        W20107  18.320   4.834  15.386  0.3466  0.0726  0.1471
 4639W        W20108   3.270   8.955   2.154 -0.0592 -0.1059 -0.3269
 4640W        W20109  11.464   9.555  11.074 -0.2942 -0.0327 -0.0213
 4641W        W20110  18.408  16.182   0.423 -0.0933  0.0013  0.1514
 4642W        W20111   2.506   1.101   4.928  0.1790 -0.1447 -0.2896
 4643W        W20112   7.005  16.650  12.060  0.0332  0.2758  0.2078
 4644W        W20113  12.862   7.378  12.119  0.1974 -0.0405  0.0010
 4645W        W20114  18.109   5.309  15.690  0.1927  0.1566 -0.3211
 4646W        W20115   4.944   0.674   1.537  0.2494  0.0639 -0.0916
 4647W        W20116   6.758  16.418  10.684 -0.1765 -0.0859 -0.1016
 4648W        W20117   7.231   1.460   3.128 -0.1451  0.1263  0.0022
 4649W        W20118  18.305  14.833   2.699 -0.0234  0.0111 -0.1653
 4650W        W20119  16.251   8.132  11.895  0.5612  0.0406 -0.5288
 4651W        W20120  10.258  10.027  13.164  0.1331  0.4536 -0.2310
 4652W        W20121   1.365   1.400  15.173 -0.1491  0.0512 -0.1622
 4653W        W20122   1.322   0.490  12.387  0.0943  0.0967 -0.0668
 4654W        W20123   1.641   4.381  12.334  0.0545  0.1572  0.2969
 4655W        W20124  14.247  11.652   0.211 -0.1104 -0.8153  0.1214
 4656W        W20125  13.132  10.140   0.631  0.3510 -0.1573  0.1685
 4657W        W20126  18.154  12.201   3.496  0.0441  0.1279  0.1673
 4658W        W20127   5.111   0.405  15.127 -0.0439  0.0180 -0.1565
 4659W        W20128   1.488  17.848   4.204  0.1405  0.0304  0.1225
 4660W        W20129   7.357  16.544  15.470 -0.2338  0.1538 -0.1284
 4661W        W20130  14.947  16.294  14.851 -0.2928 -0.0825  0.0420
 4662W        W20131  16.638   5.100   5.414  0.0439 -0.0873 -0.3213
 4663W        W20132   9.832  18.079  14.498  0.0011 -0.1682 -0.3061
 4664W        W20133   0.687  10.743  11.631  0.0650  0.0126 -0.1195
 4665W        W20134  14.103  13.503   1.993 -0.4103  0.0380 -0.0754
 4666W        W20135  13.444  12.905   2.876  0.4084 -0.1764 -0.2388
 4667W        W20136  17.172   4.314   4.455  0.0540  0.0033  0.1897
 4668W        W20137  10.049   7.321  12.075  0.4995  0.0277  0.0454
 4669W        W20138  11.751   2.988  13.467  0.2768  0.1281 -0.0540
 4670W        W20139  14.298   9.003  14.093  0.2147 -0.1742 -0.0496
 4671W        W20140   6.403  13.655   3.477  0.0105 -0.0064  0.0575
 4672W        W20141   6.552   5.853   3.362 -0.3006 -0.0352  0.0207
 4673W        W20142   4.160   7.502   3.940  0.2755  0.3828 -0.2815
 4674W        W20143   3.191   6.158   4.114 -0.0377 -0.2152  0.0414
 4675W        W20144   9.794   4.371  12.923  0.1761  0.1034 -0.0307
 4676W        W20145   8.904  10.089   1.319  0.0424 -0.0904 -0.2994
 4677W        W20146   5.392   9.793   3.560 -0.2373 -0.3451  0.0838
 4678W        W20147   0.992   9.286   4.224 -0.0997 -0.1477  0.2970
 4679W        W20148   6.253   6.991   9.759 -0.2520 -0.0108 -0.0967
 4680W        W20149   5.403   6.299  14.710 -0.1697  0.0013  0.1042
 4681W        W20150  11.875  16.528  10.998 -0.4100  0.0782 -0.0323
 4682W        W20151   0.902   9.267   0.183  0.2163 -0.2271  0.1727
 4683W        W20152  18.288   3.632   2.174 -0.2629  0.0744 -0.0285
 4684W        W20153  17.786  10.772   0.886  0.0766 -0.1370  0.2561
 4685W        W20154   7.197   2.694  15.897  0.0032  0.0975  0.2914
 4686W        W20155  17.489   0.440  12.356  0.2182  0.4209 -0.0431
 4687W        W20156  16.686   6.479   1.647  0.0437  0.0709 -0.1129
 4688W        W20157  17.711   6.959  12.934  0.2156 -0.2497 -0.1599
 4689W        W20158  10.475  11.246  11.774 -0.1966  0.0502  0.1172
 4690W        W20159   4.772  17.299   3.237  0.0749  0.1344  0.2887
 4691W        W20160   2.781  15.454   0.961  0.0753 -0.1775 -0.0322
 4692W        W20161   0.779   6.239  14.608 -0.0968 -0.1283  0.3351
 4693W        W20162   0.621   1.329   5.055 -0.1370 -0.2400 -0.1370
 4694W        W20163  12.466  12.782   1.879  0.0913 -0.0620  0.3606
 4695W        W20164  12.697  14.860   2.002  0.1424 -0.1172 -0.0944
 4696W        W20165  11.555  15.299   0.557  0.1503 -0.2174 -0.2174
 4697W        W20166   5.354  17.552  12.143  0.0712  0.1078  0.0536
 4698W        W20167  12.494   3.560  13.423 -0.2866  0.0258  0.5061
 4699W        W20168  14.309   4.408   2.168  0.0857  0.0394 -0.0588
 4700W        W20169  18.136  15.128   3.092  0.2390  0.3727  0.2681
 4701W        W20170   9.743  17.748   0.959 -0.0086  0.0666  0.2623
 4702W        W20171   6.043   1.786   3.359 -0.0801 -0.1075 -0.0044
 4703W        W20172   7.260   9.772  10.040 -0.2108  0.0512 -0.0123
 4704W        W20173   1.811   3.143  12.820 -0.2634 -0.1310 -0.1021
 4705W        W20174   7.501   2.925  11.846  0.2033  0.1224  0.0996
 4706W        W20175  10.617   8.011   4.802  0.1350 -0.0169  0.0122
 4707W        W20176  14.939  11.543  15.497  0.0323 -0.1288  0.0246
 4708W        W20177  14.578   5.003   2.766 -0.0209 -0.0671  0.2179
 4709W        W20178   5.546  12.909   2.743 -0.0871  0.1955  0.0497
 4710W        W20179   8.584  12.823   9.705  0.0028  0.1457  0.1031
 4711W        W20180   6.828   0.992  13.610  0.4193  0.0854 -0.0761
 4712W        W20181  18.336   1.471  12.421 -0.1097 -0.2286  0.0667
 4713W        W20182   3.613  13.995  14.271 -0.0503  0.0368 -0.2228
 4714W        W20183   4.494   0.129  11.407  0.0159 -0.1560 -0.1039
 4715W        W20184  13.015   3.514  13.349  0.0384  0.1003  0.0089
 4716W        W20185   3.130   8.125  14.776  0.2019  0.1959 -0.0721
 4717W        W20186   0.510  16.811   6.088  0.3836  0.0190  0.0762
 4718W        W20187   0.952  13.766   0.469  0.2933 -0.1661  0.1158
 4719W        W20188   0.482  17.372  14.460 -0.2018 -0.0791  0.1666
 4720W        W20189  18.389  10.098  12.954  0.0277 -0.2902  0.4147
 4721W        W20190   3.246   6.024   3.539  0.0606  0.2268  0.4681
 4722W        W20191  13.512  18.093   1.248 -0.0858  0.2044 -0.0441
 4723W        W20192   5.722  17.975  11.825 -0.1843 -0.4118  0.2883
 4724W        W20193   2.894   4.354   3.288  0.0007 -0.0616 -0.0236
 4725W        W20194   8.750   9.612   1.937  0.1827 -0.1168 -0.2560
 4726W        W20195  13.739   4.246   3.243 -0.1001 -0.1105  0.0216
 4727W        W20196   7.249  13.496  11.229  0.0580 -0.0994 -0.0191
 4728W        W20197   4.965   3.289   4.953  0.1981 -0.1054 -0.0579
 4729W        W20198  13.459  14.773  14.356  0.0996 -0.1985  0.0179
 4730W        W20199  15.011   4.543   4.752  0.0174  0.1213 -0.1792
 4731W        W20200  10.801  12.847  10.795 -0.2730  0.0991  0.0656
 4732W        W20201   0.702  13.181  12.343  0.0947  0.1556  0.2075
 4733W        W20202   1.298  10.545  15.863  0.0414 -0.1338 -0.1107
 4734W        W20203  12.650  10.623   0.603  0.1297  0.2958  0.1322
 4735W        W20204   1.276   6.219  15.707  0.0088  0.4246 -0.2086
 4736W        W20205   0.102   9.139   0.890  0.2950 -0.0758 -0.1675
 4737W        W20206   0.349  17.450  12.115 -0.0401  0.0085  0.2027
 4738W        W20207  17.961   5.354   4.726  0.0388 -0.1535  0.1612
 4739W        W20208   1.465   2.181   2.660 -0.1854  0.2022  0.2312
 4740W        W20209   4.919   8.643   4.756  0.5292  0.3854 -0.0406
 4741W        W20210  17.203   3.212  11.555 -0.2861  0.0860 -0.1799
 4742W        W20211   7.578   5.829  14.453  0.0630 -0.1153 -0.1801
 4743W        W20212  17.900   3.637   5.414  0.2022  0.1697 -0.0682
 4744W        W20213  11.166   1.740  15.637  0.1653  0.0456 -0.1816
 4745W        W20214   6.549   8.774   1.535 -0.0301 -0.0997 -0.3198
 4746W        W20215  17.615   9.854   3.958  0.1480 -0.0191  0.1089
 4747W        W20216  13.732  15.847  10.905 -0.2947  0.2998  0.0497
 4748W        W20217  13.556   2.234  12.647 -0.0655 -0.2633 -0.0741
 4749W        W20218   2.143   6.417  13.451 -0.4285 -0.3187  0.2043
 4750W        W20219  14.193   5.584   0.663 -0.0109  0.1875  0.1284
 4751W        W20220  11.055   7.410  15.647 -0.1436  0.0992 -0.0670
 4752W        W20221  12.665   2.696  13.231 -0.0492  0.0408 -0.0585
 4753W        W20222   8.841  10.946   4.569  0.3514  0.0252 -0.3602
 4754W        W20223  14.018   9.429  12.490 -0.1092  0.1953  0.1479
 4755W        W20224  17.551   4.841   0.708 -0.3291  0.0226 -0.1794
 4756W        W20225   3.391   1.910   5.924  0.0591  0.0607  0.0149
 4757W        W20226   6.692   1.105   4.892  0.1936  0.0736  0.3194
 4758W        W20227  10.511  10.879  13.756 -0.0747  0.1972  0.1907
 4759W        W20228   2.085   9.753   3.685  0.1397 -0.1785  0.2289
 4760W        W20229   3.004  16.592  14.307  0.0151 -0.1037 -0.2529
 4761W        W20230   1.917   7.582  14.084  0.0820 -0.1720 -0.2545
 4762W        W20231  11.603   8.003  11.004  0.0306  0.0491 -0.0098
 4763W        W20232  16.698  12.342   3.490 -0.3200  0.1474  0.0336
 4764W        W20233   4.158   4.924   0.708 -0.4547  0.3384 -0.0608
 4765W        W20234   7.262   3.909  12.576  0.1555 -0.1622  0.0983
 4766W        W20235  15.470  17.786   3.983  0.2665  0.4708 -0.1267
 4767W        W20236   7.699   3.878   4.787 -0.2039  0.3994  0.1345
 4768W        W20237  15.890   1.544   4.828  0.2905 -0.1815 -0.0008
 4769W        W20238   8.815   0.788   2.058 -0.1144 -0.0387 -0.2055
 4770W        W20239  10.374  10.973   0.781 -0.0803 -0.5128 -0.1227
 4771W        W20240   5.061   7.798   5.256  0.1012  0.1597 -0.1418
 4772W        W20241  10.135   3.760   3.497 -0.2652  0.0951 -0.1490
 4773W        W20242   3.729  10.883   2.670 -0.1257  0.0188 -0.0987
 4774W        W20243  14.699   0.803   0.182  0.1727 -0.2184 -0.0969
 4775W        W20244  18.294   8.927  13.281  0.3219  0.0179 -0.3385
 4776W        W20245   9.815   7.487  14.083  0.1207  0.1342  0.1248
 4777W        W20246   7.239   8.720   1.443  0.3968 -0.1321  0.1391
 4778W        W20247  10.355   2.780  13.382 -0.1041  0.1044  0.0813
 4779W        W20248  13.433  17.825  14.044 -0.0650  0.2200  0.1031
 4780W        W20249   5.950   3.787  12.657 -0.2485  0.0271 -0.0779
 4781W        W20250   9.428   7.514  15.179 -0.1366 -0.1277  0.0923
 4782W        W20251   1.639  18.028  13.237  0.1690  0.2929 -0.1715
 4783W        W20252   2.171   0.471   5.718  0.1163  0.2425  0.1520
 4784W        W20253   8.108   2.335  14.839  0.0372  0.1238  0.0876
 4785W        W20254  16.776   7.165  12.249  0.3400  0.0191  0.0257
 4786W        W20255   0.568   8.084  12.006 -0.0059  0.1124 -0.2959
 4787W        W20256   2.830  10.709  13.112 -0.0662  0.2310 -0.3092
 4788W        W20257  11.194   4.573  11.598  0.2992  0.4395  0.0374
 4789W        W20258   1.166   2.816   3.989 -0.0944  0.0146  0.2990
 4790W        W20259   8.639   5.683  12.163  0.2288  0.2135  0.0975
 4791W        W20260  13.422  11.632   4.755  0.2376  0.0595 -0.1069
 4792W        W20261  15.279  18.127   3.645 -0.0854 -0.1816 -0.0563
 4793W        W20262  11.687   0.212  10.864 -0.0572  0.1589  0.1450
 4794W        W20263   9.472   9.579  11.441 -0.0796  0.1770 -0.2973
 4795W        W20264  15.624   2.324   4.399  0.1607  0.3062 -0.0069
 4796W        W20265   4.588   4.722   5.888  0.0411  0.1729  0.0587
 4797W        W20266  17.946  14.771   2.301 -0.0474  0.3669 -0.0997
 4798W        W20267  16.341  12.024   4.399 -0.2049 -0.0174 -0.3373
 4799W        W20268   9.972   0.639   1.321 -0.1346 -0.0792  0.0792
 4800W        W20269  10.813  14.635  11.329  0.4074  0.2631 -0.0457
 4801W        W20270  12.019   5.555   0.625 -0.1311 -0.0830 -0.2892
 4802W        W20271  15.730   3.084   2.042 -0.2309 -0.1610 -0.0387
 4803W        W20272   5.520   4.212   2.808  0.0076 -0.1172  0.1151
 4804W        W20273  10.041   0.418   3.072 -0.2614 -0.1504  0.1831
 4805W        W20274  11.713   8.939   0.196  0.2749 -0.1031  0.4217
 4806W        W20275  15.691  11.021  11.335  0.2280 -0.0084 -0.1635
 4807W        W20276   1.487   8.254   0.280  0.2663  0.0811 -0.3171
 4808W        W20277   8.617   8.089  14.099 -0.2254  0.2615  0.1120
 4809W        W20278  17.035  17.238   3.432  0.2384  0.0091  0.1598
 4810W        W20279   8.757   7.892   0.356  0.0025  0.3444 -0.2618
 4811W        W20280  17.328  17.443   1.131 -0.2131  0.2073  0.1155
 4812W        W20281   6.824   6.789  13.731 -0.0388  0.2239  0.1639
 4813W        W20282  12.020   2.974   1.581  0.2061  0.1003  0.1494
 4814W        W20283  17.156   3.083   9.873  0.0363  0.1967 -0.0503
 4815W        W20284  12.298  15.380  11.251 -0.0673 -0.2622  0.2301
 4816W        W20285  16.560  11.423   1.895 -0.3746 -0.1082  0.1962
 4817W        W20286   3.808  15.928  15.251 -0.1666 -0.0940  0.0432
 4818W        W20287   1.358   6.073   2.288 -0.3655 -0.1681 -0.0910
 4819W        W20288   0.563   0.983   1.599  0.0117  0.3720 -0.3283
 4820W        W20289  13.432  12.251  13.538  0.2296  0.1839  0.1632
 4821W        W20290  17.100  17.705  11.486  0.0091  0.0566 -0.0178
 4822W        W20291   0.422  12.761   2.091 -0.0345  0.1405 -0.1160
 4823W        W20292  11.375  16.151   4.222 -0.0885 -0.0549  0.2030
 4824W        W20293  15.291  14.372  11.805  0.0765 -0.1130 -0.1049
 4825W        W20294   8.293   9.951  11.857  0.1927  0.0800  0.2288
 4826W        W20295  10.970  11.708   3.114  0.0100 -0.0075 -0.2006
 4827W        W20296   7.900   7.947   0.080 -0.1396 -0.0361  0.2876
 4828W        W20297  16.269   4.152   4.302 -0.0842  0.0199 -0.1903
 4829W        W20298  17.497   4.055  12.650  0.1631 -0.1608  0.2092
 4830W        W20299  18.403   8.134  12.631 -0.0102 -0.0117 -0.0853
 4831W        W20300   2.603   6.419  15.150 -0.4167  0.1529 -0.2610
 4832W        W20301   0.706   8.441  14.951 -0.0129  0.0482  0.3277
 4833W        W20302  10.573  15.148  12.145 -0.1119 -0.1037  0.1431
 4834W        W20303  15.649   2.782  15.310 -0.1171 -0.1382 -0.0604
 4835W        W20304   9.417  10.177   1.217 -0.1190  0.1666 -0.1198
 4836W        W20305   6.632   3.292  13.034 -0.0435 -0.1992  0.0276
 4837W        W20306  14.620   1.378   0.894  0.2648  0.0823 -0.1466
 4838W        W20307   8.788  11.889   1.748 -0.2773  0.1050 -0.0175
 4839W        W20308  17.972   9.488  15.735  0.1888  0.1108  0.1785
 4840W        W20309   2.314   5.669  12.908 -0.2496  0.2284 -0.0582
 4841W        W20310  11.131  16.807   4.880 -0.1441  0.2026 -0.1052
 4842W        W20311  15.918  13.966   1.588  0.0311  0.2528 -0.5010
 4843W        W20312  17.064  13.336  14.949  0.1020  0.2458  0.1105
 4844W        W20313   9.756   2.841   2.695 -0.0076 -0.1863  0.1015
 4845W        W20314   3.815   3.002  13.835 -0.3050  0.0923 -0.2337
 4846W        W20315  11.948   0.627  10.571 -0.0990  0.2640  0.0660
 4847W        W20316   3.443   3.890  14.982  0.0113  0.2101 -0.2595
 4848W        W20317  17.870  13.491  12.415  0.0098 -0.1693  0.1278
 4849W        W20318   4.854  17.155   4.213  0.0568  0.0476 -0.0481
 4850W        W20319   1.648   0.718  11.582  0.0895  0.1580 -0.0535
 4851W        W20320   0.135   0.276   3.624  0.4666  0.3166 -0.4501
 4852W        W20321   9.578   2.452   2.449 -0.0461 -0.2489  0.2381
 4853W        W20322  11.375   9.057   1.179 -0.0397 -0.0551 -0.0725
 4854W        W20323  14.601  18.264   0.262 -0.1996  0.3241 -0.0310
 4855W        W20324   1.488  10.444  13.187 -0.0364 -0.4208  0.0988
 4856W        W20325   6.454   2.121  12.570 -0.0124 -0.1715 -0.3760
 4857W        W20326  14.999  10.970   5.181  0.1266  0.1994 -0.1906
 4858W        W20327   2.309   1.419  13.041 -0.0091 -0.0125  0.1781
 4859W        W20328   9.470   8.167  15.723  0.0819  0.1425  0.0954
 4860W        W20329  10.716  10.546   0.466 -0.1648  0.3212 -0.3077
 4861W        W20330   2.947   8.826   3.105 -0.1654  0.0890  0.0583
 4862W        W20331   7.100   2.565   0.469  0.0744 -0.3167  0.2314
 4863W        W20332  11.370   0.173   2.697 -0.1048  0.0668 -0.1082
 4864W        W20333   9.671   0.025  13.473  0.1486 -0.0331  0.1226
 4865W        W20334  10.908   8.312  13.370  0.1772  0.0234 -0.2043
 4866W        W20335   2.125   1.406  12.155 -0.2379  0.2202 -0.1928
 4867W        W20336  14.102  16.319  15.776 -0.1737  0.0565 -0.1951
 4868W        W20337  14.090   2.957  10.776  0.0278  0.0620 -0.3014
 4869W        W20338   1.751   0.758   5.640  0.0897 -0.2226 -0.0089
 4870W        W20339  18.094  12.385  10.889  0.0253 -0.1568  0.0610
 4871W        W20340  18.025   6.607  13.527 -0.1920  0.2785 -0.1985
 4872W        W20341   1.515  12.031  12.362  0.2476 -0.3015 -0.2063
 4873W        W20342  12.116   1.986   3.427 -0.1603  0.1547  0.1170
 4874W        W20343  17.087  18.103   3.204  0.0148  0.1244 -0.0555
 4875W        W20344   9.949  17.963  13.604 -0.2943  0.1248 -0.0430
 4876W        W20345   3.389   3.985  10.413 -0.2155 -0.2241 -0.3115
 4877W        W20346  15.364   1.667  11.454 -0.1785 -0.0592  0.0098
 4878W        W20347  12.134   6.152   1.479  0.2086 -0.1174 -0.1638
 4879W        W20348  13.820   1.242  11.648 -0.3506  0.0699 -0.0159
 4880W        W20349   9.275   1.161   0.265 -0.1298  0.0080 -0.0191
 4881W        W20350   2.585  17.708   1.975  0.2598 -0.1625 -0.0316
 4882W        W20351  10.896  15.090   2.199  0.2894 -0.2928 -0.1848
 4883W        W20352   8.020   0.421  12.980  0.0342 -0.2402 -0.1135
 4884W        W20353  12.543   8.899   3.539  0.5321 -0.1573 -0.0324
 4885W        W20354  13.749   3.221   2.928 -0.1552  0.0059  0.1395
 4886W        W20355   9.330  15.893   1.395  0.1326  0.1016 -0.1734
 4887W        W20356  14.326   8.686   2.809  0.0931 -0.1578 -0.1382
 4888W        W20357   0.588  16.865   5.530 -0.0087  0.2805 -0.2442
 4889W        W20358   7.560   1.445   2.720 -0.0219 -0.1433  0.0122
 4890W        W20359  10.594   1.755   5.124  0.0080 -0.1569  0.0307
 4891W        W20360  15.853   0.718   3.364 -0.0628 -0.1484  0.0113
 4892W        W20361  11.391  18.130   3.890 -0.0718 -0.0444  0.4236
 4893W        W20362  15.823   7.685  11.498 -0.3687  0.1186  0.0089
 4894W        W20363   1.668  15.545   1.746  0.4323  0.1380  0.0958
 4895W        W20364   7.332   3.110   2.500 -0.0915  0.1429  0.2626
 4896W        W20365   4.781  15.986   2.666  0.0360 -0.0382 -0.5091
 4897W        W20366  15.771   6.104   5.149  0.3675 -0.0350  0.1179
 4898W        W20367   4.032   9.027  13.876 -0.2534 -0.1624 -0.0509
 4899W        W20368  16.972   3.139  15.728 -0.0216  0.0031 -0.1608
 4900W        W20369  12.693  17.124  11.324  0.2079 -0.1295 -0.4697
 4901W        W20370  12.241   3.754  11.579  0.0864  0.0808  0.0221
 4902W        W20371  14.834  15.370   1.012 -0.1022  0.0169  0.0905
 4903W        W20372   2.404   4.108   4.128 -0.1040 -0.2310  0.0090
 4904W        W20373   9.322  13.598   4.393 -0.1123  0.0741 -0.0379
 4905W        W20374  15.477  10.192   5.086  0.1226  0.0730  0.0215
 4906W        W20375   6.354  17.338   1.706 -0.0092  0.2004 -0.2498
 4907W        W20376   6.698   4.425   3.486 -0.1541 -0.1359  0.0981
 4908W        W20377  10.836   2.486  13.604  0.1604  0.0578 -0.1311
 4909W        W20378  15.201   8.093  14.501  0.2302  0.2430  0.0704
 4910W        W20379  16.298  11.533  15.435 -0.1695  0.0944  0.2726
 4911W        W20380   5.410   6.868  10.567 -0.0932 -0.0199 -0.2205
 4912W        W20381   9.784  12.961   5.393 -0.0753 -0.4333  0.0777
 4913W        W20382  17.074  10.773   0.313  0.2217  0.2772  0.1041
 4914W        W20383  13.082  17.279   1.363  0.2388 -0.1415 -0.1774
 4915W        W20384  17.329  16.829  15.892 -0.0541  0.3473 -0.1975
 4916W        W20385   6.738  15.089   1.037 -0.2146 -0.1455  0.2625
 4917W        W20386  11.866   3.562  12.097 -0.3199  0.0988  0.2167
 4918W        W20387  17.348   4.172   5.024 -0.2194  0.0356 -0.2974
 4919W        W20388  13.646   0.612   4.836 -0.4186 -0.2976  0.0238
 4920W        W20389  15.386  15.514  13.306  0.0283 -0.1697 -0.1123
 4921W        W20390  16.769  17.717   3.400 -0.1156 -0.0461 -0.2292
 4922W        W20391  13.452  16.121   1.467  0.1790  0.0648 -0.0727
 4923W        W20392  11.841   7.877  15.583  0.3325 -0.1464  0.0083
 4924W        W20393  11.315   0.714  11.291  0.0881 -0.1741  0.1457
 4925W        W20394  11.178  12.684   5.916  0.0468  0.1000  0.1903
 4926W        W20395  17.886  10.720   5.744  0.5196  0.0725  0.0607
 4927W        W20396   9.370   2.429   0.829 -0.1636 -0.2053  0.1067
 4928W        W20397  14.285  10.175  13.124 -0.0054 -0.1630  0.1587
 4929W        W20398   5.542   4.828  12.974 -0.1103  0.1553 -0.0538
 4930W        W20399  17.878   5.955   3.370  0.4774 -0.1838 -0.0505
 4931W        W20400   5.047   9.322  15.304 -0.0986  0.0141 -0.1397
 4932W        W20401   8.452  12.369  11.791  0.0135 -0.3751 -0.0534
 4933W        W20402   2.651   7.667   9.917 -0.1357  0.1005 -0.3772
 4934W        W20403   7.934   2.270  15.829  0.0271 -0.1461 -0.1198
 4935W        W20404   7.758   6.079   0.070 -0.0359 -0.1230 -0.0767
 4936W        W20405   0.520   7.294  11.707 -0.2099  0.1509 -0.2882
 4937W        W20406   3.616  17.562  11.842 -0.1091 -0.0713  0.1588
 4938W        W20407   6.259  15.022   0.372  0.2194 -0.1005  0.0573
 4939W        W20408   2.086   6.586  15.106  0.0223  0.0619  0.0774
 4940W        W20409  11.343  17.638   4.100  0.2726 -0.0355  0.1887
 4941W        W20410   4.437  14.776   6.175  0.0095  0.3127  0.0835
 4942W        W20411  16.199  17.447  13.939  0.0060 -0.1432 -0.0192
 4943W        W20412  11.407  16.938  14.707  0.1579 -0.2489 -0.1549
 4944W        W20413  10.879   8.962  15.348  0.0659 -0.0107 -0.1759
 4945W        W20414   6.633   2.013   4.640  0.1920 -0.4112  0.0458
 4946W        W20415  10.199   7.901   5.037 -0.2783  0.2212  0.2967
 4947W        W20416   9.425  10.738   5.743 -0.1658 -0.1448 -0.1718
 4948W        W20417   9.085   2.269   2.214 -0.3466 -0.0157  0.0134
 4949W        W20418   7.211  15.911  13.857  0.2415 -0.1397  0.3547
 4950W        W20419  18.301   1.005   1.234 -0.1205 -0.0486  0.1960
 4951W        W20420  14.585   9.081  14.970  0.2647 -0.3470  0.0325
 4952W        W20421  12.366   8.780   1.288 -0.2075  0.1331  0.1018
 4953W        W20422  14.223  16.835  14.725 -0.4750  0.2704  0.2558
 4954W        W20423  11.978   0.335   4.323 -0.0992  0.2293  0.0344
 4955W        W20424  15.227   5.456  12.216 -0.1079  0.3037  0.3004
 4956W        W20425   3.843   1.346  12.338 -0.3285  0.0351  0.1798
 4957W        W20426   5.962   3.832  10.976  0.2607  0.0498  0.2035
 4958W        W20427  13.714   0.065  15.841  0.0063 -0.2403 -0.0542
 4959W        W20428   0.791   5.006   3.682  0.0164 -0.0488 -0.0922
 4960W        W20429  14.778  11.029  14.603 -0.1268 -0.0540 -0.0501
 4961W        W20430   0.258   2.748  10.074 -0.1327 -0.2054 -0.1013
 4962W        W20431   1.883  11.930  14.727  0.0912  0.1194  0.1252
 4963W        W20432   3.389   2.692  13.322 -0.3137  0.0673 -0.0353
 4964W        W20433   0.205   5.178  14.976 -0.1041 -0.0409  0.0822
 4965W        W20434  10.104  13.703   0.824 -0.3443 -0.0237 -0.0111
 4966W        W20435  12.501   1.084   3.477  0.0414  0.0984 -0.4158
 4967W        W20436   7.913  10.753   4.491 -0.1613  0.2637 -0.2448
 4968W        W20437  16.260  14.503   0.040  0.2193  0.0365  0.2282
 4969W        W20438  15.440   9.756  10.982 -0.0544 -0.2498  0.0598
 4970W        W20439   4.555   7.633  11.588  0.0301 -0.1030 -0.2781
 4971W        W20440   5.308  11.465  15.673 -0.0025 -0.2612  0.1696
 4972W        W20441   6.704  15.991   0.068  0.0983  0.0937 -0.1317
 4973W        W20442  12.340   2.902   4.669 -0.1557  0.2026  0.3081
 4974W        W20443   1.261  13.059   2.288  0.1225  0.1178 -0.2647
 4975W        W20444  15.039  15.700   1.413 -0.0111 -0.1043  0.1387
 4976W        W20445   8.925  11.832  12.434  0.0607  0.2024 -0.1467
 4977W        W20446   6.398   1.973   5.142 -0.0266  0.0152  0.0247
 4978W        W20447   0.773   9.345  15.589 -0.0776 -0.0441 -0.0653
 4979W        W20448   2.179   6.138  12.924 -0.3947 -0.1676  0.0248
 4980W        W20449  16.124  13.059  14.734 -0.2766 -0.3161 -0.1879
 4981W        W20450   8.501  15.736   2.027 -0.0743  0.1063 -0.0720
 4982W        W20451   8.261   0.602  15.434  0.1186 -0.0215 -0.1420
 4983W        W20452   3.260   3.661  15.536  0.3758  0.1032  0.1197
 4984W        W20453  12.403  11.393  11.870  0.0276 -0.4663 -0.0479
 4985W        W20454  12.885  10.736   6.091 -0.3137 -0.2405  0.1170
 4986W        W20455  13.631  17.892   3.052 -0.2552 -0.0731  0.0930
 4987W        W20456  17.043   9.989   0.935  0.2832  0.1232  0.3067
 4988W        W20457   4.107   1.699   4.042  0.0012  0.2136 -0.0087
 4989W        W20458  10.107   0.332  13.796  0.2216  0.2061  0.2067
 4990W        W20459  10.505   6.609  14.103  0.1808  0.3749 -0.0509
 4991W        W20460   2.259  14.509  14.178 -0.2182 -0.1711 -0.0697
 4992W        W20461   2.956   7.556   0.749  0.1869 -0.1939 -0.1459
 4993W        W20462  14.274  17.309  11.830  0.0144 -0.0024  0.3263
 4994W        W20463  17.113   0.481   3.818 -0.0576  0.1087 -0.1479
 4995W        W20464   6.011   3.914  14.868  0.0952 -0.0689 -0.0109
 4996W        W20465  11.472  13.044  15.318 -0.0395 -0.0892  0.0303
 4997W        W20466   6.383   7.752  13.640  0.0301  0.0072  0.2863
 4998W        W20467   3.429   5.447   1.880 -0.1493 -0.0648 -0.0704
 4999W        W20468  16.991   8.562   4.986  0.1503 -0.0206  0.2315
 5000W        W20469   6.072  12.112   1.965 -0.1142 -0.1227  0.1161
 5001W        W20470  12.094   6.496   3.938 -0.2100  0.0422 -0.1401
 5002W        W20471  16.813  12.236   0.859  0.0945 -0.0529  0.0668
 5003W        W20472  13.837   9.088  13.837 -0.1586  0.1828  0.1187
 5004W        W20473  11.046  12.786   3.737  0.3891 -0.2400  0.2009
 5005W        W20474  16.068   0.628   1.592 -0.1191 -0.0574 -0.0214
 5006W        W20475   8.563  15.935  14.962 -0.4049  0.1006 -0.1504
 5007W        W20476  16.452   2.992  14.674 -0.0096 -0.1515 -0.1876
 5008W        W20477  15.452   6.766  13.641 -0.1821 -0.1624  0.1542
 5009W        W20478   9.237  16.433   5.700  0.0407  0.2821  0.2524
 5010W        W20479  12.061   7.015  13.127 -0.1786 -0.0865 -0.1274
 5011W        W20480   0.433  14.685  13.755 -0.0596  0.2300 -0.0702
 5012W        W20481   7.181  12.483   3.008  0.1658 -0.0206 -0.1399
 5013W        W20482  11.958   7.685   0.224 -0.1439 -0.0987 -0.4951
 5014W        W20483  13.198  18.010  11.392  0.2570 -0.0301 -0.1320
 5015W        W20484  17.733  17.970  12.631  0.0342  0.1602 -0.0031
 5016W        W20485  11.948   8.355  15.560  0.0046  0.1700 -0.0787
 5017W        W20486   4.588  11.317  15.653  0.1718  0.2267  0.2289
 5018W        W20487   2.866   7.698  14.066  0.2160  0.0201 -0.3300
 5019W        W20488  16.100  10.157  13.529 -0.1737  0.2647 -0.0993
 5020W        W20489   4.342   9.650   2.362 -0.2902  0.5992 -0.0728
 5021W        W20490  11.381   0.076   0.799  0.1073 -0.0182  0.1245
 5022W        W20491   9.631   5.169   2.788 -0.4403 -0.2044  0.0309
 5023W        W20492   8.727   3.016   4.598  0.0127 -0.0961  0.1704
 5024W        W20493  10.435  18.038  12.933  0.0040 -0.2028 -0.1863
 5025W        W20494   1.282   1.824  13.260  0.1257  0.0690  0.1320
 5026W        W20495  12.121  14.661   2.121 -0.2175  0.2388 -0.1507
 5027W        W20496  13.949   7.734   5.097  0.0054  0.0687 -0.2432
 5028W        W20497   4.599   7.937  12.717  0.0850 -0.3139 -0.0861
 5029W        W20498  17.314   4.777   0.058 -0.0564 -0.1957 -0.1838
 5030W        W20499   7.713   6.492  13.886  0.0880  0.1106  0.3995
 5031W        W20500   3.201   3.611  13.360 -0.1233  0.0267 -0.2315
 5032W        W20501   4.230   3.386  15.453  0.0684 -0.0568  0.5514
 5033W        W20502   6.322   8.171  12.048  0.0471  0.0758  0.0592
 5034W        W20503   5.113  12.116  11.109  0.1137 -0.1415 -0.0231
 5035W        W20504   1.748  14.562  14.135  0.1308  0.0572  0.0606
 5036W        W20505   7.663  13.794  14.494  0.0421  0.0246  0.1419
 5037W        W20506  12.920   8.324   9.768 -0.1747 -0.1482  0.0306
 5038W        W20507   5.360  11.004  12.939 -0.2811  0.3061 -0.0616
 5039W        W20508  16.218   1.009   2.714 -0.0271  0.0578 -0.1982
 5040W        W20509   4.197   3.772  12.259  0.0921  0.3870  0.3191
 5041W        W20510  17.691   9.448  12.914 -0.0660 -0.1860  0.2176
 5042W        W20511   4.936   5.824  15.131 -0.1809  0.1199  0.0851
 5043W        W20512   6.504  17.841   5.123 -0.2800  0.2450  0.1687
 5044W        W20513   9.400   8.523   2.587 -0.1609 -0.1446  0.0248
 5045W        W20514   5.999   4.552   1.232  0.0625 -0.1420  0.0195
 5046W        W20515   1.115   4.370   0.570 -0.1743  0.0418  0.1716
 5047W        W20516  10.235  14.085  14.108  0.1087 -0.0984 -0.0803
 5048W        W20517  10.817   0.384   0.088  0.0699 -0.2584 -0.1405
 5049W        W20518  16.560  15.462   4.869  0.1783 -0.2688 -0.6106
 5050W        W20519   7.866  12.534  12.581  0.2179 -0.1915  0.2237
 5051W        W20520  16.311  12.211   9.786 -0.2323 -0.1582  0.1486
 5052W        W20521   1.693   5.970   0.876  0.3465 -0.1976  0.2992
 5053W        W20522   7.378   2.652  11.451  0.0869  0.4175 -0.2249
 5054W        W20523   9.103  15.309   4.846 -0.2052  0.2979  0.1682
 5055W        W20524  18.245  15.389  13.644 -0.0958  0.0117 -0.0661
 5056W        W20525  12.239  15.798  11.524 -0.0047 -0.1279 -0.1500
 5057W        W20526  12.998   8.993   2.034 -0.0600  0.0032 -0.0654
 5058W        W20527   4.237   0.311  13.678  0.3485 -0.2231  0.0882
 5059W        W20528   3.230  17.402  13.690  0.0919 -0.2845  0.1629
 5060W        W20529  10.710  16.591  15.431 -0.2665 -0.2209  0.1004
 5061W        W20530  17.724   1.343   0.561 -0.0347 -0.1680  0.0234
 5062W        W20531   0.185   8.769  10.888  0.3041 -0.1851 -0.1732
 5063W        W20532  13.120   0.302  13.400 -0.1980 -0.0131  0.1157
 5064W        W20533   6.781   6.125  12.427 -0.1564 -0.1325 -0.3623
 5065W        W20534  11.037   3.052  15.520  0.2904 -0.0254  0.0639
 5066W        W20535   4.885   9.166   4.618 -0.0156 -0.1160 -0.0090
 5067W        W20536   1.305  11.363   3.354  0.0152  0.2872  0.2363
 5068W        W20537   2.829   9.610  11.060 -0.0174 -0.0128  0.2255
 5069W        W20538  15.061  10.546   0.762 -0.1223 -0.1475  0.2723
 5070W        W20539   4.000  15.536   1.141 -0.0628 -0.0583 -0.0491
 5071W        W20540   6.826  13.908   4.452  0.2206  0.0675 -0.2563
 5072W        W20541   7.612  13.364   4.774  0.0976  0.1803  0.0096
 5073W        W20542  12.598   3.722  12.687 -0.2260 -0.1737 -0.1056
 5074W        W20543  17.811  16.821   4.275  0.0031  0.0751  0.0793
 5075W        W20544   1.933  17.202  15.216 -0.2311 -0.0415  0.1618
 5076W        W20545   7.186  14.351   0.892 -0.0402  0.0895  0.0373
 5077W        W20546  17.448  12.755   9.576  0.0823  0.1139 -0.1131
 5078W        W20547   9.952  13.373   0.420  0.2135 -0.2143  0.0274
 5079W        W20548  14.821   6.786  11.291 -0.3102 -0.0280  0.3660
 5080W        W20549  14.765   3.835   2.583 -0.2591  0.2366 -0.2047
 5081W        W20550  14.068  15.093   4.717  0.0445 -0.0073 -0.0904
 5082W        W20551  15.660   7.132  15.407 -0.0316 -0.0727  0.1806
 5083W        W20552   9.740   8.292  13.927  0.1789  0.0326  0.0176
 5084W        W20553  11.237   4.936   2.437 -0.4230 -0.1202  0.1599
 5085W        W20554   0.031   5.290   3.673 -0.1692  0.0122  0.1700
 5086W        W20555  13.211  16.889   3.670  0.0210  0.0447  0.0825
 5087W        W20556   4.924   0.980   0.655  0.0495  0.2569  0.1214
 5088W        W20557   9.948  11.889  13.496 -0.0056  0.4801  0.3906
 5089W        W20558   0.285   1.374   3.586 -0.1154  0.1012  0.1006
 5090W        W20559   3.567  15.697   2.185  0.0138 -0.1527 -0.1142
 5091W        W20560  14.194   9.885   4.567 -0.1471 -0.0763 -0.0681
 5092W        W20561  11.853  13.208   0.374  0.1350 -0.0746  0.1993
 5093W        W20562   1.575  11.798   3.460  0.0066  0.3813 -0.1732
 5094W        W20563  11.671  16.705  13.470  0.0167  0.0505 -0.2393
 5095W        W20564   1.008   6.240   2.637 -0.0438 -0.0617 -0.0094
 5096W        W20565   9.364   1.946   2.644 -0.1671  0.1617  0.0794
 5097W        W20566  12.282  11.099  12.661 -0.0904 -0.2426 -0.0088
 5098W        W20567   2.955   3.407   3.713 -0.0449  0.0732  0.0315
 5099W        W20568   5.973   6.516   1.297 -0.2148  0.3279 -0.1357
 5100W        W20569  17.794  17.525   1.064 -0.2578 -0.2666 -0.0686
 5101W        W20570   5.670   7.301  11.368  0.0906 -0.2243 -0.2184
 5102W        W20571  12.487  16.066   1.407 -0.1559 -0.0766 -0.0240
 5103W        W20572   9.533  18.345  14.864  0.0182  0.0995 -0.1590
 5104W        W20573  14.093   9.277  11.152 -0.1712  0.0792 -0.0554
 5105W        W20574   6.216  16.469  11.949  0.1064  0.0782 -0.1047
 5106W        W20575   5.056   3.137  12.434  0.1070  0.1100 -0.2449
 5107W        W20576  16.336   0.819  13.340  0.1610 -0.1808 -0.1486
 5108W        W20577   6.576  11.375   3.976 -0.1129 -0.1595  0.2032
 5109W        W20578   3.493   6.937  11.371  0.2352  0.1426 -0.1123
 5110W        W20579  15.059   2.517   2.873 -0.1805 -0.0110  0.0557
 5111W        W20580  14.787  16.976  12.197  0.0396  0.0096 -0.1272
 5112W        W20581  13.808   8.429   3.990 -0.0323 -0.1151  0.1493
 5113W        W20582   5.505  18.055  14.116  0.1966  0.0462  0.2216
 5114W        W20583   3.757   7.720  12.072  0.4587  0.0326 -0.0101
 5115W        W20584   2.271  16.678  14.800  0.1482 -0.0075 -0.0384
 5116W        W20585   4.393  13.553   2.811 -0.0975 -0.1006 -0.0746
 5117W        W20586  17.934  16.879  13.067  0.0941 -0.0884  0.3996
 5118W        W20587  11.819   1.788  13.184 -0.0269  0.1185  0.1159
 5119W        W20588  16.308  17.443  13.180 -0.0251 -0.0782 -0.2805
 5120W        W20589  17.321   8.481   2.332 -0.2018 -0.0907 -0.0303
 5121W        W20590  11.195   9.992  13.683  0.5967  0.0566 -0.2871
 5122W        W20591  11.594  12.791   0.229  0.0383 -0.0559 -0.4092
 5123W        W20592  10.475   9.981   0.488  0.1751  0.0006  0.0066
 5124W        W20593   7.773  16.927   1.686 -0.1893 -0.0606 -0.0672
 5125W        W20594   5.782   9.778   2.260 -0.1643 -0.0626 -0.1232
 5126W        W20595  10.116  13.419   3.375  0.0054  0.0041  0.1452
 5127W        W20596   2.679  13.066   4.078  0.1718  0.2340  0.1111
 5128W        W20597  11.404  13.903  13.389 -0.0508 -0.0075  0.1811
 5129W        W20598   7.024   4.869   3.427 -0.1150  0.1502 -0.0562
 5130W        W20599   5.478   0.820   3.339  0.0599  0.1860  0.1097
 5131W        W20600  14.458   6.366  11.484  0.0738 -0.0149  0.1200
 5132W        W20601   3.959   6.673   1.430 -0.1586  0.1402  0.0547
 5133W        W20602   6.742  16.670   4.855  0.0635  0.1624  0.1330
 5134W        W20603  15.829  11.801   4.295  0.1211 -0.0528  0.1087
 5135W        W20604   1.322  16.746   1.719 -0.1019  0.1589  0.0525
 5136W        W20605   5.216  13.596   3.210  0.1462 -0.0225 -0.1649
 5137W        W20606   5.109   6.925  13.611 -0.2295  0.1898 -0.0148
 5138W        W20607  16.144   0.682  14.737  0.1010  0.1403  0.2007
 5139W        W20608   6.149   6.677  10.778 -0.2368  0.1635  0.1437
 5140W        W20609  16.529   7.415  14.080  0.0577  0.3289 -0.0774
 5141W        W20610   4.041   8.252   3.512 -0.2780  0.0225 -0.1495
 5142W        W20611  17.891  11.282   3.751 -0.1181  0.3110 -0.2106
 5143W        W20612  16.453  11.018  14.544 -0.1890 -0.1317 -0.2554
 5144W        W20613   5.253  14.450   4.606  0.1678  0.1370 -0.0264
 5145W        W20614   6.892   5.637   3.726  0.0945 -0.3924 -0.1343
 5146W        W20615   2.822  15.027   1.281 -0.1579 -0.0157 -0.2086
 5147W        W20616  10.717   5.152   1.848 -0.0398 -0.0451  0.0779
 5148W        W20617  16.800   4.790   1.148 -0.0927 -0.1900  0.1013
 5149W        W20618  18.374  11.808   3.096 -0.1160 -0.2829  0.1023
 5150W        W20619  15.494  16.769   0.383 -0.0114  0.1657 -0.2187
 5151W        W20620   5.499  12.018   4.023  0.0119 -0.0531 -0.1932
 5152W        W20621   3.533   5.737   4.916 -0.1309  0.1032  0.4669
 5153W        W20622  16.429   4.364   1.066  0.1717 -0.0745 -0.1909
 5154W        W20623   3.888  10.875  11.890  0.4060  0.1428  0.3853
 5155W        W20624  16.477  17.463  15.236 -0.0450 -0.2909  0.0960
 5156W        W20625   9.332  17.748   4.968 -0.1224 -0.1781  0.0284
 5157W        W20626   7.899   5.731  15.597  0.0706  0.0878 -0.1928
 5158W        W20627   3.270  13.848  13.941  0.0698 -0.2824  0.1781
 5159W        W20628  15.943   8.863  12.696  0.1395  0.2677  0.4334
 5160W        W20629  13.743  16.202   0.806  0.1262  0.0841  0.2254
 5161W        W20630   6.215  12.928  12.479  0.4045 -0.2212 -0.4530
 5162W        W20631   6.772  11.659  13.675  0.0905  0.0644 -0.0932
 5163W        W20632  12.051  15.816   1.292 -0.2549  0.1440 -0.2778
 5164W        W20633  18.138  12.388  11.441  0.1539 -0.2096 -0.0900
 5165W        W20634  12.940   5.256   9.645 -0.2198 -0.0280  0.0169
 5166W        W20635  15.838  15.385  12.487  0.0865 -0.5352  0.0989
 5167W        W20636   1.359  15.294  13.227 -0.0258  0.0176  0.0102
 5168W        W20637   9.787  10.252  15.907  0.1245 -0.0563  0.2033
 5169W        W20638  17.042   4.561   0.405  0.0657 -0.0777  0.0465
 5170W        W20639  13.012  12.003   3.601 -0.1093  0.0681 -0.0043
 5171W        W20640   7.650   4.464  14.482 -0.0032 -0.0932  0.0413
 5172W        W20641   5.557  18.273  13.712 -0.0608 -0.2501 -0.1121
 5173W        W20642  17.787  18.044   1.831  0.0368 -0.0910  0.0569
 5174W        W20643  16.380   6.755  14.742  0.0676 -0.3585  0.0112
 5175W        W20644  11.798   4.073  12.003 -0.0618  0.2114  0.0136
 5176W        W20645  10.578  16.270  12.293 -0.3390 -0.2089 -0.0138
 5177W        W20646  16.570   7.793  13.077 -0.0611 -0.0196 -0.1609
 5178W        W20647   1.760   7.809   4.566 -0.0090 -0.0798  0.2165
 5179W        W20648  17.155  15.828   4.659  0.1193  0.0931  0.0835
 5180W        W20649   9.263   2.395   4.614  0.1822 -0.1574  0.2261
 5181W        W20650  17.342  11.637   1.343  0.3645  0.3166  0.1883
 5182W        W20651   6.286  14.089  13.800 -0.0761 -0.4761 -0.4456
 5183W        W20652  11.843  13.969  14.470 -0.0262  0.3760 -0.0097
 5184W        W20653   9.654  14.247  12.010  0.2693 -0.2174 -0.0328
 5185W        W20654  16.358   2.670  13.095 -0.1925  0.0030  0.3478
 5186W        W20655   0.870   1.844  11.939 -0.4520 -0.3364 -0.0027
 5187W        W20656   1.615   5.248   4.147  0.1808 -0.1369  0.0347
 5188W        W20657  12.466  11.548   2.136 -0.1617  0.0500  0.0536
 5189W        W20658   7.139   5.165   4.333  0.4451 -0.0531  0.0817
 5190W        W20659   1.107  12.982  15.636  0.1823  0.2225 -0.1088
 5191W        W20660   2.432  13.233   1.537 -0.0814  0.0438 -0.2142
 5192W        W20661   6.641   3.145  14.398 -0.1269  0.1841  0.1085
 5193W        W20662   6.877  12.428  13.073  0.0869  0.1459  0.0260
 5194W        W20663  11.844  18.351  11.762 -0.0772  0.5041  0.1746
 5195W        W20664  16.341   3.557   4.931 -0.1057  0.1558  0.1550
 5196W        W20665  13.164  13.740  12.293  0.2678 -0.0091  0.0005
 5197W        W20666  13.440   0.652  15.790 -0.0650  0.0778  0.2333
 5198W        W20667   1.873  13.897  11.868  0.0685  0.0737 -0.1591
 5199W        W20668   5.821  13.478   3.809  0.1074  0.0379 -0.3551
 5200W        W20669   9.026   1.283  15.326 -0.3003  0.1264  0.2677
 5201W        W20670  10.597  10.528  13.136  0.0003 -0.0600 -0.1279
 5202W        W20671   8.211  10.378  14.318  0.1201 -0.0215  0.0108
 5203W        W20672   3.171   7.129   0.628  0.2036  0.0881 -0.4509
 5204W        W20673   8.969  12.194   3.516 -0.2914  0.0932  0.0178
 5205W        W20674  13.511   3.306   2.469 -0.1653 -0.0930  0.0208
 5206W        W20675  16.955  14.606  13.324  0.2846 -0.0115 -0.3213
 5207W        W20676   5.550  14.356   2.628  0.2942 -0.3024 -0.2445
 5208W        W20677   7.984  16.656  12.389 -0.2147 -0.1347 -0.2601
 5209W        W20678   1.641   8.546  14.179 -0.1022  0.0899  0.0943
 5210W        W20679   2.040   0.471  13.728  0.0555  0.2772 -0.1055
 5211W        W20680  16.222  17.980  15.360 -0.1108  0.0288  0.0597
 5212W        W20681   1.453   7.169   1.474 -0.3731 -0.1087 -0.1819
 5213W        W20682  13.720   5.371   0.751  0.4476  0.0489 -0.1056
 5214W        W20683   4.375  17.679  15.400 -0.4746 -0.1766 -0.0263
 5215W        W20684   9.929   1.309  14.706  0.1637 -0.1044 -0.0116
 5216W        W20685  16.466   1.781   3.956  0.3499  0.2581 -0.0604
 5217W        W20686   6.986  11.627  15.872  0.2985  0.2448 -0.0015
 5218W        W20687   6.651   5.146  15.394 -0.0595  0.0732 -0.3958
 5219W        W20688  14.173   9.770   0.581  0.0994  0.1266 -0.1600
 5220W        W20689  15.161   3.748  15.874  0.3968 -0.2310 -0.2895
 5221W        W20690  16.068   5.054   3.578 -0.3635  0.4878 -0.0949
 5222W        W20691   7.603   9.108   2.143  0.0898  0.1814  0.1441
 5223W        W20692   8.820   8.404   3.237  0.3736  0.1399 -0.0254
 5224W        W20693  10.620  14.446   2.597 -0.0265 -0.0115  0.0508
 5225W        W20694  10.942   4.620  10.864 -0.0904 -0.2685  0.3399
 5226W        W20695  15.105   9.570  10.636  0.1277 -0.0600  0.0364
 5227W        W20696  11.419   8.587   1.003  0.0150 -0.0607 -0.0880
 5228W        W20697   7.092   3.224  11.887  0.0425  0.1753 -0.1374
 5229W        W20698  15.289   3.996  13.942  0.5809  0.0259  0.3018
 5230W        W20699   7.213  17.463  12.227 -0.1610 -0.3227 -0.3959
 5231W        W20700   8.669  16.640   4.417  0.1986  0.0336  0.1690
 5232W        W20701   7.632   5.991   0.758 -0.0723 -0.1441  0.2022
 5233W        W20702   1.898   4.887  10.449  0.1572 -0.0950  0.0988
 5234W        W20703   2.247  11.420  13.343 -0.1146  0.0271  0.2614
 5235W        W20704   2.167  18.130   3.089  0.1837 -0.0378 -0.0619
 5236W        W20705   7.621  13.018   0.341 -0.0601  0.0594  0.0501
 5237W        W20706   1.340  10.357  14.362 -0.2271 -0.0283  0.4108
 5238W        W20707  11.739  11.911   5.879  0.0372 -0.1866 -0.2383
 5239W        W20708   9.779  10.663  14.526 -0.1943 -0.0286  0.0022
 5240W        W20709  13.599   8.927   5.695  0.2254  0.2203 -0.1318
 5241W        W20710  18.039  11.956  12.296  0.3783  0.0279  0.1256
 5242W        W20711   4.204  11.511   5.714  0.2623  0.1220 -0.0167
 5243W        W20712   9.430  16.939   1.374  0.1048  0.0332  0.1048
 5244W        W20713   4.786  11.473   3.544 -0.2571  0.1070  0.2558
 5245W        W20714   1.860  12.142   2.953 -0.1876 -0.1817 -0.0781
 5246W        W20715   6.291  10.274   0.163 -0.2005 -0.1983  0.0897
 5247W        W20716  13.169  16.616  13.842 -0.3012 -0.2902 -0.0620
 5248W        W20717  11.328  10.200   2.651 -0.0164 -0.0855  0.0134
 5249W        W20718   2.093  12.378   0.620  0.1002 -0.0371 -0.0536
 5250W        W20719  15.201   0.706   0.990 -0.0083  0.1564  0.1048
 5251W        W20720   5.319   3.023   4.471  0.0865 -0.2659 -0.2100
 5252W        W20721   9.413  10.062   3.635  0.0135  0.0065  0.0688
 5253W        W20722   2.654  13.775   0.249  0.2246 -0.1742 -0.0974
 5254W        W20723  14.740  18.417   4.943  0.0401 -0.1563  0.0324
 5255W        W20724   0.478  16.621   3.263  0.0771  0.0121  0.3631
 5256W        W20725   7.688  17.409  14.589  0.2783  0.0808  0.0221
 5257W        W20726  11.680   4.923  12.353  0.2337  0.0829  0.4983
 5258W        W20727  14.204   4.107   0.267 -0.0627  0.1930 -0.1305
 5259W        W20728   5.727  11.920   0.358  0.2202 -0.2557  0.0167
 5260W        W20729  16.492   4.742   0.202  0.2370  0.0734  0.1212
 5261W        W20730   9.640  11.583   2.619 -0.4240  0.1296  0.2082
 5262W        W20731   0.140  10.740   2.817 -0.0184 -0.0036 -0.0888
 5263W        W20732   7.639   6.380  14.552  0.1231 -0.3045  0.0351
 5264W        W20733  17.994  17.394  15.419 -0.1018 -0.0695  0.0179
 5265W        W20734   3.259   0.754   1.122  0.2989 -0.0713 -0.3116
 5266W        W20735  12.022  16.442   2.059  0.0284 -0.4460 -0.0073
 5267W        W20736  11.216   7.566  13.728 -0.2298 -0.1504  0.0653
 5268W        W20737   4.492  16.145   1.136  0.0047 -0.0364 -0.2378
 5269W        W20738  13.048   8.216  11.549 -0.1684  0.2598  0.1982
 5270W        W20739   5.704   4.230  15.261 -0.3149  0.0167 -0.1592
 5271W        W20740   3.966  16.390  11.594  0.1316 -0.0064 -0.1117
 5272W        W20741   0.368   2.735  12.057 -0.0156 -0.3968  0.0059
 5273W        W20742   9.951   4.697  15.222 -0.1028 -0.2333 -0.0455
 5274W        W20743   7.656  10.561  10.959  0.0515  0.2626  0.4215
 5275W        W20744   0.149   5.961   1.542  0.1114 -0.4111 -0.2659
 5276W        W20745   0.792  15.935  14.343  0.0703  0.1175 -0.0417
 5277W        W20746   4.682  14.767   2.646 -0.1278  0.1933  0.0153
 5278W        W20747   1.417  11.675   0.412  0.2301 -0.0313  0.1409
 5279W        W20748  15.573   4.577   0.357  0.1058 -0.0235  0.3462
 5280W        W20749  13.681   1.112   4.906  0.0801 -0.0629 -0.2566
 5281W        W20750   0.410  17.484   0.631 -0.0535  0.1683 -0.3636
 5282W        W20751   5.047  15.575   0.730  0.0184  0.3707  0.1982
 5283W        W20752  14.718   4.698   0.679  0.3778 -0.0652 -0.1022
 5284W        W20753  13.625   4.485  13.414 -0.2379  0.0538  0.3347
 5285W        W20754  14.378   7.772   3.297  0.0592 -0.0326  0.0870
 5286W        W20755   7.523  14.959   4.206 -0.0565 -0.4362 -0.0558
 5287W        W20756   8.878  15.813  11.286 -0.3013 -0.1281  0.0810
 5288W        W20757  12.739  14.331   2.443 -0.1083 -0.0443 -0.1695
 5289W        W20758   7.992  16.532   0.130 -0.2996 -0.0708 -0.1069
 5290W        W20759  14.048  13.802  12.503 -0.0758 -0.3057 -0.1550
 5291W        W20760   5.115  14.351   1.673 -0.1385  0.0329 -0.2267
 5292W        W20761   1.211  17.139   5.173  0.0315  0.1855 -0.1838
 5293W        W20762   9.518  10.894  13.426 -0.0396  0.0417  0.0376
 5294W        W20763   5.110  12.290   4.938  0.0206 -0.1101 -0.2390
 5295W        W20764   3.030   3.402   0.645 -0.0660  0.0018 -0.2026
 5296W        W20765   9.616   5.803  15.916 -0.0882  0.0191  0.1131
 5297W        W20766   1.971   6.584  11.970  0.0101  0.2201 -0.0457
 5298W        W20767  18.341   0.323  12.287 -0.0951 -0.2518 -0.0944
 5299W        W20768  15.637  16.040   1.952 -0.0959 -0.0280 -0.2363
 5300W        W20769  11.328   1.064   2.020 -0.2505 -0.1341  0.2171
 5301W        W20770  12.299  10.237  15.818 -0.2079  0.0024 -0.0079
 5302W        W20771   5.782   9.128   2.831  0.2374 -0.2731 -0.0054
 5303W        W20772   9.752   8.294   1.213 -0.0896  0.2710  0.3489
 5304W        W20773  10.963   1.867   4.330 -0.1607  0.0965  0.3271
 5305W        W20774   4.603  17.403   1.416  0.0195  0.2001  0.0229
 5306W        W20775  10.209  13.419   3.907  0.0973  0.0495  0.0063
 5307W        W20776   6.313   9.244   4.584  0.0111 -0.1154  0.2501
 5308W        W20777   3.330   2.750   4.556 -0.2160  0.0241  0.4160
 5309W        W20778  15.658   5.988  13.251 -0.0760  0.0919 -0.1203
 5310W        W20779   3.743  15.281   1.463 -0.0061 -0.0152 -0.2078
 5311W        W20780  13.992  12.824   0.644 -0.1062  0.1925 -0.2267
 5312W        W20781  13.866  10.931  12.774  0.1206  0.2582  0.3929
 5313W        W20782  15.813   2.688   1.339 -0.1914 -0.0960  0.0931
 5314W        W20783  17.138  12.298  12.366 -0.0778  0.0942  0.1768
 5315W        W20784  12.689   1.963  13.806 -0.0648  0.0593  0.1072
 5316W        W20785   9.605  17.761   2.870  0.2069  0.2968  0.2985
 5317W        W20786  11.347   9.855   0.784  0.0951 -0.1954 -0.3218
 5318W        W20787  16.905   9.505   2.922 -0.1930 -0.2460  0.0145
 5319W        W20788  15.624   4.835   5.243  0.0229 -0.1367  0.0913
 5320W        W20789   5.859   5.877  14.891 -0.2094 -0.2195 -0.0584
 5321W        W20790  10.744   7.104   1.406  0.1867 -0.1575  0.2596
 5322W        W20791  17.919  16.205  10.561  0.2237  0.1191  0.2365
 5323W        W20792  15.525  15.804   0.511 -0.1756 -0.0615  0.2179
 5324W        W20793  12.093  16.627   2.526  0.2344 -0.1508  0.0314
 5325W        W20794   5.066  11.854  10.132  0.0236  0.2426 -0.1814
 5326W        W20795   2.272  18.218   4.486 -0.0008  0.3486  0.2251
 5327W        W20796   4.013   1.707  11.378  0.0051  0.1890 -0.0107
 5328W        W20797   7.995  12.117  14.528 -0.1043 -0.3872  0.0389
 5329W        W20798  10.987   7.448   4.078 -0.0318  0.1126  0.1313
 5330W        W20799  13.844  16.040   4.416  0.2582 -0.2380  0.1071
 5331W        W20800  13.211   7.255   2.762 -0.0509 -0.0321  0.2505
 5332W        W20801   5.525  15.114  12.316 -0.5615  0.2219 -0.0485
 5333W        W20802   0.975  14.393   2.122  0.0449 -0.0171 -0.0816
 5334W        W20803  17.130  16.482  10.424 -0.0451  0.1891 -0.0246
 5335W        W20804   4.359  14.269  12.405 -0.0893  0.0781  0.0561
 5336W        W20805  11.193  13.926   0.268 -0.0520  0.0272 -0.3331
 5337W        W20806  10.317  10.445   4.407 -0.0400 -0.0160 -0.1666
 5338W        W20807  11.006   5.451   2.162 -0.0581 -0.1951 -0.4285
 5339W        W20808   4.600   8.778  11.200  0.3878 -0.0531  0.0771
 5340W        W20809   6.112   7.625   0.595 -0.2591 -0.1979 -0.2089
 5341W        W20810   1.978   0.166  15.681  0.0369 -0.3397  0.1004
 5342W        W20811   5.329   9.324  13.640 -0.0867  0.1652 -0.1883
 5343W        W20812  14.200  15.976  10.801 -0.0383  0.0012 -0.2592
 5344W        W20813   7.260  14.110  14.066  0.0858 -0.0262 -0.0328
 5345W        W20814  14.241  12.060  13.722  0.2243  0.0556  0.1111
 5346W        W20815   6.973   6.969   2.709 -0.0406 -0.1492  0.3357
 5347W        W20816   5.914  15.658   3.838 -0.1057 -0.0627  0.2138
 5348W        W20817   6.104  12.662   0.052  0.5469  0.1798 -0.1206
 5349W        W20818  12.555   1.335   5.726 -0.1930 -0.4030  0.0218
 5350W        W20819   6.581   9.987  13.867  0.3374 -0.0474  0.3700
 5351W        W20820  15.530   0.901   2.382 -0.1520  0.3147  0.1361
 5352W        W20821  16.674  14.932   2.834 -0.1244  0.2038 -0.2030
 5353W        W20822   1.732   1.515  15.577 -0.1285  0.3648 -0.1686
 5354W        W20823  14.765   5.787  15.879 -0.1163 -0.0665 -0.3078
 5355W        W20824   4.589  16.802  13.573 -0.1920 -0.3048 -0.2884
 5356W        W20825   7.586   3.994  13.868  0.1787  0.0447 -0.1315
 5357W        W20826  14.545   0.812  11.038  0.1147  0.1081  0.0750
 5358W        W20827   3.546   5.297   0.940 -0.1178 -0.3534 -0.3099
 5359W        W20828  14.748   7.225   0.057  0.2868  0.1350 -0.1655
 5360W        W20829  17.473  12.756   3.735  0.1947 -0.0809 -0.0744
 5361W        W20830  16.618  17.775  12.771 -0.2579 -0.2496  0.0450
 5362W        W20831   2.731   6.256  11.418  0.1950  0.0801  0.0122
 5363W        W20832  10.271   7.384   5.309 -0.2370  0.0836  0.0187
 5364W        W20833   8.117  15.809   2.900  0.3215  0.3032 -0.1692
 5365W        W20834   2.036  11.550   1.644 -0.0665  0.0371 -0.0363
 5366W        W20835  16.503  13.733  13.855 -0.0943  0.0360  0.0632
 5367W        W20836   2.891   6.310   2.725  0.1140  0.0672  0.1567
 5368W        W20837   9.021  18.250  14.832  0.2786  0.1994  0.1358
 5369W        W20838  13.234  17.515   6.450 -0.0692  0.0660  0.1659
 5370W        W20839   0.650   4.160   1.309 -0.0308 -0.0815  0.3602
 5371W        W20840  10.169  16.888  15.078  0.1712 -0.4739 -0.1777
 5372W        W20841  16.005  12.277   4.876  0.4919 -0.1056  0.4233
 5373W        W20842  10.673   6.968  10.695 -0.1488  0.1583  0.0584
 5374W        W20843   2.770  18.138   4.653 -0.0773 -0.2121  0.0273
 5375W        W20844   2.387  17.575  13.506  0.1848 -0.0401 -0.1550
 5376W        W20845  10.245   1.463   0.109  0.0950 -0.0296  0.1751
 5377W        W20846   8.896   4.892  11.316  0.0897 -0.0654  0.0164
 5378W        W20847  10.228  16.920   5.399 -0.1478 -0.0611 -0.0731
 5379W        W20848  13.767  12.663   1.105 -0.2277  0.0995 -0.1976
 5380W        W20849  16.991   5.525  13.735  0.0647 -0.1273  0.1746
 5381W        W20850   7.231   6.647   3.042 -0.0442 -0.1920  0.0372
 5382W        W20851  15.858   6.018  11.990 -0.0033 -0.1307 -0.0874
 5383W        W20852   8.263  11.854  12.018 -0.1409  0.1201  0.1655
 5384W        W20853   6.929   2.910  12.731 -0.0624 -0.0116  0.1262
 5385W        W20854  13.200   1.382   1.626  0.0320  0.0881 -0.2334
 5386W        W20855   1.303   3.093   3.584  0.4321  0.1221 -0.1049
 5387W        W20856   1.424  13.654   9.857  0.2088 -0.3670 -0.0603
 5388W        W20857  11.892   5.872   0.244  0.2789  0.1912 -0.1236
 5389W        W20858  18.477   0.208   2.341  0.1841 -0.1784  0.0250
 5390W        W20859  12.523  14.263   4.510 -0.0368  0.0383 -0.1060
 5391W        W20860  10.658  14.533   3.130  0.1604  0.2359  0.0568
 5392W        W20861   8.175  16.319  14.157  0.0119  0.0133 -0.0933
 5393W        W20862  12.076  17.434   5.596 -0.0103  0.1160  0.2018
 5394W        W20863  14.047   7.338   1.090 -0.0985  0.1419 -0.0853
 5395W        W20864   6.301   8.246   1.130  0.0674  0.0890  0.4728
 5396W        W20865   1.161   4.058   1.443  0.3677  0.0160 -0.4139
 5397W        W20866   9.875  10.756   2.723 -0.0465 -0.1785  0.0660
 5398W        W20867  14.720  16.614   4.385  0.1558 -0.1129 -0.0589
 5399W        W20868   9.336   0.719  12.594 -0.2613 -0.3194  0.1749
 5400W        W20869   7.778  14.897   2.479 -0.1436  0.0696  0.1836
 5401W        W20870   6.556   2.510  11.978 -0.1540  0.1345  0.1320
 5402W        W20871   5.749  14.498   4.776 -0.2150  0.2347  0.2710
 5403W        W20872   0.111  14.640  13.342  0.1546 -0.2298  0.0204
 5404W        W20873   7.653  13.783  12.858 -0.0349  0.2665  0.0169
 5405W        W20874  17.585  10.793  13.838 -0.1552 -0.1707 -0.2955
 5406W        W20875  11.253   7.326  12.983 -0.3078  0.0196  0.0923
 5407W        W20876   5.197   1.102   2.893 -0.0862  0.3702  0.0037
 5408W        W20877   3.035  17.851   0.687  0.0283 -0.2425 -0.2495
 5409W        W20878   6.845  17.722  14.817  0.0832 -0.0866 -0.1490
 5410W        W20879   2.453  12.558  13.539 -0.1752 -0.2090 -0.3689
 5411W        W20880  15.199  14.403  11.320  0.1089  0.0573 -0.0233
 5412W        W20881   1.834   5.691  11.631  0.1361  0.0925 -0.1799
 5413W        W20882   0.925   9.076   0.657  0.0069  0.0817  0.4938
 5414W        W20883  12.525   3.732  15.194 -0.0798  0.0866 -0.1687
 5415W        W20884  11.986  10.337  14.014 -0.0503 -0.1896  0.2457
 5416W        W20885   0.887   4.014   4.642  0.1411  0.1335  0.2193
 5417W        W20886  16.698  12.716   5.128  0.3120  0.0247 -0.1628
 5418W        W20887   0.131   8.274   2.485  0.1887  0.1571  0.1962
 5419W        W20888   1.756  11.330   3.130  0.1407 -0.1310 -0.0342
 5420W        W20889  17.736  18.124   0.477  0.0685 -0.2676  0.3435
 5421W        W20890  10.049  14.601  11.935  0.2615 -0.1380  0.4257
 5422W        W20891   1.311  10.209   0.370 -0.0369 -0.3101  0.3655
 5423W        W20892   9.708   1.023  12.452  0.2449 -0.2319 -0.1789
 5424W        W20893   3.773   9.546  13.272 -0.2866  0.1215 -0.0662
 5425W        W20894  17.279   6.963   1.054 -0.0323 -0.2625 -0.1701
 5426W        W20895   8.430  14.118  14.817  0.2193 -0.2810  0.2473
 5427W        W20896  13.331   3.063   1.602  0.3640  0.0709 -0.3708
 5428W        W20897   3.530   6.174  10.954 -0.1618  0.1864  0.0159
 5429W        W20898  14.285   0.587   2.568  0.1758  0.1692  0.2005
 5430W        W20899  13.473  18.283  12.675  0.2163  0.0507 -0.2182
 5431W        W20900   3.157   5.310   2.947 -0.1199  0.2407 -0.1926
 5432W        W20901  15.309  14.726   4.072 -0.1436 -0.0915 -0.0679
 5433W        W20902  17.368   4.864  11.450 -0.3888 -0.1355 -0.0131
 5434W        W20903  11.120  13.836  10.927  0.2098 -0.1123 -0.1179
 5435W        W20904   2.914   8.491   1.112 -0.0440 -0.0188 -0.1040
 5436W        W20905  14.072   6.986  12.134 -0.0497 -0.0708  0.0597
 5437W        W20906  13.543   4.823   3.959  0.2150 -0.0203 -0.0360
 5438W        W20907   9.474   2.369  15.329  0.0860  0.0515 -0.2710
 5439W        W20908   1.833  13.471  14.785  0.2016 -0.1191 -0.2239
 5440W        W20909   9.628  12.809   3.972 -0.1853 -0.0567 -0.0588
 5441W        W20910   2.505   0.332  15.802  0.0046  0.2161  0.0988
 5442W        W20911  13.368  15.161  12.632  0.0492  0.2797  0.2868
 5443W        W20912  11.599  17.927   4.453  0.1985 -0.1979  0.0756
 5444W        W20913  14.692   9.078  13.585  0.0165  0.1789 -0.0857
 5445W        W20914   6.432  12.735  15.128  0.1067 -0.1403 -0.0821
 5446W        W20915  12.071   9.472   5.406 -0.1387  0.3131 -0.0380
 5447W        W20916   3.928  14.755   4.450  0.0816  0.0927  0.3300
 5448W        W20917  16.690   1.621  13.341 -0.1183  0.3169  0.1147
 5449W        W20918   7.882   2.732   2.924 -0.0305 -0.0164 -0.2976
 5450W        W20919   0.933   0.023   2.723  0.0866 -0.1459  0.1133
 5451W        W20920  12.521   1.597  11.641 -0.1286  0.3422  0.1020
 5452W        W20921  17.290   7.654  14.689  0.0297 -0.1347 -0.6163
 5453W        W20922   5.007   3.970   3.433  0.0656  0.2648  0.0671
 5454W        W20923   0.769   3.999   3.464  0.2391  0.0781  0.0816
 5455W        W20924  13.491   8.689  13.865 -0.1074  0.2000  0.2451
 5456W        W20925   5.663   8.695   4.595 -0.1849 -0.1661  0.0999
 5457W        W20926   9.604   0.024  14.304 -0.3998 -0.0783 -0.4046
 5458W        W20927  11.058   9.396   0.724 -0.0009 -0.2451  0.1615
 5459W        W20928  12.755  18.238  14.872 -0.1014  0.1289  0.2749
 5460W        W20929  10.100   4.502  10.789  0.3153  0.2533  0.0359
 5461W        W20930  15.273   7.847   5.031 -0.0871  0.0103 -0.1902
 5462W        W20931  11.656  18.374   2.453 -0.1703  0.1248 -0.3016
 5463W        W20932   5.313   2.105   1.756  0.0742 -0.1560 -0.0372
 5464W        W20933   3.249  15.434   1.209  0.0352 -0.2099  0.1944
 5465W        W20934  18.080  10.097   3.853  0.0646 -0.0217  0.1719
 5466W        W20935  14.870   7.309   0.555 -0.1563 -0.0766  0.2102
 5467W        W20936   3.765   7.667  14.199  0.3368  0.0736 -0.4028
 5468W        W20937   1.102   7.241  13.726  0.0914 -0.0373 -0.2685
 5469W        W20938  15.196  14.132  14.985 -0.0199  0.0258  0.4154
 5470W        W20939   4.860  10.849  11.369 -0.1253  0.0014 -0.0008
 5471W        W20940   4.867   5.047  14.377 -0.0285  0.0182 -0.1059
 5472W        W20941  11.010   6.384  14.167 -0.0525  0.0909  0.0741
 5473W        W20942   6.580  14.067   3.999  0.0693  0.1478  0.1300
 5474W        W20943  12.849   9.575   1.701 -0.0076 -0.1470  0.1658
 5475W        W20944  17.133  17.406  11.029  0.1693 -0.2598 -0.1940
 5476W        W20945   8.168  10.358   2.840 -0.0672 -0.0239 -0.0825
 5477W        W20946  10.231   8.977  14.174  0.1516 -0.2096 -0.0576
 5478W        W20947  15.039  12.028   2.508 -0.1261  0.0753 -0.1309
 5479W        W20948   6.655   8.768  11.755 -0.0225 -0.0095  0.1392
 5480W        W20949   3.797   6.478   0.926  0.0372 -0.3312  0.4109
 5481W        W20950   3.925   7.432  13.748 -0.0485 -0.1426 -0.1238
 5482W        W20951  10.339   8.923   4.872  0.3043  0.0109 -0.0827
 5483W        W20952   2.890   4.898   4.639 -0.0077 -0.4849 -0.0435
 5484W        W20953  13.930   2.677  12.239 -0.1422  0.0731 -0.4796
 5485W        W20954   7.455   5.372  12.198  0.1416 -0.1738 -0.1851
 5486W        W20955  11.354   1.191   5.724  0.3217 -0.0677  0.5844
 5487W        W20956  13.526   7.275  14.848 -0.1843  0.4175  0.2553
 5488W        W20957  12.654  11.308  15.647 -0.0233 -0.2652 -0.0857
 5489W        W20958   2.314  16.347   5.387 -0.1284  0.0546 -0.3444
 5490W        W20959   1.924   2.288  13.229  0.0434 -0.4049  0.1509
 5491W        W20960   9.568  14.689   1.952  0.3929  0.1235 -0.4301
 5492W        W20961   3.653   3.851  13.296  0.1658 -0.1397  0.1402
 5493W        W20962   8.434   6.521  12.300  0.1012  0.3955 -0.1970
 5494W        W20963  10.005   2.186   4.175 -0.0277 -0.0987 -0.1438
 5495W        W20964  13.572  10.907  13.799 -0.2332 -0.3101 -0.1433
 5496W        W20965   4.658  10.355   0.292  0.3486  0.0677  0.1861
 5497W        W20966   6.388  11.161  11.079 -0.3486  0.1175 -0.3485
 5498W        W20967   1.478   1.813   3.563  0.0189  0.1681 -0.1295
 5499W        W20968   4.399  10.351  11.819  0.3642 -0.0430  0.0321
 5500W        W20969   3.459   2.041   4.559  0.2271 -0.0374  0.0056
 5501W        W20970   9.093  11.149   1.602  0.2248 -0.0114 -0.0551
 5502W        W20971   9.353   7.569   1.304  0.2366 -0.2032 -0.2255
 5503W        W20972  16.499   4.515   2.072 -0.0546 -0.2048 -0.1160
 5504W        W20973   3.209  18.098  12.445  0.2029 -0.0136  0.0052
 5505W        W20974  15.222  16.879  11.682  0.1881 -0.0838 -0.2578
 5506W        W20975   6.935  10.209   3.897 -0.1395 -0.0820  0.0533
 5507W        W20976   3.225   9.630  13.018 -0.0443 -0.0638  0.3436
 5508W        W20977   0.656   5.435  15.816  0.1473  0.2112  0.0955
 5509W        W20978   3.569   7.708   3.145  0.0744 -0.2436  0.0760
 5510W        W20979  15.437   4.495  13.904 -0.0150  0.1251  0.3739
 5511W        W20980  11.057   9.873  10.962 -0.0325 -0.2451  0.0054
 5512W        W20981   6.613  16.563  15.654  0.1263  0.3910  0.0283
 5513W        W20982  17.148  12.625  15.473  0.0543 -0.1175  0.1071
 5514W        W20983   5.137   0.243  13.722  0.1857  0.1996  0.0731
 5515W        W20984   2.020   7.485  12.367  0.2241  0.1621 -0.1464
 5516W        W20985  16.995   0.240  13.593  0.0266 -0.0817  0.0363
 5517W        W20986   7.174   7.849   3.824  0.1138  0.0830 -0.2601
 5518W        W20987   4.166   9.092   3.826 -0.1373  0.0149 -0.1064
 5519W        W20988   6.636  11.146  15.829  0.2354  0.0801  0.1579
 5520W        W20989   1.136  10.413   2.206  0.1485 -0.1533  0.0465
 5521W        W20990  11.984   8.125  14.514 -0.0958  0.3016 -0.4121
 5522W        W20991   4.651   8.066  15.018  0.0347  0.1348  0.4316
 5523W        W20992  15.489   2.391   3.834  0.0332 -0.0601  0.1881
 5524W        W20993   0.283   6.813   5.950 -0.2182  0.2838  0.1246
 5525W        W20994   7.558   2.485  15.535  0.0636 -0.2110 -0.1336
 5526W        W20995   5.417   1.630  12.593 -0.0295 -0.0050  0.0005
 5527W        W20996   3.201   5.697  15.900 -0.1538  0.2156 -0.2398
 5528W        W20997  13.538  14.490   0.715 -0.0201 -0.1575 -0.1139
 5529W        W20998   4.997  10.361   1.408 -0.2719 -0.0166  0.1188
 5530W        W20999   8.276  14.087  15.870 -0.0149 -0.1250  0.0383
 5531W        W21000  17.935   1.230   5.273 -0.0043  0.0975  0.1349
 5532W        W21001  17.822   7.645  13.952  0.0243  0.0895  0.1866
 5533W        W21002  15.673   9.370  15.602 -0.0045  0.1303 -0.1309
 5534W        W21003   1.007   9.415   1.093  0.1339  0.3280  0.0224
 5535W        W21004  15.159  17.608   0.617  0.2928  0.0417 -0.0741
 5536W        W21005   1.081   9.530   6.059 -0.0678  0.1325 -0.0480
 5537W        W21006   0.121  10.251  13.377 -0.1513 -0.0863  0.2575
 5538W        W21007  16.537  15.272   1.547 -0.0992  0.1236 -0.2628
 5539W        W21008   4.926   8.448   3.154  0.1436 -0.2269 -0.0058
 5540W        W21009   4.234  11.675   1.379 -0.3983  0.0893 -0.1293
 5541W        W21010   4.922  16.342  14.035 -0.1156  0.1905  0.1860
 5542W        W21011  16.281   6.815  15.872  0.3586  0.1280  0.6399
 5543W        W21012  14.006   0.150   1.958 -0.1258 -0.0900  0.0984
 5544W        W21013  17.326   0.571  13.313 -0.2473  0.0798 -0.0693
 5545W        W21014   1.475  18.149   0.657  0.0037  0.0031 -0.2144
 5546W        W21015  12.879  15.688  15.687  0.2194 -0.0616 -0.1708
 5547W        W21016   7.848   7.267   1.102  0.0551  0.3911 -0.4095
 5548W        W21017  15.815  16.630  10.879  0.2270 -0.0026 -0.1409
 5549W        W21018  14.457  13.137   2.686 -0.0118  0.0697  0.0419
 5550W        W21019   4.321  10.497   4.687 -0.2572 -0.0667  0.2603
 5551W        W21020   4.213   9.021   5.731  0.0379  0.4061  0.0789
 5552W        W21021  17.878  11.277  11.891 -0.0053 -0.2420 -0.0073
 5553W        W21022  11.611  12.379  11.178  0.3006  0.0319  0.3485
 5554W        W21023   7.667   3.783  12.826 -0.1735  0.1372  0.1601
 5555W        W21024   7.257   3.208  14.526  0.0290 -0.1310  0.0337
 5556W        W21025  16.439   6.225  13.095  0.0511 -0.2253 -0.0179
 5557W        W21026   1.802  13.397  13.912  0.1872  0.2402  0.2539
 5558W        W21027   9.051   2.128   4.200 -0.1361  0.0622 -0.1054
 5559W        W21028  16.686   5.909  11.882  0.1179 -0.0992 -0.0664
 5560W        W21029  11.272  15.524   2.625 -0.1459  0.1405 -0.0753
 5561W        W21030  13.902  14.907   1.133  0.0787  0.2214 -0.0692
 5562W        W21031   4.941  10.260  11.062  0.1592 -0.0507  0.1681
 5563W        W21032   6.663   1.157  15.613 -0.1265 -0.2806 -0.0316
 5564W        W21033   6.928   1.285   3.753 -0.3153 -0.2065 -0.0585
 5565W        W21034   9.512   4.002   3.645  0.1020  0.0387  0.3369
 5566W        W21035  11.485   2.010  11.488 -0.3450  0.2904  0.1966
 5567W        W21036   8.971   8.809  15.680 -0.1669  0.1996 -0.0199
 5568W        W21037   4.767  13.296   2.449  0.1331 -0.0646 -0.2160
 5569W        W21038   6.300   9.933   5.109  0.1902 -0.0985 -0.2406
 5570W        W21039   9.156   3.827   5.681 -0.1376 -0.1611  0.1304
 5571W        W21040   8.050   9.431   0.534 -0.0231  0.1674  0.0509
 5572W        W21041   8.226   9.459   2.583  0.1635  0.1715 -0.3043
 5573W        W21042   5.607  10.016   2.636  0.0283 -0.4415  0.1696
 5574W        W21043  15.218   6.540  10.925  0.1259 -0.1500 -0.5140
 5575W        W21044   2.509   7.582   3.453  0.1496 -0.0390  0.0481
 5576W        W21045   9.662  10.000  11.496  0.0051 -0.1796 -0.0389
 5577W        W21046   0.659   6.572  14.223 -0.1026  0.0457 -0.2619
 5578W        W21047   6.446  18.455  12.736 -0.0497  0.0007 -0.0967
 5579W        W21048   6.819   3.690   4.209  0.0468  0.1423  0.0618
 5580W        W21049  11.120  17.407  12.390 -0.2673  0.0615 -0.0290
 5581W        W21050  15.426  15.067   2.952 -0.1057 -0.2318 -0.0280
 5582W        W21051   8.277  10.830   0.842  0.2296 -0.0225  0.1131
 5583W        W21052  16.819   4.473  10.887  0.2074 -0.0624  0.0339
 5584W        W21053  11.715   7.947   1.083  0.0230  0.0713  0.1711
 5585W        W21054   7.731   5.216  15.637  0.0354 -0.2852  0.1324
 5586W        W21055  13.075  16.444  10.674 -0.1897 -0.1833  0.2263
 5587W        W21056  15.255   5.650  15.677  0.1632 -0.2952 -0.1247
 5588W        W21057  17.726  17.192  12.722 -0.1654  0.1940  0.2790
 5589W        W21058   0.978  14.382   5.604  0.0258  0.0769  0.2516
 5590W        W21059   5.221  14.087  13.620  0.0712  0.0405  0.0213
 5591W        W21060  16.098   1.168   1.605  0.0499 -0.0462  0.0494
 5592W        W21061  13.311  12.576  12.278 -0.0950 -0.1241  0.2718
 5593W        W21062   0.653   7.024  12.108  0.0437 -0.4382 -0.0213
 5594W        W21063   9.334   7.030   0.778  0.2826  0.0607  0.0716
 5595W        W21064  12.534  12.708  15.180 -0.1363  0.1614 -0.0703
 5596W        W21065  10.506   7.222   3.385  0.0426 -0.3876  0.0695
 5597W        W21066   2.334  10.620   3.884  0.2277 -0.0055 -0.1866
 5598W        W21067  14.887   1.182   3.517  0.0607 -0.1012  0.1423
 5599W        W21068  12.385  15.620   1.665 -0.1880  0.0177 -0.2254
 5600W        W21069  17.975  12.759  13.783  0.0574  0.1843  0.0731
 5601W        W21070   8.869   4.263  11.044 -0.0271 -0.0942  0.4067
 5602W        W21071  17.858   0.765   4.681  0.0593 -0.1960 -0.1875
 5603W        W21072  18.392  14.794  15.281 -0.0411  0.1863  0.0091
 5604W        W21073   7.272   2.625   1.011  0.0959  0.2915 -0.0740
 5605W        W21074   2.452   9.891  15.123 -0.3708  0.0579  0.2869
 5606W        W21075   6.942  17.650   3.260  0.2059  0.1694  0.1895
 5607W        W21076  15.779  10.355  12.455  0.1562  0.2323 -0.1156
 5608W        W21077   5.222  14.109   5.482  0.0433  0.2793 -0.1956
 5609W        W21078   8.375  16.295  15.297  0.0999  0.1321  0.1513
 5610W        W21079   0.048  15.317   2.386  0.0676 -0.1743  0.0650
 5611W        W21080  13.620   8.971   0.578 -0.0341  0.0083 -0.1291
 5612W        W21081  17.961   1.068   0.872 -0.1362 -0.2284 -0.1592
 5613W        W21082  14.965   4.400   1.440 -0.0493  0.0886  0.0742
 5614W        W21083   8.399  15.758   5.323  0.0321 -0.3135 -0.1428
 5615W        W21084   5.370  15.000   3.201  0.0379 -0.1328  0.1851
 5616W        W21085   8.920  13.719   1.208  0.1929  0.2342  0.3610
 5617W        W21086  16.257   8.524   3.210 -0.0256  0.0892 -0.1614
 5618W        W21087  17.815   9.333  12.270  0.1675 -0.1907  0.1818
 5619W        W21088   5.824  17.463   4.361  0.1919 -0.2421  0.0300
 5620W        W21089  16.551  16.027  12.092 -0.0221 -0.1504 -0.1146
 5621W        W21090  15.150   7.911  13.508 -0.3129 -0.1996 -0.0476
 5622W        W21091  16.843  11.747  14.640 -0.4395  0.0267 -0.0337
 5623W        W21092  16.496   7.551  10.230 -0.1165 -0.1694 -0.0267
 5624W        W21093  11.771   8.957   0.838  0.3678 -0.1972  0.0323
 5625W        W21094  13.128   5.686   1.750  0.2968  0.0313 -0.2499
 5626W        W21095  17.869  16.432   2.989  0.1247  0.0396 -0.1034
 5627W        W21096  13.153   6.720  15.392 -0.1353 -0.0567 -0.0350
 5628W        W21097   8.260  17.571  13.022  0.2896 -0.1109  0.1241
 5629W        W21098   4.155  10.213   0.369 -0.1511  0.0276  0.0620
 5630W        W21099  17.265   9.488   4.683 -0.3344  0.1325  0.1368
 5631W        W21100   4.556  14.486   3.343 -0.0454  0.0728 -0.0919
 5632W        W21101  13.235   5.587   0.770 -0.1752  0.1526 -0.0009
 5633W        W21102   3.993   5.940   3.696  0.3074  0.1317  0.0290
 5634W        W21103  12.555   5.114  11.559  0.2009 -0.0177  0.0626
 5635W        W21104   8.399   7.679   3.421 -0.1387 -0.0916 -0.0860
 5636W        W21105  17.440  12.448   3.263 -0.2123 -0.1031  0.2228
 5637W        W21106  11.873   6.468  14.962  0.0354 -0.4051 -0.0718
 5638W        W21107   9.989   8.155   2.540 -0.1514 -0.1624 -0.1322
 5639W        W21108   8.022  13.474  13.772  0.1904  0.1191  0.4913
 5640W        W21109  12.121   0.268  14.255  0.0961 -0.0303  0.1792
 5641W        W21110   1.346   0.996  13.966  0.2303  0.1521  0.1055
 5642W        W21111  13.820  15.112  11.302  0.0906  0.1357  0.2981
 5643W        W21112   7.366  16.503   0.917 -0.1432 -0.2476 -0.1073
 5644W        W21113  10.064  15.334   3.603  0.0455 -0.1146  0.2126
 5645W        W21114  18.182  14.249  12.736 -0.1900  0.1025 -0.0040
 5646W        W21115  10.076  13.180  11.872 -0.1580 -0.1976  0.0168
 5647W        W21116   8.853  13.021  13.716 -0.1737 -0.1550  0.1415
 5648W        W21117  14.240   8.179   5.153 -0.1627  0.0395  0.0069
 5649W        W21118   0.500  13.260   2.085 -0.1003 -0.0118 -0.1839
 5650W        W21119   2.168   4.700   0.255  0.3214  0.1057 -0.3733
 5651W        W21120   4.291   2.375  12.238  0.0913  0.2051 -0.2629
 5652W        W21121  10.657  13.363   3.488  0.0256  0.0542 -0.1870
 5653W        W21122  11.757  11.664   4.889 -0.0373 -0.2217  0.0002
 5654W        W21123  11.284  13.438  13.257  0.2324  0.1335  0.0933
 5655W        W21124  16.473   6.162   2.784  0.0338  0.1082 -0.1628
 5656W        W21125  12.338   2.537  11.103 -0.1259  0.3093  0.4852
 5657W        W21126   1.668  15.893  15.209  0.0819 -0.0672  0.4467
 5658W        W21127   7.084  11.419  13.052  0.2074  0.1545  0.2235
 5659W        W21128  12.665   8.942  11.579 -0.3055 -0.3613 -0.0416
 5660W        W21129   1.594  16.209  13.358 -0.0956  0.0421 -0.2261
 5661W        W21130   4.578  15.763  11.070 -0.1960  0.2510  0.2068
 5662W        W21131   6.699  10.404   4.755 -0.1362  0.0842 -0.0750
 5663W        W21132   4.060  16.544   0.537 -0.2699  0.1525 -0.1563
 5664W        W21133   2.095  14.893  15.036 -0.1475  0.3124  0.1099
 5665W        W21134   4.528   5.999  14.888 -0.1387 -0.1948 -0.2180
 5666W        W21135   5.180   3.621  14.431 -0.0190  0.3217  0.0733
 5667W        W21136  13.122   3.282  13.883  0.1486  0.1202  0.2742
 5668W        W21137   5.660   3.484   5.469 -0.0292 -0.3359 -0.0084
 5669W        W21138  15.517   8.839  12.957  0.1771 -0.0096 -0.0435
 5670W        W21139   3.885  11.629  15.073  0.2619  0.1752  0.5295
 5671W        W21140   0.688   2.902   0.906  0.4353 -0.1070  0.1891
 5672W        W21141   1.838   7.416   3.574 -0.2346 -0.3089  0.5205
 5673W        W21142   4.918  11.942   2.616  0.2147 -0.0565 -0.2688
 5674W        W21143  18.214  17.663   0.099 -0.3256 -0.0570  0.2314
 5675W        W21144   5.032  10.549  15.839  0.0256 -0.1065 -0.0377
 5676W        W21145   1.956  11.039  13.784 -0.1625  0.1062 -0.1785
 5677W        W21146   8.613  12.177  12.254  0.1443  0.1408 -0.1477
 5678W        W21147   0.174  14.262  13.673 -0.2039 -0.1450  0.0272
 5679W        W21148   1.602  14.147  13.819  0.2234  0.0626  0.0855
 5680W        W21149   9.792  11.721  11.210 -0.2354  0.2442  0.0672
 5681W        W21150   1.622   5.307   5.700  0.2756  0.2130 -0.1583
 5682W        W21151  12.891  17.001  15.283  0.2744 -0.0920  0.0562
 5683W        W21152   8.145  15.838  13.988 -0.0660 -0.1044  0.1536
 5684W        W21153   7.311   5.472  13.548 -0.1913 -0.0396 -0.0456
 5685W        W21154  17.234   1.340  14.399  0.0646 -0.0894 -0.1930
 5686W        W21155   1.179   2.975  15.575 -0.0970  0.2013 -0.1944
 5687W        W21156  11.537   1.872   1.123  0.2684 -0.0095 -0.1295
 5688W        W21157   9.525   7.087   4.757  0.0059  0.1173  0.3623
 5689W        W21158   9.719  13.994   0.880  0.0022  0.0413  0.3179
 5690W        W21159  17.571   1.964  14.749  0.0171 -0.0014  0.0181
 5691W        W21160  17.978  13.378   2.696  0.1939 -0.0251  0.2736
 5692W        W21161   8.828   3.290   0.586 -0.2546  0.0921 -0.0008
 5693W        W21162   1.041   0.129   2.210 -0.0877  0.0832  0.2412
 5694W        W21163   8.278  13.438  12.138  0.0192  0.1272  0.0190
 5695W        W21164  17.666  10.464  11.892  0.0390 -0.0113  0.2319
 5696W        W21165   4.205   1.910   1.590 -0.0356  0.0543  0.1238
 5697W        W21166   0.424  12.693  12.640  0.0624  0.0924  0.0059
 5698W        W21167  17.064  16.679  12.911  0.4117 -0.0852 -0.1311
 5699W        W21168   3.686  12.799   3.206  0.0523 -0.0643 -0.0645
 5700W        W21169   8.706  11.531   2.990  0.1095  0.0342 -0.2754
 5701W        W21170  14.935  14.754  11.661 -0.0120 -0.1439  0.0945
 5702W        W21171   3.730   0.351  13.921 -0.0871  0.2036 -0.1543
 5703W        W21172   1.455  12.733   3.607 -0.2095  0.1470  0.0230
 5704W        W21173  11.774  10.689   5.812 -0.3435  0.1374 -0.1251
 5705W        W21174  15.250  10.145  15.668 -0.0579 -0.2644 -0.0072
 5706W        W21175  16.767  16.155   4.914  0.1973 -0.0171 -0.0118
 5707W        W21176  10.647   7.624  15.336  0.2441 -0.1042  0.2180
 5708W        W21177   0.976   3.227  14.392 -0.2222 -0.0024 -0.2355
 5709W        W21178  15.446   2.836   2.694 -0.1604 -0.1447  0.1000
 5710W        W21179  16.984  14.270  14.209  0.0514  0.1221  0.0155
 5711W        W21180   8.607  17.475  10.777 -0.2279  0.1467  0.2501
 5712W        W21181  10.425   1.672  13.452  0.0354  0.1977 -0.3544
 5713W        W21182   5.827  17.202   3.941 -0.2526 -0.3070  0.0798
 5714W        W21183   7.400   4.761  10.834 -0.2077 -0.0077 -0.2859
 5715W        W21184   2.101  13.845   1.003 -0.1724  0.0121 -0.2913
 5716W        W21185   9.236   3.685  14.784  0.0313 -0.0438  0.2855
 5717W        W21186   7.606  17.057  14.149  0.3138 -0.0001  0.0012
 5718W        W21187   3.650  18.236   4.951  0.1073 -0.0019 -0.0789
 5719W        W21188  18.443  14.878   2.184  0.0043  0.0982  0.1004
 5720W        W21189  10.031  16.524   5.643  0.0610  0.0897 -0.0338
 5721W        W21190   1.670   0.325  11.984  0.0575 -0.0846  0.2628
 5722W        W21191   9.964   1.572  15.562 -0.0589  0.0171  0.0069
 5723W        W21192   9.921  15.904  13.674 -0.4444  0.1649 -0.2499
 5724W        W21193   3.023   9.120   3.937  0.0504  0.0522 -0.3023
 5725W        W21194  10.999  15.000   4.905 -0.0488 -0.3555 -0.1536
 5726W        W21195  14.441  17.844  11.048  0.4204 -0.0308  0.3046
 5727W        W21196   5.418  11.695  11.636  0.0220  0.0338  0.1198
 5728W        W21197   9.844  10.336  13.683 -0.1378  0.1235 -0.2562
 5729W        W21198  17.679   5.915   5.313 -0.1543  0.1288 -0.0664
 5730W        W21199  16.472  14.499  10.719  0.2554 -0.1938  0.0816
 5731W        W21200   3.850  10.004   3.384  0.2728 -0.1579  0.0945
 5732W        W21201   8.180   1.938   0.249  0.0452 -0.2168 -0.2569
 5733W        W21202   0.639  17.167   1.037 -0.3066  0.1691 -0.0646
 5734W        W21203   3.754   2.753   4.115 -0.2835 -0.3006 -0.2210
 5735W        W21204   5.919  13.972   1.707 -0.2196 -0.0078 -0.0873
 5736W        W21205   1.138  15.225   0.123 -0.3039 -0.0773 -0.2098
 5737W        W21206   6.446   4.045  12.048  0.0790  0.0307 -0.1610
 5738W        W21207   6.214  16.495   2.731  0.0833 -0.2316 -0.1063
 5739W        W21208   8.239  12.954  14.276  0.0716 -0.1139  0.0351
 5740W        W21209   7.402   4.603  14.958  0.2776  0.0594  0.3771
 5741W        W21210  12.935  16.058  15.330  0.4726  0.0925 -0.1796
 5742W        W21211   9.723   7.096   1.706  0.0074 -0.0256  0.0711
 5743W        W21212  16.408   8.869   1.023 -0.1791 -0.0944  0.2886
 5744W        W21213  13.668   5.383   3.814  0.2613 -0.0810 -0.2814
 5745W        W21214   1.555  12.180  15.064  0.1180  0.3356 -0.0078
 5746W        W21215   6.145  12.348  14.401 -0.0615  0.0348 -0.0987
 5747W        W21216  13.745   3.152  12.148  0.0474 -0.0302  0.2376
 5748W        W21217   2.176   5.969   2.098 -0.0404  0.1174  0.1544
 5749W        W21218  11.576  17.364  13.836 -0.2736  0.1624  0.0497
 5750W        W21219  11.638   5.062   1.693  0.4228  0.0607 -0.2232
 5751W        W21220   4.061  18.000  15.666  0.1449 -0.3168 -0.0727
 5752W        W21221   3.019   9.945  15.215 -0.1038 -0.1790 -0.0249
 5753W        W21222   6.380  16.657  10.411  0.1558 -0.1877  0.1933
 5754W        W21223  11.797  11.014   2.352  0.0465  0.0384 -0.1063
 5755W        W21224   0.852  11.899  15.128  0.0101 -0.0553  0.1855
 5756W        W21225  12.992   1.088   3.542  0.0389 -0.3035  0.0084
 5757W        W21226  17.717  15.412  14.077 -0.3144 -0.0353 -0.2195
 5758W        W21227   9.941   5.588  13.869  0.2710 -0.0392 -0.0194
 5759W        W21228  12.636   7.488  15.319  0.0432 -0.1242 -0.0120
 5760W        W21229  10.793  13.009  12.581 -0.1544 -0.2260  0.1185
 5761W        W21230  16.507   9.939  13.151 -0.0435 -0.2071 -0.0647
 5762W        W21231  12.013   9.055   2.829  0.1275 -0.3461 -0.4486
 5763W        W21232   2.664  10.727   1.619 -0.1734  0.0106 -0.2880
 5764W        W21233   1.324  16.077  14.883 -0.0651 -0.2360 -0.2829
 5765W        W21234   5.389   1.041   4.734  0.1789  0.1947  0.3020
 5766W        W21235  18.022   3.043  10.855 -0.3504  0.1019  0.0028
 5767W        W21236   5.165  17.865  13.794 -0.0993 -0.1149 -0.2863
 5768W        W21237  11.695   1.665   5.685  0.2698  0.2460 -0.2175
 5769W        W21238   6.510   6.314   5.037 -0.0887  0.0020  0.0187
 5770W        W21239  11.762  12.041   1.907  0.0798 -0.3051  0.1066
 5771W        W21240  17.364  14.161   1.309 -0.0066 -0.0666  0.0602
 5772W        W21241   5.507  14.298   0.883  0.1506  0.0430 -0.1317
 5773W        W21242  16.571   2.729   4.505  0.2812  0.1626  0.0680
 5774W        W21243   4.785  18.129  11.139 -0.2159  0.0204 -0.3914
 5775W        W21244   0.444  15.107   2.062  0.0971  0.2138 -0.2734
 5776W        W21245   9.494  17.097   2.276 -0.4482 -0.1572 -0.1286
 5777W        W21246   9.909   4.425   5.009 -0.0264 -0.0593  0.2020
 5778W        W21247  18.476  18.253   4.315  0.1012 -0.1365  0.1703
 5779W        W21248   6.311   1.063   0.606  0.0063 -0.4291  0.2180
 5780W        W21249   4.256  10.606  14.606  0.0078  0.1161 -0.1006
 5781W        W21250  12.839   1.374   1.965 -0.2437 -0.1570 -0.1085
 5782W        W21251   2.331   8.031  14.221 -0.1552  0.0286  0.0504
 5783W        W21252   5.917  10.778  15.443 -0.2091  0.0220  0.0063
 5784W        W21253   2.782   9.232   4.973  0.1571 -0.0883  0.2248
 5785W        W21254  14.939   8.683  15.229 -0.1131  0.1347 -0.2402
 5786W        W21255   1.502  13.857  12.209  0.1348 -0.0969  0.0511
 5787W        W21256   4.430  10.065  10.330  0.2448  0.2105 -0.0633
 5788W        W21257  10.494   5.569  15.429  0.1011 -0.1328 -0.1850
 5789W        W21258   3.372   0.058   0.137 -0.0397  0.2126  0.2092
 5790W        W21259   8.176  16.024  11.769  0.0500  0.2607  0.1415
 5791W        W21260   8.650   7.146  12.599  0.0833 -0.1274  0.1334
 5792W        W21261  12.348   9.778  14.012 -0.0526 -0.2710  0.2123
 5793W        W21262   2.925   9.738   5.093  0.0345  0.1783  0.0787
 5794W        W21263   6.182   4.616  10.261  0.1699 -0.0468  0.0495
 5795W        W21264   9.346   3.223   0.393  0.1622 -0.1886 -0.2618
 5796W        W21265  11.629   8.872  12.829 -0.0387 -0.0913  0.2055
 5797W        W21266   4.632  12.312   4.732  0.1350  0.0609  0.1731
 5798W        W21267   6.135  10.713  13.557  0.2029  0.4212 -0.0843
 5799W        W21268  14.789  10.548  11.186  0.1447  0.0575  0.2135
 5800W        W21269   9.500  12.185  11.902  0.0154 -0.1716  0.0825
 5801W        W21270  15.053  10.823   4.191  0.0233 -0.1447  0.3213
 5802W        W21271  12.548   0.682  12.467 -0.1129  0.0017  0.2748
 5803W        W21272   4.138   8.060  13.071 -0.0735  0.3866 -0.1245
 5804W        W21273   6.278   5.627  14.972 -0.1084  0.1556  0.3137
 5805W        W21274   4.016  11.643   0.494 -0.0045  0.2121 -0.0896
 5806W        W21275  15.347  11.124   1.803 -0.3532  0.1720 -0.1706
 5807W        W21276   4.239   3.604   3.172  0.1562 -0.0762  0.1888
 5808W        W21277  16.236  15.181  13.821  0.0219  0.0498 -0.0377
 5809W        W21278   1.831   6.569   4.809 -0.2714 -0.0321  0.2904
 5810W        W21279  11.349   7.500  14.218  0.0797  0.2393 -0.0680
 5811W        W21280   0.997   4.300  14.323 -0.1439 -0.0727  0.3115
 5812W        W21281  10.558  10.641  11.067 -0.2483  0.0008  0.0016
 5813W        W21282  12.537   2.805  15.342 -0.0750  0.2302  0.0896
 5814W        W21283  14.717   1.464  12.631 -0.1592 -0.2292  0.1444
 5815W        W21284   6.134  17.995   0.517  0.0178  0.0519  0.1499
 5816W        W21285  16.098   4.688  14.226  0.1719 -0.1529 -0.1915
 5817W        W21286  12.287   0.969   4.790 -0.3962 -0.1930 -0.2074
 5818W        W21287  10.376  16.312  15.222 -0.1543 -0.1894  0.0056
 5819W        W21288   7.413   7.738   0.554 -0.2355  0.1266  0.1708
 5820W        W21289   5.109  16.607   0.532 -0.2486 -0.0333  0.3758
 5821W        W21290   1.954  18.053  12.199  0.1730  0.0857  0.0594
 5822W        W21291   9.090   1.183   4.747  0.2120 -0.1753  0.0971
 5823W        W21292   2.164   4.645   2.093  0.3328 -0.0461  0.0936
 5824W        W21293   4.147  10.888   5.036 -0.3196 -0.0299  0.0197
 5825W        W21294   1.606  12.228   4.395 -0.1099  0.1719  0.0093
 5826W        W21295  10.335   9.761  12.428 -0.0841 -0.4167  0.1233
 5827W        W21296   8.867  15.590   4.136  0.3632  0.1790 -0.3773
 5828W        W21297   0.532   4.541  13.904  0.1003 -0.1140 -0.2374
 5829W        W21298   6.771   4.300  10.904 -0.0675  0.0730  0.1497
 5830W        W21299   1.272   1.260   1.615  0.1501 -0.1056 -0.1047
 5831W        W21300   8.002  11.557  12.658  0.3036  0.1910  0.4784
 5832W        W21301  18.247   6.527   3.411  0.1312  0.1305 -0.0580
 5833W        W21302   2.730   4.539   4.928 -0.2014  0.0574 -0.0787
 5834W        W21303   7.309  14.245  13.029 -0.3623  0.2650  0.1286
 5835W        W21304  10.695  11.536   3.559 -0.3065  0.0993  0.0715
 5836W        W21305   3.636   8.051   0.339  0.0543 -0.1431  0.1014
 5837W        W21306  14.095  11.072  14.055 -0.0795  0.0152 -0.4297
 5838W        W21307   1.721  16.843   0.181  0.0969  0.1280  0.2411
 5839W        W21308  10.981   0.018   2.386 -0.1576  0.1920 -0.0993
 5840W        W21309   6.111   8.307  15.902  0.0549  0.2531 -0.0140
 5841W        W21310  17.190  10.464   3.039 -0.0771 -0.3130 -0.2248
 5842W        W21311   4.560  13.580   3.932 -0.0688  0.0903 -0.0897
 5843W        W21312   4.723  16.781  13.112 -0.5196 -0.2351  0.0921
 5844W        W21313   7.130   1.435  12.767  0.1946 -0.4253  0.0466
 5845W        W21314  18.050   4.957  10.654 -0.1248  0.2085  0.3195
 5846W        W21315   7.261   2.566  12.690  0.0051  0.2275  0.0282
 5847W        W21316   5.014  13.130  15.192  0.0411  0.1923  0.0282
 5848W        W21317   4.699   0.199  15.345  0.2346 -0.0048 -0.0581
 5849W        W21318   1.492   9.082   3.340 -0.0581  0.1050  0.2183
 5850W        W21319  11.395  11.331  11.098  0.0016 -0.1129 -0.3917
 5851W        W21320  17.339  11.504  12.742 -0.2769 -0.2511  0.1546
 5852W        W21321   1.318  18.365  10.427  0.3537  0.1436 -0.2764
 5853W        W21322  14.433   9.980  14.903 -0.3814 -0.0779  0.0859
 5854W        W21323   4.250  12.636   4.657  0.1457 -0.0476  0.0618
 5855W        W21324  12.583   9.449   4.192  0.0898 -0.1952  0.3116
 5856W        W21325  10.737  13.970  15.894  0.1328  0.2031  0.1941
 5857W        W21326   3.826  12.873   4.691  0.0855 -0.0405 -0.1838
 5858W        W21327   3.369  17.279  12.739 -0.3623 -0.0633 -0.1424
 5859W        W21328  12.391   9.386  14.945 -0.1651 -0.0666 -0.1062
 5860W        W21329   9.779   4.239  11.037  0.0063 -0.1425 -0.1207
 5861W        W21330  10.163   8.807  15.648 -0.0725 -0.4104 -0.1689
 5862W        W21331  10.333  15.496  12.968 -0.0131 -0.0394 -0.1277
 5863W        W21332   7.053   0.362  12.202 -0.0497 -0.0852 -0.0481
 5864W        W21333  18.480  12.537   3.264 -0.0013 -0.1032  0.1388
 5865W        W21334  12.711   3.230  15.127  0.1909  0.2885  0.1739
 5866W        W21335   5.213   4.176  11.157 -0.0592 -0.2010  0.1324
 5867W        W21336  11.030   7.517   1.608  0.2936 -0.1377 -0.1851
 5868W        W21337   1.798   8.214   0.815  0.0946 -0.2866 -0.3338
 5869W        W21338   6.013   5.823   5.362 -0.2876 -0.1348  0.0165
 5870W        W21339   1.295  11.069  15.027  0.1507 -0.3741  0.0310
 5871W        W21340   4.295   8.404   0.800  0.1837 -0.0835 -0.1748
 5872W        W21341  12.346  10.835   2.562  0.0854  0.0236 -0.1829
 5873W        W21342   5.056  11.010   5.517  0.1839  0.0181 -0.0251
 5874W        W21343   9.402   6.098  13.275  0.3287  0.3414 -0.1433
 5875W        W21344   8.346  11.184  11.180  0.1057 -0.1298 -0.2751
 5876W        W21345   6.430  11.998  10.816  0.0966  0.2257 -0.5424
 5877W        W21346   3.968  15.415  15.166 -0.2038 -0.0332  0.2254
 5878W        W21347   0.413  17.867  12.375  0.0740 -0.0982 -0.1115
 5879W        W21348   9.449   4.488   4.766 -0.2653 -0.0547 -0.0666
 5880W        W21349   9.916   8.882  13.152 -0.1849 -0.0623 -0.1414
 5881W        W21350   7.012  10.272  14.719 -0.0487 -0.3563  0.2119
 5882W        W21351  12.527  16.974  15.583 -0.0854 -0.0719  0.0623
 5883W        W21352   8.924  15.176  12.732 -0.1168  0.0111 -0.2229
 5884W        W21353   3.190   5.419  13.926 -0.0068 -0.3230 -0.0298
 5885W        W21354   2.769   9.210  10.221 -0.2122  0.1977  0.1260
 5886W        W21355  13.243   0.959   4.712 -0.0358  0.2678  0.0611
 5887W        W21356  13.497  11.709   1.231  0.0267  0.0298 -0.0587
 5888W        W21357   8.404   2.272  11.786 -0.1677 -0.0209 -0.1183
 5889W        W21358   3.690   7.691   2.002  0.1916 -0.2062  0.2757
 5890W        W21359   0.084   9.615  15.162 -0.1808 -0.0358  0.0266
 5891W        W21360  14.743   4.788   4.395 -0.1219 -0.1368 -0.2573
 5892W        W21361   1.657  10.855  11.534 -0.0288  0.0515 -0.2392
 5893W        W21362  16.116  11.455  14.236 -0.0053 -0.0502 -0.1137
 5894W        W21363   5.997   4.538   0.198  0.1063  0.2204 -0.2482
 5895W        W21364  14.961  10.376  12.704  0.1460  0.0343 -0.1701
 5896W        W21365  10.735   9.785   0.935  0.0865  0.0420 -0.0059
 5897W        W21366  18.099  17.801  11.698  0.1665  0.2538 -0.1664
 5898W        W21367  13.648   5.380  15.792  0.0778  0.1085 -0.2828
 5899W        W21368   7.860   0.019  12.294  0.2619 -0.3088 -0.1500
 5900W        W21369   1.267  17.312  11.457  0.1482  0.1469  0.1128
 5901W        W21370   5.121   1.847  12.266  0.1200  0.0052 -0.0718
 5902W        W21371  14.458   2.840   4.344  0.0727  0.5786 -0.0188
 5903W        W21372   6.114  10.748   2.388 -0.2124 -0.1599  0.3710
 5904W        W21373   5.572   2.488   0.419  0.1032 -0.1551  0.0884
 5905W        W21374   1.978   6.887   1.223  0.0077 -0.2002 -0.0265
 5906W        W21375   4.688  12.995  13.385  0.1058 -0.2251 -0.0117
 5907W        W21376   9.751   2.935   0.201  0.0719 -0.2004  0.1752
 5908W        W21377   2.690   5.755  12.298  0.2202 -0.1737  0.1482
 5909W        W21378   4.322  16.618   1.008  0.2751  0.1832  0.1420
 5910W        W21379  14.839  10.142   5.451 -0.1633  0.1980  0.2680
 5911W        W21380  17.395  15.313  12.048  0.0954  0.3288 -0.0218
 5912W        W21381  15.431   6.406  11.960  0.1383 -0.0567 -0.1682
 5913W        W21382   7.787  14.863  15.523  0.1151 -0.2415  0.1086
 5914W        W21383   3.043   8.809   0.075  0.0450 -0.1391  0.0493
 5915W        W21384   7.079   4.151  14.615  0.1990  0.3187  0.2688
 5916W        W21385   3.295  10.113   2.934  0.1223 -0.0333 -0.1409
 5917W        W21386   3.253   4.606  15.089 -0.0751 -0.2126  0.1774
 5918W        W21387  13.549   8.282   2.528  0.2422 -0.2049  0.1011
 5919W        W21388   3.057  17.603  12.578  0.2348  0.0212  0.0452
 5920W        W21389   3.572  12.268  14.148  0.1622 -0.2596 -0.1717
 5921W        W21390   6.553   9.373  12.384 -0.3605 -0.2414 -0.2707
 5922W        W21391   0.785   9.550  13.849 -0.6206  0.1586  0.2712
 5923W        W21392   4.724   6.498  14.885  0.0140 -0.2245 -0.2598
 5924W        W21393   0.187   8.030   2.854 -0.1339 -0.0177 -0.1844
 5925W        W21394  12.771  17.937   3.374  0.1327 -0.1221 -0.2305
 5926W        W21395   7.509  14.453  11.431  0.0449 -0.2902 -0.1014
 5927W        W21396   5.675   9.953   4.430  0.1821  0.1272 -0.0625
 5928W        W21397   2.548  14.474  13.481 -0.0851  0.0832  0.2087
 5929W        W21398   0.097  16.377   4.402  0.0370  0.1940  0.1622
 5930W        W21399   6.324   5.489   0.470 -0.0527  0.2667  0.0985
 5931W        W21400  15.048   4.614  11.199  0.0725 -0.1749 -0.0921
 5932W        W21401  15.326   9.145  10.407 -0.4168  0.3045 -0.0032
 5933W        W21402   7.177   5.338  12.624 -0.1261  0.0336 -0.0709
 5934W        W21403  11.020   0.947   0.297  0.0225  0.2727  0.1660
 5935W        W21404   3.293   6.614   2.641 -0.0671 -0.2163  0.1344
 5936W        W21405   6.571  11.819   3.862 -0.1386 -0.2914  0.1460
 5937W        W21406   9.589  13.194   3.374 -0.2485  0.0974 -0.0921
 5938W        W21407   9.961  18.471   0.352 -0.0314 -0.1332  0.1060
 5939W        W21408  16.603   0.869  12.537 -0.0164 -0.0267  0.1369
 5940W        W21409  13.207   5.069   5.462 -0.0168 -0.2150  0.0507
 5941W        W21410  15.989   8.527   1.143 -0.0329 -0.1510  0.2424
 5942W        W21411   0.387  14.733  12.129  0.0847 -0.0839  0.0963
 5943W        W21412  11.496   6.691  15.742  0.2695 -0.0107  0.1459
 5944W        W21413   8.204  18.356  14.398  0.0857  0.2844  0.0546
 5945W        W21414  11.746   2.298   0.010  0.1704 -0.4148  0.1261
 5946W        W21415  10.382  15.431   1.586  0.1340  0.0833 -0.0153
 5947W        W21416  15.474   0.290  15.594  0.2046 -0.2438  0.1682
 5948W        W21417  12.043   9.945  12.767 -0.1269 -0.1023 -0.0806
 5949W        W21418   0.483   7.522  13.229  0.1092  0.1935  0.1248
 5950W        W21419   3.036  16.519   3.627  0.1286  0.3070 -0.0716
 5951W        W21420  13.490   3.613  14.297  0.1098 -0.0734 -0.2732
 5952W        W21421  11.631   2.473   5.956 -0.1379  0.2431  0.0103
 5953W        W21422  15.163  13.550  14.092 -0.0315  0.0826 -0.1119
 5954W        W21423  12.078   7.489   0.746 -0.1158  0.0528 -0.0143
 5955W        W21424   4.830  16.224  15.138  0.2967  0.1274  0.2120
 5956W        W21425   8.877   7.108   0.579 -0.0477 -0.1610  0.0974
 5957W        W21426   8.190   1.698   5.790 -0.0514  0.0464  0.1069
 5958W        W21427  16.276   3.517  11.446 -0.1249  0.0812 -0.3026
 5959W        W21428  16.751  14.336   5.504  0.2171  0.1245  0.0043
 5960W        W21429   7.535  17.247   0.217 -0.2655 -0.1600  0.1227
 5961W        W21430  13.680   1.819   2.803  0.0151 -0.0078 -0.0841
 5962W        W21431   2.788   6.522  12.249 -0.0373  0.1720  0.1323
 5963W        W21432   7.125   5.873  15.212 -0.2213  0.3476 -0.2581
 5964W        W21433   3.164   8.309   1.512  0.0321  0.1863 -0.1422
 5965W        W21434   0.963   8.282   0.315  0.1818  0.1083  0.1553
 5966W        W21435   0.272   5.705   5.921 -0.0448 -0.2366  0.0793
 5967W        W21436   0.233   0.953  14.717 -0.3186 -0.3021 -0.1228
 5968W        W21437   8.040   0.853   2.981 -0.0041 -0.0333  0.2989
 5969W        W21438   0.680  12.909  10.605 -0.0426 -0.0160 -0.0151
 5970W        W21439  15.367   0.732  15.376  0.0602  0.1210  0.1774
 5971W        W21440  14.540   9.589  10.445  0.1436 -0.0698 -0.4266
 5972W        W21441   4.118  10.109   3.821  0.0842  0.0180 -0.1448
 5973W        W21442  10.900  17.286   5.940  0.0119  0.1071  0.1852
 5974W        W21443  15.203   1.915  11.070 -0.1176 -0.0002 -0.2639
 5975W        W21444   3.141   1.291  10.725 -0.0804 -0.0923 -0.2172
 5976W        W21445  15.880   3.044   2.660 -0.1901  0.2693  0.1177
 5977W        W21446   9.808  14.659  10.959 -0.3954  0.1184  0.1185
 5978W        W21447   4.274  13.071  10.695 -0.0715 -0.2501  0.0181
 5979W        W21448   9.279   7.455   4.952 -0.1270 -0.0439 -0.1083
 5980W        W21449   4.235   4.335  13.556 -0.2628 -0.3880 -0.2958
 5981W        W21450  16.877   8.820   2.270  0.0107  0.1669  0.0641
 5982W        W21451  17.858  12.263   0.171  0.0551  0.0850  0.1057
 5983W        W21452  12.199  16.467  14.808  0.1986  0.1842 -0.1115
 5984W        W21453   2.686  16.977  11.397 -0.0559 -0.0172 -0.2063
 5985W        W21454  15.514   7.634  13.311 -0.5783  0.3246  0.0209
 5986W        W21455   3.072  11.040  12.258 -0.0036  0.0111 -0.0382
 5987W        W21456   3.667  10.718  15.400 -0.2650 -0.2120 -0.1474
 5988W        W21457   7.914   6.814  14.460  0.1161  0.1396 -0.0063
 5989W        W21458  14.139   6.425   1.375 -0.1584  0.0262 -0.0968
 5990W        W21459  14.355  16.979   4.300  0.0218  0.3740  0.3884
 5991W        W21460   4.912  14.503  14.666 -0.0766  0.4097  0.1502
 5992W        W21461   0.026   2.865   4.131 -0.1634  0.0137  0.3039
 5993W        W21462  11.294   1.117   0.657  0.1662 -0.3867  0.0970
 5994W        W21463   2.295  14.816  13.809  0.0010 -0.0990  0.1233
 5995W        W21464   5.047  12.733   0.378 -0.0660 -0.0529  0.0509
 5996W        W21465   2.000   7.980  15.223  0.3667  0.0102  0.0559
 5997W        W21466  15.257   2.621  15.560  0.0281 -0.1168  0.0585
 5998W        W21467   7.655   8.613  11.838 -0.1260 -0.2855  0.2811
 5999W        W21468   7.525   0.809   1.631  0.2814 -0.0829 -0.0765
 6000W        W21469   6.000   9.310  13.536  0.1462  0.0864  0.4343
 6001W        W21470  18.031   0.543   1.765  0.0123 -0.0372 -0.3015
 6002W        W21471  15.096  13.608  13.425 -0.0311  0.3041  0.2076
 6003W        W21472   3.820  17.184   1.785 -0.0943 -0.1972 -0.0774
 6004W        W21473   1.506  11.791   1.548 -0.3163 -0.0597 -0.0247
 6005W        W21474  16.081  18.212  12.633 -0.2333 -0.0423  0.0117
 6006W        W21475   0.922  13.950  14.127 -0.1203  0.0301 -0.2727
 6007W        W21476   9.125  14.675   0.175 -0.0762  0.0255 -0.0235
 6008W        W21477  10.768   3.883   1.252 -0.1385 -0.0107  0.0908
 6009W        W21478   0.480  16.785   2.243  0.1253  0.2026 -0.0818
 6010W        W21479   5.801  14.317   0.232  0.2359 -0.2031  0.0634
 6011W        W21480   4.275  11.705  13.119  0.3165  0.0186 -0.3058
 6012W        W21481   8.805   1.963  15.448 -0.1729 -0.1731 -0.0994
 6013W        W21482  14.590   4.208   2.840 -0.2306  0.1509 -0.0879
 6014W        W21483   7.196   9.079   0.512  0.2093 -0.1216  0.2954
 6015W        W21484   4.042   4.350  14.048 -0.2642 -0.1742  0.2178
 6016W        W21485   6.622  11.406  13.230  0.0333  0.3066 -0.0451
 6017W        W21486  11.249  15.854   3.809  0.1908 -0.0715  0.1448
 6018W        W21487   5.043  12.253   4.418  0.1112  0.1585  0.2571
 6019W        W21488  12.709  15.277  12.102 -0.1933  0.0575  0.1256
 6020W        W21489   3.281  14.360   0.657  0.6794  0.2174  0.0263
 6021W        W21490   1.496   4.561   0.064  0.0316  0.2331  0.0117
 6022W        W21491  15.633  17.550  13.391 -0.1974 -0.0252 -0.1762
 6023W        W21492   0.991   4.469   0.138 -0.2337 -0.2149 -0.1112
 6024W        W21493  12.194   6.729   1.987  0.0805  0.0538  0.2793
 6025W        W21494   5.868   0.588   0.379  0.0111  0.1330  0.2840
 6026W        W21495   8.824  10.793  15.670  0.0696 -0.1220 -0.2082
 6027W        W21496   7.584  11.640   2.521  0.1938 -0.1626 -0.1272
 6028W        W21497  13.323  17.173  12.395 -0.0275 -0.1005 -0.0823
 6029W        W21498  17.015   7.935  15.095 -0.2143 -0.1631 -0.0523
 6030W        W21499  17.709  14.932   5.609  0.2001 -0.2369  0.0513
 6031W        W21500   6.118   2.712   1.222 -0.1515  0.0143  0.0942
 6032W        W21501  14.956  18.377  14.595 -0.0463 -0.1384  0.0234
 6033W        W21502  17.576   7.334  11.313 -0.0160  0.0614 -0.1989
 6034W        W21503   7.906  13.090   0.839  0.4073 -0.1246 -0.2553
 6035W        W21504   1.781  13.501   4.330 -0.2376 -0.0160  0.0283
 6036W        W21505   1.610  16.417  11.083 -0.0822  0.1505 -0.1701
 6037W        W21506  18.267  10.816  10.644  0.2594  0.0592  0.0618
 6038W        W21507  13.086  16.835   2.816 -0.3335  0.0465  0.2296
 6039W        W21508  14.900   4.835  13.153 -0.1392  0.2748 -0.0003
 6040W        W21509   2.434   7.099   3.546  0.1151  0.0057  0.0654
 6041W        W21510   6.881  10.487  13.157  0.0618 -0.1319  0.1702
 6042W        W21511   5.931   1.281   4.004 -0.0897  0.3509 -0.0869
 6043W        W21512  13.947  16.225   1.290 -0.0441  0.1242 -0.0726
 6044W        W21513  10.308  10.589   1.842  0.0634 -0.1128  0.3381
 6045W        W21514  11.476   8.330  11.951  0.2466  0.2316 -0.3259
 6046W        W21515   9.033  14.429   1.785 -0.0205  0.1846  0.1492
 6047W        W21516   8.452   8.691   1.604 -0.0919 -0.0134 -0.0124
 6048W        W21517  10.576  14.099   1.418 -0.1308  0.2444  0.1095
 6049W        W21518   2.756  16.769   0.197  0.0703  0.0179 -0.0532
 6050W        W21519  15.448  17.484   5.517 -0.0596 -0.0073 -0.0353
 6051W        W21520  10.758   8.616   0.328 -0.0015 -0.3165  0.0188
 6052W        W21521   0.043  12.725   4.236 -0.0912  0.2234  0.0251
 6053W        W21522   3.568  12.334   3.264  0.1107 -0.0801 -0.1161
 6054W        W21523  12.867  12.311  12.670  0.0047  0.0389  0.1977
 6055W        W21524   9.183   6.035   3.431 -0.2821 -0.1852 -0.1325
 6056W        W21525   3.306  12.759   5.549  0.0244  0.2669 -0.2558
 6057W        W21526  15.248  15.707   0.973 -0.1616  0.3582  0.0594
 6058W        W21527  15.500  14.997  15.900 -0.0437 -0.1865  0.1991
 6059W        W21528  13.853  17.460   0.847 -0.1509  0.5471 -0.3688
 6060W        W21529  16.396   1.457   2.571 -0.0002  0.2035  0.2345
 6061W        W21530   3.608  14.972  12.649 -0.1613  0.1315  0.1605
 6062W        W21531   8.938   6.778  10.957 -0.0128 -0.1533  0.2180
 6063W        W21532   4.097  16.371   5.344 -0.2151  0.2682 -0.0039
 6064W        W21533  11.480  15.901  13.836 -0.1723  0.0369  0.0823
 6065W        W21534  18.406  14.726  12.483  0.0741 -0.4227  0.0778
 6066W        W21535   1.158  12.513   1.582 -0.2725  0.1093 -0.0471
 6067W        W21536   0.190   6.522  15.223 -0.1120  0.0996 -0.0872
 6068W        W21537   0.853   6.072   0.087  0.0230  0.1318  0.0850
 6069W        W21538   6.102   0.896   3.760  0.0583 -0.2030  0.5266
 6070W        W21539  11.571   9.761  12.574 -0.4568 -0.3350 -0.1110
 6071W        W21540   0.728  14.762   1.827  0.0881  0.2833  0.0020
 6072W        W21541   5.118  17.289   2.758  0.2878  0.0032 -0.1674
 6073W        W21542   7.659   3.624  13.456  0.2066 -0.2312 -0.1958
 6074W        W21543   9.747   4.894   4.676 -0.1478 -0.0539  0.0972
 6075W        W21544   3.730   3.754  15.555  0.0469 -0.1416  0.5195
 6076W        W21545   3.560   5.656   5.411 -0.0113  0.1833  0.0862
 6077W        W21546   0.288  13.136  12.737  0.0941 -0.2401  0.2857
 6078W        W21547   8.078   8.651  10.747  0.1245  0.2320 -0.0504
 6079W        W21548   8.493   0.422   4.414  0.3582  0.2291  0.1504
 6080W        W21549  16.837   8.267   2.385 -0.0776  0.1318 -0.3974
 6081W        W21550   7.829  11.945   4.876  0.0984  0.3056  0.2953
 6082W        W21551  10.037   3.983   4.144  0.2780 -0.1303 -0.1871
 6083W        W21552  13.466  15.317  10.860  0.2865  0.0223  0.0911
 6084W        W21553   0.778  15.805  11.045  0.0221  0.0138 -0.0690
 6085W        W21554  14.762   7.114  11.624 -0.3785  0.0026 -0.1174
 6086W        W21555   4.639  17.723  11.419 -0.1794  0.0077 -0.0451
 6087W        W21556   8.895   5.019   2.093  0.3810  0.1792  0.0484
 6088W        W21557  14.782   8.183   3.538 -0.1252  0.1195  0.0257
 6089W        W21558   1.320  14.575  12.400 -0.3629  0.1598 -0.0176
 6090W        W21559  13.257  15.396  12.157 -0.0437  0.1858 -0.1432
 6091W        W21560  11.281  15.441  11.622 -0.0065  0.4007  0.3918
 6092W        W21561   8.728  15.382   0.734 -0.0804  0.3623  0.0447
 6093W        W21562  15.864  15.740   5.207 -0.0094 -0.1219  0.2048
 6094W        W21563  11.967   1.973   5.154 -0.1241 -0.0503 -0.1109
 6095W        W21564   4.389   6.707   3.923 -0.0997 -0.0590  0.0129
 6096W        W21565  11.027   3.190   9.671 -0.1094 -0.0635 -0.2642
 6097W        W21566   6.804   7.138   3.178  0.1352 -0.2037  0.3475
 6098W        W21567  12.345  10.731   3.040  0.2394 -0.1383  0.3020
 6099W        W21568   2.467   2.132  10.717  0.0078 -0.2247 -0.0956
 6100W        W21569  13.875   0.077  14.513 -0.0359 -0.0166  0.2622
 6101W        W21570  16.373   2.466  14.944 -0.1505 -0.0397 -0.1537
 6102W        W21571  10.181   6.070   1.166 -0.3602  0.0451 -0.1910
 6103W        W21572   7.704  17.169   3.334  0.0148 -0.0667  0.2658
 6104W        W21573  15.048   2.627   1.762 -0.1806  0.1486 -0.2966
 6105W        W21574  10.824   4.020  14.511 -0.0645  0.4028 -0.4455
 6106W        W21575   7.937  10.136  12.936 -0.3268  0.2129 -0.0901
 6107W        W21576  15.192   3.979  12.672  0.1585  0.0957 -0.1014
 6108W        W21577   7.572   0.777   0.769 -0.2879  0.2617  0.2759
 6109W        W21578   5.954   5.585   4.667  0.0093  0.1104  0.2166
 6110W        W21579   4.164   2.534   4.190 -0.2815  0.0655 -0.5739
 6111W        W21580   4.543  10.927  14.176  0.0665  0.0136  0.0531
 6112W        W21581   4.217  10.868  10.875  0.2481  0.0891 -0.3512
 6113W        W21582   9.900   3.316   2.614  0.2818 -0.1259  0.0704
 6114W        W21583   0.622   9.536  14.439  0.2034  0.1901  0.0360
 6115W        W21584   7.232  15.134   3.830 -0.2367  0.1406 -0.0474
 6116W        W21585   1.571  10.503   3.181  0.1995  0.1161 -0.2883
 6117W        W21586   8.973  10.447   0.456  0.1748 -0.0815  0.2323
 6118W        W21587  15.629   1.911  10.746  0.0678  0.0720  0.1472
 6119W        W21588   8.184  17.052   3.331  0.1227  0.2983 -0.0429
 6120W        W21589  13.139   0.056  15.059  0.0471  0.1856  0.2655
 6121W        W21590   5.436   0.648   0.114  0.0904  0.1863 -0.2852
 6122W        W21591  11.285  18.349   4.568 -0.0096  0.3108  0.3733
 6123W        W21592  16.738  15.309   3.314 -0.4475  0.3121  0.1049
 6124W        W21593  14.456  16.668  11.330 -0.1663 -0.3498  0.2226
 6125W        W21594  15.415   9.690   0.617 -0.0326 -0.0510 -0.2429
 6126W        W21595  14.377  17.724   2.180 -0.0826 -0.0149 -0.0210
 6127W        W21596   0.328   3.325   2.441  0.0338  0.1968  0.1835
 6128W        W21597   5.392   9.964  12.927 -0.0819  0.2741 -0.2116
 6129W        W21598  13.772  17.278  15.809 -0.0528  0.1344  0.1499
 6130W        W21599  13.267   3.568   0.602  0.2621 -0.2077 -0.2809
 6131W        W21600  14.392  10.312  11.439 -0.1796  0.0250  0.0931
 6132W        W21601  14.365  12.518  10.787  0.2064  0.0788 -0.2387
 6133W        W21602   2.627   4.223  12.103 -0.0103 -0.1745  0.0383
 6134W        W21603  13.968   4.411  12.597 -0.1053  0.1287 -0.6104
 6135W        W21604  12.598   6.756   5.100  0.3216  0.0641  0.0143
 6136W        W21605   9.639   3.743  15.209 -0.0356  0.1447 -0.4149
 6137W        W21606   3.030  10.036   3.736 -0.3165  0.0920 -0.2700
 6138W        W21607  17.782  16.886  14.553  0.0889  0.1274  0.1309
 6139W        W21608  11.197  18.024   2.454 -0.1945  0.0357 -0.0094
 6140W        W21609   4.493   4.915   1.193 -0.0674  0.1565  0.2116
 6141W        W21610   0.505  17.797  11.819 -0.0961 -0.4151  0.2217
 6142W        W21611   4.809  13.184  13.796  0.2921 -0.0801 -0.1403
 6143W        W21612   7.491   4.914  13.507 -0.0490  0.4916 -0.0563
 6144W        W21613   4.712  12.340   0.748 -0.1225 -0.0603  0.0289
 6145W        W21614   7.974  18.065   1.324 -0.0316 -0.3280  0.2755
 6146W        W21615   8.953   1.438   2.898 -0.1367  0.0504  0.1578
 6147W        W21616   3.444   6.133   0.817 -0.0776  0.3436 -0.0853
 6148W        W21617   1.413  10.093   4.832 -0.2823  0.2285 -0.0126
 6149W        W21618   9.762  15.624  15.523  0.1387 -0.1079 -0.0231
 6150W        W21619   0.080   5.074   4.905 -0.0633 -0.1013  0.0024
 6151W        W21620  13.095   1.554  15.892  0.1601 -0.0344  0.0225
 6152W        W21621  17.191   3.503   5.050  0.0620  0.1328  0.1225
 6153W        W21622   8.526   2.228  12.296 -0.0202  0.0277  0.1123
 6154W        W21623  16.182  14.018   2.790  0.0792  0.0360 -0.0494
 6155W        W21624  16.548  13.354  12.492 -0.0894  0.0947 -0.0388
 6156W        W21625   8.556  10.456  13.871 -0.1680  0.1985 -0.1894
 6157W        W21626  15.105   3.489  13.931  0.0279  0.2515 -0.0171
 6158W        W21627   8.897  16.767   6.445 -0.2588  0.0170 -0.0581
 6159W        W21628  11.383   4.522   3.805 -0.0498  0.2095  0.2484
 6160W        W21629   0.552   0.014   2.139 -0.0142  0.0083 -0.2377
 6161W        W21630  17.456   3.042  13.640 -0.2004 -0.2665  0.3452
 6162W        W21631  16.260   6.226   1.649 -0.0952  0.3846 -0.1558
 6163W        W21632  14.749   0.426  14.063  0.1135  0.4205  0.2245
 6164W        W21633  17.927   9.870  13.067 -0.0615  0.0321 -0.0376
 6165W        W21634   7.602   9.436   0.139  0.1860  0.0926  0.1571
 6166W        W21635   8.271  13.071  14.776 -0.1411 -0.0668  0.0689
 6167W        W21636  15.483   9.351  14.056  0.1535 -0.2601 -0.3798
 6168W        W21637   8.724   2.405   0.161  0.0865 -0.0630  0.1026
 6169W        W21638  16.324  12.460  15.119 -0.0079 -0.1387 -0.2502
 6170W        W21639  13.257   4.653  13.949  0.0804 -0.0587  0.2567
 6171W        W21640   8.417   0.356  13.297  0.0024 -0.0323 -0.0568
 6172W        W21641  14.266   5.975  11.313  0.0564 -0.0484  0.1268
 6173W        W21642  14.549   6.781   0.240 -0.2618  0.1290 -0.0154
 6174W        W21643   8.913  17.633   2.937  0.3342 -0.2384 -0.2940
 6175W        W21644  13.500  16.403   4.530 -0.0159 -0.1747 -0.0696
 6176W        W21645  11.231   3.456  10.082 -0.0909  0.3448 -0.0359
 6177W        W21646  10.161   1.475   3.102  0.1577  0.2808 -0.3947
 6178W        W21647  11.399   1.101  12.518  0.1421 -0.1880 -0.1616
 6179W        W21648   1.791   2.046  14.174  0.2572  0.3518  0.0702
 6180W        W21649   3.343  17.542   4.965  0.1282 -0.0668  0.1262
 6181W        W21650  13.926   9.615   9.726 -0.0596 -0.4142  0.2681
 6182W        W21651   7.058  16.360  11.605  0.0095  0.0416  0.0548
 6183W        W21652  14.432  12.264   3.348 -0.0020  0.3311 -0.1363
 6184W        W21653   7.828   6.969   3.006  0.1169  0.0463 -0.1407
 6185W        W21654   7.863  13.422  14.959  0.1387  0.1641  0.1276
 6186W        W21655  16.076   1.095  14.015 -0.2105 -0.1055  0.0840
 6187W        W21656  15.312   3.311  10.021 -0.0623 -0.0305  0.1743
 6188W        W21657  10.865   1.077  14.653 -0.0390 -0.1469 -0.0209
 6189W        W21658  10.234   5.127   0.147 -0.1841 -0.2699  0.0603
 6190W        W21659  11.873  10.226   2.013 -0.0156 -0.0730  0.1693
 6191W        W21660   8.206  10.775  14.865  0.0611 -0.1829 -0.4146
 6192W        W21661  11.007  13.733   0.662 -0.0202 -0.1315 -0.3383
 6193W        W21662  17.844  10.746   3.398  0.0570  0.0251 -0.2284
 6194W        W21663   2.751  16.654   1.558  0.0047  0.1134  0.1329
 6195W        W21664   9.551  13.647   0.553  0.1593 -0.0202  0.1986
 6196W        W21665  14.835   5.028   4.835 -0.3683 -0.0115 -0.0927
 6197W        W21666  11.504  17.158  13.264 -0.0064 -0.0572 -0.0731
 6198W        W21667   0.577   8.574   2.441  0.0622 -0.1089  0.0457
 6199W        W21668   9.256   1.413   2.498 -0.0298 -0.0202  0.1168
 6200W        W21669   2.736   5.378   1.120 -0.0007  0.2521 -0.0856
 6201W        W21670   8.292   5.795   4.507 -0.0469 -0.0474  0.0669
 6202W        W21671   3.320   7.468  15.042  0.0476  0.0526  0.3212
 6203W        W21672   8.412   8.927   4.597  0.1664  0.0274  0.2209
 6204W        W21673  16.709  14.648   2.421  0.1585 -0.1679  0.0641
 6205W        W21674  10.138   2.987  15.071 -0.3410  0.0814  0.0405
 6206W        W21675   8.595  16.171   2.821 -0.1412 -0.0399  0.2147
 6207W        W21676   0.311   7.641  14.048  0.0948  0.0034  0.4613
 6208W        W21677   3.619   2.848  14.274 -0.1061 -0.1505  0.0562
 6209W        W21678  10.757   2.349   0.225  0.1993 -0.0173 -0.1219
 6210W        W21679   9.986   0.373  13.314  0.0977 -0.1112  0.3710
 6211W        W21680   4.555   5.901   2.333  0.1910 -0.0464  0.3386
 6212W        W21681  10.681   8.637  14.297  0.2910  0.4463 -0.0988
 6213W        W21682  14.207  12.783  11.157 -0.0717 -0.0340 -0.2174
 6214W        W21683   9.508  15.330  12.214  0.2258 -0.2690  0.1428
 6215W        W21684   6.543   3.929  14.691  0.0338  0.3188  0.2135
 6216W        W21685  18.170   1.126   3.742 -0.0094 -0.3778  0.0145
 6217W        W21686  13.533   1.250   4.142 -0.0959  0.1912  0.0517
 6218W        W21687  12.139  18.177  10.748  0.1354 -0.0283 -0.2986
 6219W        W21688  14.384   1.206   3.700 -0.3479 -0.1362 -0.0244
 6220W        W21689   1.798   2.562   2.809  0.2013 -0.0790  0.1593
 6221W        W21690  14.004   0.931   4.525  0.0299 -0.0253  0.1115
 6222W        W21691   4.172   1.324   0.006  0.3200 -0.0992 -0.0250
 6223W        W21692   5.580   8.046   1.386  0.0554  0.4473 -0.0282
 6224W        W21693  13.590   1.078   1.132  0.0236  0.0128  0.0594
 6225W        W21694  16.452   2.998  12.709  0.2001  0.3196  0.0900
 6226W        W21695  10.053   6.858  10.266  0.0436 -0.0456 -0.2814
 6227W        W21696  16.135  16.189  14.375 -0.1860  0.0147  0.2133
 6228W        W21697   7.161   0.886  10.780  0.1786 -0.0179 -0.0737
 6229W        W21698   7.067   6.263   5.094 -0.4146  0.3122  0.0794
 6230W        W21699  17.562  10.580   2.741 -0.1574 -0.2225  0.1425
 6231W        W21700   2.243   3.872   4.876  0.3256 -0.0624 -0.0115
 6232W        W21701  18.159  10.913   4.659  0.0060 -0.1650 -0.1495
 6233W        W21702   9.746   8.543   1.733 -0.2001 -0.0135  0.2560
 6234W        W21703   2.079  11.586   2.765 -0.2126 -0.0883 -0.1588
 6235W        W21704  16.338   1.864   2.139 -0.1101 -0.1119  0.2241
 6236W        W21705  11.774   2.153   5.579 -0.1366 -0.0598 -0.1514
 6237W        W21706  13.316   4.778  11.840 -0.1695 -0.2656 -0.0404
 6238W        W21707  12.775   3.558  15.574 -0.4924 -0.2437  0.0091
 6239W        W21708   5.818   9.302  11.441 -0.4441  0.1078 -0.0180
 6240W        W21709  15.113   0.652  13.256 -0.0600  0.2908 -0.0520
 6241W        W21710   3.536   4.442  13.536 -0.0328 -0.0706  0.1125
 6242W        W21711  15.308   8.477   9.939  0.1237  0.0871  0.1079
 6243W        W21712  10.946  15.618  15.787  0.0137  0.0816 -0.4676
 6244W        W21713  11.893  10.155  12.375  0.0440  0.2095  0.3982
 6245W        W21714   4.470   1.890  11.545  0.0272 -0.0834 -0.1464
 6246W        W21715   8.840  16.755   0.171  0.2729  0.1589 -0.3201
 6247W        W21716  12.800  17.721   5.184 -0.3153 -0.0661 -0.2763
 6248W        W21717  17.295   1.896   5.305 -0.1702 -0.0274 -0.1046
 6249W        W21718  13.281  10.407   1.387 -0.1883 -0.3079 -0.1864
 6250W        W21719  12.650   1.445   5.219  0.0206  0.2647  0.0937
 6251W        W21720  10.563   3.999   2.565  0.1493 -0.0296  0.0204
 6252W        W21721  12.360  15.268   3.026 -0.0195  0.0346 -0.2745
 6253W        W21722   5.805  17.290   1.608 -0.1374 -0.0898 -0.2882
 6254W        W21723  13.701  15.426   0.155  0.1431 -0.1772 -0.2481
 6255W        W21724   8.053  11.969  12.431  0.0752 -0.2186  0.0164
 6256W        W21725  10.436  10.177  12.722  0.0577 -0.0198 -0.0133
 6257W        W21726  16.208   6.905   4.712  0.0653 -0.2308  0.2237
 6258W        W21727  14.684   4.138   3.299 -0.1269  0.0632  0.2521
 6259W        W21728  14.160   1.114  10.807 -0.0510 -0.0943 -0.1018
 6260W        W21729  17.050  13.472   3.038 -0.1942 -0.2813 -0.1610
 6261W        W21730   1.364   0.465  10.703 -0.0752 -0.2249  0.0325
 6262W        W21731   1.271  12.088   4.787 -0.3070  0.2315  0.1704
 6263W        W21732   4.505   1.433   4.289 -0.0700 -0.0443 -0.1379
 6264W        W21733  10.897   6.616   2.095 -0.0629  0.2064  0.1628
 6265W        W21734   5.759  10.955  14.305 -0.0456  0.0876 -0.1733
 6266W        W21735   7.125   2.922  12.253  0.0337 -0.1549 -0.0149
 6267W        W21736   8.864  10.130   5.072 -0.1167 -0.1199  0.0381
 6268W        W21737  16.797  15.879  12.568 -0.0854  0.1709 -0.0395
 6269W        W21738   7.895   8.398   1.670 -0.0257 -0.1003  0.1913
 6270W        W21739   4.644   8.048   0.699  0.0692  0.0753  0.2062
 6271W        W21740  10.382   8.684  11.174 -0.1491  0.1298  0.0931
 6272W        W21741   9.002   6.450  13.382  0.1520 -0.2616 -0.1092
 6273W        W21742   8.912  16.309  15.881 -0.1860  0.0452 -0.2946
 6274W        W21743  12.175   5.358  11.282  0.3959  0.0120 -0.0163
 6275W        W21744  16.295  17.491   3.703 -0.1694  0.0113  0.2736
 6276W        W21745   7.018  11.913   2.255  0.2409  0.0785  0.0399
 6277W        W21746   5.494   7.865  13.071 -0.1676  0.2098  0.3702
 6278W        W21747   5.880   5.515   1.131  0.1684 -0.2481 -0.0977
 6279W        W21748   4.649  11.298  11.599 -0.2638  0.0234  0.0484
 6280W        W21749  13.646  16.313   4.074  0.0302  0.0756 -0.0615
 6281W        W21750  11.234   7.975  13.053  0.1505 -0.0015 -0.0140
 6282W        W21751  10.927  11.952   3.559  0.1569 -0.0941  0.0405
 6283W        W21752   8.074   6.080   2.843 -0.1759  0.0619  0.0141
 6284W        W21753   6.313   3.101   3.862  0.1747 -0.2957 -0.0806
 6285W        W21754   7.734   4.109  11.570 -0.1090 -0.0325  0.1910
 6286W        W21755   2.614  14.632  15.851 -0.0045  0.0029 -0.0646
 6287W        W21756  13.248   7.293  12.463 -0.0081 -0.0891  0.1182
 6288W        W21757   9.980   8.101   1.600 -0.3262  0.0115 -0.4066
 6289W        W21758   5.233   9.558  14.134  0.2241 -0.0474 -0.1827
 6290W        W21759  13.340  11.298  11.591 -0.1398 -0.3212 -0.0615
 6291W        W21760   2.279  12.084  15.763  0.1458  0.1461 -0.1485
 6292W        W21761   1.791   1.534   1.897  0.1122 -0.1065  0.2910
 6293W        W21762  10.368   5.758  13.662  0.2946  0.1225 -0.2278
 6294W        W21763   5.389   9.016  13.237 -0.1768 -0.1571 -0.1191
 6295W        W21764  16.019   3.619   4.602 -0.0299 -0.3245  0.0991
 6296W        W21765   5.816  17.670   0.222 -0.1811 -0.1241  0.2871
 6297W        W21766   3.977   5.113  14.427  0.0090  0.2246 -0.2322
 6298W        W21767   6.731   3.848  12.747  0.1811  0.0410 -0.1291
 6299W        W21768  13.017  10.822  12.305  0.0803  0.2151 -0.1481
 6300W        W21769   6.365   5.119  12.724 -0.2179  0.3976  0.1130
 6301W        W21770   8.176  11.316  13.980 -0.0678  0.3104  0.0742
 6302W        W21771  17.943   3.118  11.341 -0.0940  0.1994 -0.0290
 6303W        W21772   9.022   3.294   3.242 -0.2370 -0.0997  0.0248
 6304W        W21773   3.168   3.976   2.996 -0.0181  0.0493  0.1050
 6305W        W21774  16.053  17.089   3.954  0.0574 -0.0895 -0.0822
 6306W        W21775   7.565   5.160  11.825 -0.1575  0.0643  0.1286
 6307W        W21776   3.715   9.049  15.386  0.0553 -0.1309  0.0264
 6308W        W21777  18.156   6.814  12.008  0.0107  0.0378 -0.0610
 6309W        W21778   1.186   5.937   1.366  0.1494  0.0051 -0.1042
 6310W        W21779   5.177  14.569  11.825  0.2073 -0.2977 -0.2002
 6311W        W21780   4.772   7.762   2.501  0.0235  0.1191 -0.2584
 6312W        W21781   2.720   3.512   1.237  0.2454  0.0695  0.0031
 6313W        W21782   4.776  15.217   5.286  0.0715  0.0156 -0.1029
 6314W        W21783  14.948   1.800   4.988  0.0137  0.0602  0.2252
 6315W        W21784   1.592   1.045  13.307 -0.0538 -0.1201  0.1125
 6316W        W21785   8.243   5.066   2.639  0.0392  0.2281  0.0293
 6317W        W21786   7.629   8.076   5.324 -0.2463 -0.0701 -0.3661
 6318W        W21787  14.574   1.541  12.087  0.4999  0.3143  0.0009
 6319W        W21788  11.561   1.006  12.994 -0.1934 -0.2240  0.1269
 6320W        W21789  13.952   5.308   0.295  0.0796 -0.2910 -0.0880
 6321W        W21790  17.395   7.061   4.922 -0.0011 -0.1044 -0.0643
 6322W        W21791  14.272   0.729   0.909 -0.1007 -0.0466  0.2851
 6323W        W21792   6.913  17.153  11.984  0.1258 -0.1315 -0.2362
 6324W        W21793  13.644   8.310  12.083  0.0273  0.0368 -0.1481
 6325W        W21794  11.245   3.970   3.747  0.1300  0.1016  0.1014
 6326W        W21795  12.094  13.970   3.594  0.0371 -0.2090  0.2671
 6327W        W21796  16.965   9.481  10.713  0.0745  0.2022  0.1966
 6328W        W21797   6.332   7.903   0.217 -0.1831  0.0560 -0.0034
 6329W        W21798   0.103  17.081  11.879 -0.3487  0.1355 -0.0758
 6330W        W21799  10.498   6.887  12.917 -0.1319 -0.1782  0.0312
 6331W        W21800  12.791   1.827  14.616  0.1070 -0.1055  0.0851
 6332W        W21801  14.824   3.742  14.805 -0.0650 -0.1650 -0.1036
 6333W        W21802   0.441  15.621  11.958  0.0020 -0.3252  0.3615
 6334W        W21803   9.892  16.596  12.033 -0.2759  0.0018  0.0760
 6335W        W21804  13.633   5.726   4.919 -0.0265  0.0910  0.0747
 6336W        W21805   2.947  11.246   2.524  0.2168 -0.1742  0.2275
 6337W        W21806   9.097  11.976  13.947  0.1820 -0.0970 -0.0904
 6338W        W21807   9.648   9.845  15.692  0.1158  0.3359 -0.0060
 6339W        W21808  15.486   7.493   3.485 -0.3316  0.1697  0.0274
 6340W        W21809  17.804   1.150  13.580 -0.4944  0.0389 -0.4466
 6341W        W21810   9.760  10.801   4.285  0.2072 -0.1569  0.0932
 6342W        W21811   4.857  13.377   1.577 -0.0818 -0.0512  0.0575
 6343W        W21812  16.313  11.305  13.763  0.1764 -0.1533  0.1847
 6344W        W21813   0.201  13.858   4.632 -0.1851 -0.4205 -0.1177
 6345W        W21814   6.560   0.176  14.926  0.4598 -0.0384  0.4412
 6346W        W21815  11.970  14.606  15.044 -0.2291 -0.0609 -0.1094
 6347W        W21816  12.219   8.458  11.379  0.0817 -0.0598  0.0555
 6348W        W21817  15.212   1.088  13.448  0.0380 -0.1165 -0.1119
 6349W        W21818  11.102  16.755   3.665  0.1424 -0.0083  0.3532
 6350W        W21819   5.954   3.303   3.190 -0.0962  0.0169 -0.1808
 6351W        W21820   1.484  12.435   0.900  0.2198  0.1388  0.1402
 6352W        W21821  17.360  12.655   1.439  0.1192  0.0004 -0.1237
 6353W        W21822   4.784  14.948  12.828 -0.0499  0.1645  0.1137
 6354W        W21823  11.254  17.348   1.315  0.0367  0.3225  0.2102
 6355W        W21824   0.157  11.106   4.895  0.1506  0.2531  0.0951
 6356W        W21825   6.764   1.598   3.290  0.1132  0.0754 -0.1728
 6357W        W21826   3.072  13.992  13.260 -0.0487 -0.1277 -0.0664
 6358W        W21827   0.140  10.099  11.376  0.2543  0.0514 -0.3533
 6359W        W21828  16.055  14.529  14.492 -0.0103  0.1546  0.0585
 6360W        W21829   6.892   0.220   2.698  0.2884  0.0995 -0.0598
 6361W        W21830   9.399   4.438  14.332  0.0026 -0.0579 -0.2472
 6362W        W21831  11.224   6.574   1.088  0.1247 -0.1023 -0.0192
 6363W        W21832   6.049   2.060  15.138  0.0424 -0.0098 -0.2005
 6364W        W21833  15.942   2.421  15.319 -0.0356  0.0484  0.0826
 6365W        W21834   4.896   2.329  10.366  0.2079  0.0096  0.0477
 6366W        W21835   7.824  12.217   5.334  0.1582  0.0486 -0.2227
 6367W        W21836  14.590  14.164   3.125  0.1291 -0.0510  0.0065
 6368W        W21837   5.986   8.211   2.083 -0.2293  0.4186 -0.0346
 6369W        W21838   8.176   6.254   3.566  0.0483 -0.0460 -0.1414
 6370W        W21839  16.607  15.001   2.058  0.1085 -0.1039 -0.1861
 6371W        W21840   6.569   1.384   1.542 -0.0799 -0.1032 -0.0296
 6372W        W21841   4.540  12.999   4.551  0.1227 -0.1843 -0.0030
 6373W        W21842  14.305   3.932  13.128 -0.2161 -0.2337  0.0121
 6374W        W21843  14.133  17.285   2.403 -0.3050 -0.0448  0.1930
 6375W        W21844  11.572  12.979  12.029 -0.1308  0.3079 -0.0351
 6376W        W21845  10.327  10.401  13.527  0.1700  0.0434  0.0772
 6377W        W21846   0.940   7.062   4.173  0.1122  0.1540 -0.1776
 6378W        W21847  16.995  15.514  13.412  0.1421 -0.0216 -0.2043
 6379W        W21848   9.092  16.482   0.605  0.2883 -0.2048  0.0985
 6380W        W21849  17.829  15.731   1.981  0.0978 -0.1409 -0.2387
 6381W        W21850   6.421   8.274   2.422  0.0865  0.0273  0.0259
 6382W        W21851  16.625  14.258   2.764  0.4107  0.0149 -0.1306
 6383W        W21852   3.404  15.353   4.978 -0.2212 -0.0171 -0.1229
 6384W        W21853   8.617  13.307  13.053  0.1158  0.2841 -0.0624
 6385W        W21854   9.202  16.379  13.864 -0.3889 -0.0981 -0.3885
 6386W        W21855   8.448  17.302   3.714 -0.3146 -0.0410  0.0754
 6387W        W21856   4.299   2.674   0.127 -0.0008 -0.0034  0.1983
 6388W        W21857   0.824  17.181  11.815 -0.0176  0.0636  0.0556
 6389W        W21858  13.179  14.790  15.649  0.0188 -0.2367  0.1192
 6390W        W21859   7.169   0.166   5.347 -0.0948 -0.0469  0.2046
 6391W        W21860   7.097   1.500   2.511  0.1621  0.0782 -0.1955
 6392W        W21861   5.180   0.982  11.798  0.0060  0.1575 -0.1197
 6393W        W21862   4.895   7.579   0.381  0.2813  0.0853 -0.2172
 6394W        W21863   1.733  10.602  12.025  0.0255  0.0372 -0.1190
 6395W        W21864  18.021   3.546  11.026 -0.1460 -0.0542  0.0278
 6396W        W21865  13.980   2.439   3.445  0.0650 -0.1254 -0.1148
 6397W        W21866   5.997  10.032   5.821  0.1859  0.1667  0.1265
 6398W        W21867   6.928  13.246  12.121  0.1821 -0.1625 -0.0798
 6399W        W21868   3.636  16.766  14.829  0.0497 -0.4589 -0.2657
 6400W        W21869  17.499  15.782   5.105  0.1796 -0.0192  0.1423
 6401W        W21870  13.521  10.327   0.842  0.2590 -0.1380 -0.2735
 6402W        W21871   3.470  15.122  13.683  0.2019 -0.0159 -0.0358
 6403W        W21872  15.120  11.116  11.232 -0.0227  0.2710 -0.0889
 6404W        W21873   6.559   5.358  12.138 -0.0624  0.1077  0.0502
 6405W        W21874  11.666  12.345   1.346 -0.2882  0.1592  0.1355
 6406W        W21875   6.516  14.466   0.293 -0.1319  0.0441 -0.0749
 6407W        W21876   0.174   4.782   3.749 -0.1092 -0.4233 -0.1170
 6408W        W21877  10.551   0.671   5.443 -0.2895 -0.1766  0.2647
 6409W        W21878  17.494  10.069  12.683  0.1905  0.2934 -0.1735
 6410W        W21879   7.055   4.306   1.895  0.0832 -0.0493  0.1938
 6411W        W21880   8.331   0.983   3.518  0.2259  0.0638 -0.1281
 6412W        W21881   8.398   8.442   2.476 -0.0639 -0.0436  0.0699
 6413W        W21882   0.778   8.089   3.962 -0.0249 -0.1624  0.0159
 6414W        W21883  12.370   9.184  13.015 -0.2239 -0.2106  0.2708
 6415W        W21884   3.049  14.581   1.069 -0.1081 -0.0578  0.0895
 6416W        W21885   7.093  18.416  11.865 -0.0919 -0.3168  0.3277
 6417W        W21886  13.382   7.023  11.459 -0.0018 -0.0629 -0.0197
 6418W        W21887  11.528   7.553  10.765  0.0026  0.1212  0.0965
 6419W        W21888   0.524  17.354   3.971 -0.2073  0.0195 -0.2218
 6420W        W21889   9.075  16.727  13.526 -0.2198 -0.2188 -0.1060
 6421W        W21890   6.117  15.505  12.314  0.0450 -0.2149 -0.0905
 6422W        W21891   5.403  17.169  14.456 -0.3362 -0.1718 -0.4708
 6423W        W21892  15.070   8.984   2.259  0.0619 -0.1017  0.1183
 6424W        W21893   7.114  13.846   4.034 -0.4556 -0.0326  0.2143
 6425W        W21894  14.962   7.314  15.183  0.1265 -0.3067 -0.0496
 6426W        W21895  11.911   9.644  14.679  0.0111  0.3131 -0.2738
 6427W        W21896  13.128   4.803   9.511 -0.0400 -0.0209 -0.1633
 6428W        W21897   2.656   9.407   5.418 -0.2102 -0.1633  0.2207
 6429W        W21898  16.327  18.381  14.965 -0.3224  0.0892 -0.0407
 6430W        W21899   4.491   5.886   2.832 -0.1888 -0.3836 -0.2534
 6431W        W21900  11.308   2.640   2.771 -0.1344 -0.0384 -0.0338
 6432W        W21901  11.860   0.541  14.604  0.3194 -0.2918 -0.0507
 6433W        W21902  17.338   2.560  15.316  0.1808  0.2060  0.1118
 6434W        W21903  13.943   6.915   2.562  0.3967  0.2440  0.0008
 6435W        W21904   7.896   9.105   0.955  0.1099  0.4181  0.1971
 6436W        W21905   6.699  13.237  15.424 -0.1940 -0.2322  0.0859
 6437W        W21906   6.615  16.443  13.638  0.0101  0.2994  0.2146
 6438W        W21907   4.174   8.961   1.082 -0.0429  0.0652  0.0115
 6439W        W21908  17.718  14.886   2.817  0.2808 -0.2554 -0.0075
 6440W        W21909   6.816   7.992  13.467  0.2340  0.2682 -0.3809
 6441W        W21910   2.829   2.861   4.644  0.0159  0.1348  0.1111
 6442W        W21911   7.538  12.206   2.136  0.4429 -0.2805 -0.2569
 6443W        W21912   9.727   0.472   0.891  0.0016 -0.1219  0.0040
 6444W        W21913  10.196  15.796   3.504  0.1711 -0.1233  0.2570
 6445W        W21914  10.159   3.982  15.394  0.3037  0.1680 -0.0650
 6446W        W21915  14.186   5.024  11.063 -0.0933 -0.3441  0.3219
 6447W        W21916   5.693  11.408  12.888 -0.0069  0.0358 -0.0503
 6448W        W21917   3.197   7.295   3.002  0.1365 -0.0055 -0.0808
 6449W        W21918   6.233  11.595  13.904 -0.0391 -0.1342  0.2638
 6450W        W21919   3.103  14.755  12.730 -0.0540 -0.1574  0.0842
 6451W        W21920  11.561   7.442   1.855 -0.1183  0.0940 -0.5831
 6452W        W21921  17.939  12.794   0.044  0.0424  0.0529 -0.0878
 6453W        W21922   1.276   2.970   3.082 -0.0824  0.0802  0.0223
 6454W        W21923  15.677   5.322  15.532 -0.0434  0.0287 -0.2067
 6455W        W21924  12.683   3.957   5.672 -0.3242  0.0442  0.0174
 6456W        W21925   8.727   2.782  11.280 -0.1729 -0.0077 -0.0388
 6457W        W21926   0.289  16.431  11.378  0.2183 -0.0153  0.0730
 6458W        W21927   0.157   2.877  11.556  0.2065  0.2375 -0.2530
 6459W        W21928  17.388   0.050  13.354 -0.2614  0.3134 -0.1934
 6460W        W21929   6.872  18.292   1.020  0.0704 -0.1110  0.1696
 6461W        W21930  11.050  11.299  12.078  0.1734 -0.1303 -0.3449
 6462W        W21931   4.950   6.239   0.178  0.0811 -0.1800  0.1168
 6463W        W21932  18.390   7.890  11.360 -0.1707  0.2105 -0.0872
 6464W        W21933  14.327  16.971   1.529  0.1748 -0.0199 -0.1155
 6465W        W21934   2.281   2.773   4.857 -0.1724  0.2936 -0.0530
 6466W        W21935  14.013  15.898  14.721  0.0162 -0.0854 -0.0987
 6467W        W21936  10.444  17.491  13.962 -0.0306  0.1086 -0.0895
 6468W        W21937   0.608   9.040   2.274 -0.3675  0.0406  0.1309
 6469W        W21938  17.774   2.983   1.143 -0.2070  0.0271  0.0017
 6470W        W21939  18.090  13.690   0.097 -0.1850  0.0245  0.1321
 6471W        W21940   1.469  17.497  14.377  0.2970  0.0671 -0.1200
 6472W        W21941  10.851  12.257  10.198  0.0167  0.0147  0.1196
 6473W        W21942   2.419   1.623  15.625 -0.0843  0.1885  0.1123
 6474W        W21943   9.266   0.231   4.706 -0.3818 -0.0329  0.1329
 6475W        W21944  16.692  15.071  13.087 -0.1587 -0.1024  0.2753
 6476W        W21945  14.311  17.842  14.858  0.1082  0.0188 -0.1243
 6477W        W21946   8.204   5.097   2.169 -0.1742  0.1121 -0.1507
 6478W        W21947   2.718   9.921   0.448  0.0671  0.0157 -0.0957
 6479W        W21948   2.566   3.752   3.760  0.0634  0.2220 -0.0332
 6480W        W21949   3.843   3.997  14.707  0.3086 -0.2555  0.1069
 6481W        W21950  17.412   8.326   4.443 -0.1187 -0.4275  0.0536
 6482W        W21951  17.297  16.856  14.509  0.1530  0.0653 -0.1048
 6483W        W21952   3.271  18.003   4.686 -0.0238  0.1692 -0.0549
 6484W        W21953   4.183   7.851   4.289  0.0980 -0.1523  0.0608
 6485W        W21954  17.523  18.365  11.498  0.1376 -0.1552  0.0137
 6486W        W21955   0.237   6.875   1.165  0.3531  0.0394  0.2503
 6487W        W21956   2.995  13.716   4.654 -0.0397  0.1971  0.0527
 6488W        W21957   3.328   1.397  12.522 -0.3086  0.0522  0.2152
 6489W        W21958   1.959   8.387   4.608  0.0599  0.1509  0.1689
 6490W        W21959  11.088   8.290   1.860 -0.3373 -0.1951  0.0098
 6491W        W21960  18.029  16.945  13.587  0.2134  0.0153 -0.0345
 6492W        W21961  18.274   4.921   0.002 -0.0282  0.0886 -0.1026
 6493W        W21962   8.017  17.920  14.254  0.0814  0.0718 -0.1311
 6494W        W21963   5.481  17.929  15.142 -0.0753 -0.1515 -0.2627
 6495W        W21964  14.038  18.449   5.508 -0.0461  0.2105 -0.1469
 6496W        W21965   3.825   5.420  15.904 -0.0936  0.3140  0.0064
 6497W        W21966   6.516  16.982   2.053  0.1491  0.2443  0.1315
 6498W        W21967   9.864  16.792  13.006  0.3220  0.1847  0.0721
 6499W        W21968   2.243  11.806   2.363  0.1507  0.0325  0.2579
 6500W        W21969  15.121  11.961  13.526  0.0624  0.2138 -0.0408
 6501W        W21970  17.622  14.446   2.697  0.0660  0.2581 -0.0803
 6502W        W21971  15.071   5.426   4.615 -0.0401 -0.2386  0.2154
 6503W        W21972  12.680   3.540  13.877  0.1348 -0.0440  0.0832
 6504W        W21973  10.521  12.545  14.648 -0.0933  0.1411  0.0462
 6505W        W21974   2.914  18.010   2.271 -0.2359 -0.2273  0.2914
 6506W        W21975  14.442  16.828  14.215  0.1690  0.1027 -0.1555
 6507W        W21976   1.172  10.755   3.434  0.2167  0.1036 -0.0401
 6508W        W21977  14.369   0.155   5.199 -0.3437 -0.0482 -0.1708
 6509W        W21978  15.778  10.542   1.000  0.3903 -0.0988  0.4211
 6510W        W21979   3.577   3.303  10.996 -0.3422  0.0966  0.2293
 6511W        W21980  16.119   0.232   9.632 -0.0093 -0.0924  0.0662
 6512W        W21981  13.192   9.406  15.048 -0.0804  0.2216  0.1938
 6513W        W21982  17.572   3.364  11.072  0.0910 -0.0891 -0.0246
 6514W        W21983   6.405   0.229   1.129  0.1463  0.1040  0.0606
 6515W        W21984  11.476   2.193  13.151  0.2252 -0.1476 -0.0233
 6516W        W21985  17.427   2.931   2.150  0.0712  0.0726  0.2625
 6517W        W21986  18.122   8.217   3.578  0.2857 -0.3308 -0.3533
 6518W        W21987  11.049  18.197   5.042  0.0824  0.2378 -0.0288
 6519W        W21988   1.946  14.477  13.614  0.4018 -0.0323  0.1183
 6520W        W21989  12.361   3.946  13.042  0.3369 -0.3755  0.0984
 6521W        W21990  11.777   3.092  15.742  0.0449 -0.2438 -0.2033
 6522W        W21991   0.592   5.184  15.373 -0.1979 -0.2203  0.4514
 6523W        W21992   4.051  15.852   3.060 -0.3503  0.0546 -0.3829
 6524W        W21993   2.426  11.157  11.440 -0.1630  0.1997  0.1619
 6525W        W21994  11.442   7.954  13.937 -0.3008 -0.3855 -0.1373
 6526W        W21995  12.327  15.096   4.464 -0.2164  0.2011 -0.1815
 6527W        W21996   6.544   7.831  14.470  0.0271 -0.1910 -0.3790
 6528W        W21997   1.168  10.914  13.439 -0.0043 -0.2069  0.2397
 6529W        W21998  12.417   1.338  12.848 -0.4060  0.1491 -0.0788
 6530W        W21999  15.717  16.190  11.050  0.2823  0.1669  0.2029
 6531W        W22000   3.163   3.173   5.037 -0.2027  0.0663 -0.1333
 6532W        W22001   5.344  15.331   2.425  0.1398 -0.1520 -0.1226
 6533W        W22002  13.740   1.412  14.660 -0.1067  0.3352 -0.0242
 6534W        W22003  13.345   7.660  12.038  0.1730 -0.0587 -0.0875
 6535W        W22004   2.315   1.608   1.666  0.0199 -0.0244  0.0181
 6536W        W22005   7.804   6.644  10.919 -0.0071 -0.1532  0.1918
 6537W        W22006   0.258   9.979  12.612 -0.3774  0.0115  0.1596
 6538W        W22007  17.119   6.140   1.575  0.3039 -0.2267 -0.0104
 6539W        W22008   4.541  17.623  12.398  0.0193 -0.1058 -0.0615
 6540W        W22009   8.582   2.728  15.672  0.1738 -0.1704  0.0587
 6541W        W22010  17.149   7.490   5.108  0.1935 -0.0392 -0.0634
 6542W        W22011  15.502  10.726  12.768 -0.0160 -0.4056  0.0044
 6543W        W22012  13.876  10.313   2.306 -0.1104  0.3215  0.2169
 6544W        W22013  14.495  12.103  14.147  0.0228 -0.3496  0.0017
 6545W        W22014   2.230   2.379   1.000 -0.1231  0.1300 -0.1418
 6546W        W22015   0.398  13.332   0.819 -0.0694 -0.1740 -0.0260
 6547W        W22016  17.891   0.662  13.580  0.0280 -0.2850 -0.2765
 6548W        W22017   0.137   1.673   1.365  0.1750  0.0788 -0.0046
 6549W        W22018  17.852  13.088   0.695 -0.2494 -0.1828 -0.0611
 6550W        W22019   7.451   6.948  11.507  0.0924  0.2004 -0.0523
 6551W        W22020   2.354   2.897   5.434  0.3458 -0.0756 -0.0775
 6552W        W22021  16.172   1.588   5.529  0.1856 -0.0303  0.3525
 6553W        W22022   2.009   5.458  15.836  0.2901  0.1961  0.1130
 6554W        W22023   6.286   3.608  13.668 -0.1500 -0.0552  0.0393
 6555W        W22024   9.984   3.249  12.669  0.0975 -0.1959 -0.0903
 6556W        W22025  17.679  14.528   1.466 -0.2676  0.0096 -0.0618
 6557W        W22026   0.471   0.690  13.065 -0.0695 -0.4559 -0.0412
 6558W        W22027  10.676  15.345  11.611  0.3266 -0.1101 -0.1409
 6559W        W22028   1.232  10.138   4.108 -0.2252  0.0974 -0.3067
 6560W        W22029  13.543  15.783  11.880 -0.0158 -0.0227  0.1741
 6561W        W22030   1.533  10.892  14.543 -0.1560 -0.5409 -0.0609
 6562W        W22031  12.871  16.259   3.542  0.1996  0.1274 -0.1119
 6563W        W22032   4.070   2.241  15.615 -0.2705  0.0012 -0.0624
 6564W        W22033  11.508  18.307  11.415 -0.1339 -0.2039 -0.1372
 6565W        W22034  17.989   1.805  14.504 -0.2254 -0.3232  0.0991
 6566W        W22035  10.375  14.500  12.662 -0.3367  0.0707  0.2434
 6567W        W22036   9.047   3.647   1.807  0.2860 -0.2007 -0.1160
 6568W        W22037   8.177   5.939  12.311 -0.2597  0.0458  0.0116
 6569W        W22038  10.410   7.320  15.052 -0.0482  0.1287  0.0640
 6570W        W22039  10.615   5.519   5.172 -0.1435 -0.0019 -0.2348
 6571W        W22040  18.483   4.581   4.214  0.2778  0.1300 -0.0246
 6572W        W22041  16.922   4.261   1.164 -0.0331 -0.0304  0.0534
 6573W        W22042   3.070   3.291   4.592 -0.0547 -0.1468  0.2487
 6574W        W22043  16.194   4.011   1.342  0.0010  0.0421 -0.0727
 6575W        W22044  10.390   6.496   1.417  0.1665 -0.0440  0.0360
 6576W        W22045   9.559  18.214   1.830 -0.0559 -0.0655 -0.2259
 6577W        W22046  16.228  13.662  14.467 -0.0749 -0.1675 -0.3415
 6578W        W22047   2.511  13.055  14.382 -0.1580  0.1692  0.1162
 6579W        W22048   7.874   4.401   2.425 -0.0882 -0.1040 -0.1166
 6580W        W22049   8.054  11.903   5.673 -0.2092 -0.2070  0.2223
 6581W        W22050  17.669   7.309  13.295  0.1267  0.2943 -0.0737
 6582W        W22051  13.524   8.325  13.291  0.0673 -0.0128 -0.1031
 6583W        W22052  15.743   8.280  13.784  0.3968  0.5186 -0.1390
 6584W        W22053   0.363  15.992   5.323 -0.0816  0.1966  0.0709
 6585W        W22054  10.240   9.390   2.594  0.1465  0.1044  0.0994
 6586W        W22055  15.406   2.735   0.621 -0.3029  0.1420 -0.1840
 6587W        W22056  13.155   3.464  11.543  0.1910 -0.0894  0.0167
 6588W        W22057   3.659  15.454  11.415  0.0766 -0.0230  0.2144
 6589W        W22058  13.956   7.031   9.946  0.0540  0.3430 -0.0380
 6590W        W22059  10.235  12.335   1.929  0.1337  0.0652 -0.2265
 6591W        W22060   6.250   0.044   3.509  0.1744  0.4207  0.0990
 6592W        W22061  13.499  13.962  14.960  0.2752 -0.1044  0.1269
 6593W        W22062   5.857  12.684   1.754  0.0618 -0.1903  0.0195
 6594W        W22063  16.072  18.296  14.286  0.2137  0.0524 -0.0343
 6595W        W22064  14.698   7.061   2.373  0.2266 -0.2447  0.0624
 6596W        W22065   8.056   9.718   5.000  0.2071  0.0390 -0.1164
 6597W        W22066   1.593   7.077  13.668 -0.1447  0.0650 -0.0928
 6598W        W22067  17.114   5.346   2.567  0.0942  0.1251 -0.0514
 6599W        W22068  12.842   0.409  10.052  0.1161 -0.2861  0.1054
 6600W        W22069   8.050   5.336  15.207 -0.1877  0.0410  0.0975
 6601W        W22070   6.490   4.432   1.938  0.4076 -0.0602  0.1528
 6602W        W22071  17.626   7.444   0.095 -0.2170 -0.1307  0.2700
 6603W        W22072  17.065  15.328  12.866  0.0154  0.1021 -0.1211
 6604W        W22073  10.584   5.891   1.491 -0.0452  0.0239 -0.1151
 6605W        W22074   0.789   0.944   2.768 -0.1268 -0.1524 -0.2914
 6606W        W22075   2.242   5.917   3.706  0.1026 -0.2411  0.3494
 6607W        W22076  15.764  14.416   0.784  0.0285  0.1082  0.0507
 6608W        W22077   1.809  15.670   4.771  0.1223  0.2389 -0.3093
 6609W        W22078   0.056  10.195  15.362 -0.3605 -0.1153  0.0795
 6610W        W22079   5.261   6.514   5.030 -0.2102 -0.1507 -0.4882
 6611W        W22080   3.013   8.515   6.335  0.2166 -0.0118  0.0521
 6612W        W22081  10.662  15.777  14.124 -0.0985 -0.2334 -0.1288
 6613W        W22082   8.177   4.123  10.625 -0.1700  0.0437 -0.1828
 6614W        W22083   9.970   1.962   5.454 -0.3005 -0.1679  0.0566
 6615W        W22084   7.411   5.488   3.816 -0.0515  0.1162 -0.0072
 6616W        W22085   0.154   7.422  15.369 -0.1200 -0.3728 -0.0372
 6617W        W22086   5.238  10.708   2.356 -0.1592  0.1586  0.2141
 6618W        W22087   0.230   1.965  14.789  0.2123  0.2271 -0.3541
 6619W        W22088  10.267  12.831   5.337 -0.4172  0.2569  0.3214
 6620W        W22089   2.218  14.289  15.784 -0.0087 -0.2668  0.1010
 6621W        W22090   1.743   4.673   0.495  0.1624  0.2346 -0.1135
 6622W        W22091   1.303  12.516  12.200 -0.2305  0.0857 -0.1512
 6623W        W22092   8.145   7.688  10.863 -0.4822 -0.3379 -0.3009
 6624W        W22093  10.278   6.973   4.511  0.1469 -0.2274 -0.0909
 6625W        W22094  11.106  16.202  15.542  0.4994 -0.1324 -0.0591
 6626W        W22095  12.307   5.482  13.426 -0.1116 -0.1304  0.0527
 6627W        W22096  15.620   6.077   3.041 -0.0036  0.0944  0.1908
 6628W        W22097  10.300  17.140   0.541 -0.2106  0.0944  0.1387
 6629W        W22098  12.447  13.532   2.790 -0.1434 -0.1570 -0.1365
 6630W        W22099  14.211   2.034   2.758 -0.1048 -0.2614 -0.3793
 6631W        W22100   3.580   3.673   4.380 -0.0299  0.0100  0.1268
 6632W        W22101   4.929   0.123  14.301 -0.3205  0.2938  0.0892
 6633W        W22102   2.124   2.985   3.627 -0.4844  0.2151 -0.1336
 6634W        W22103   1.558   5.107   4.900 -0.0127 -0.1823  0.2289
 6635W        W22104   4.472  16.559  14.158 -0.1046 -0.1722  0.2239
 6636W        W22105   3.477   1.007   2.810  0.1557  0.1300 -0.2418
 6637W        W22106  16.515  16.056   3.861  0.0545 -0.2709  0.1821
 6638W        W22107  17.149  18.476   3.563 -0.0682  0.1792  0.1425
 6639W        W22108   8.539  15.353  12.438 -0.1055 -0.0753  0.0016
 6640W        W22109   3.604  10.317   0.895  0.0847  0.0720 -0.0246
 6641W        W22110   6.994  15.064  15.559 -0.0594  0.4792  0.3200
 6642W        W22111   2.302  11.463   0.052  0.0446 -0.0082 -0.0494
 6643W        W22112   4.497   5.333   3.433  0.1601 -0.3365 -0.1421
 6644W        W22113  17.400  13.862  12.054 -0.0155  0.0673  0.0405
 6645W        W22114  16.874   3.485   1.156 -0.0986 -0.1694 -0.0473
 6646W        W22115   7.532   3.008  15.524  0.0361  0.1257  0.1140
 6647W        W22116   0.377   8.307   0.006 -0.0701  0.0543  0.1727
 6648W        W22117  14.619  18.269   1.920  0.0149  0.1775 -0.0839
 6649W        W22118  13.409  13.941  14.165 -0.0291  0.0785 -0.2814
 6650W        W22119  11.733   6.125   2.218  0.0851  0.1147 -0.0459
 6651W        W22120  17.741   6.384   5.531  0.1634 -0.0725 -0.0324
 6652W        W22121   4.512  15.230  11.145  0.0156 -0.1764  0.0330
 6653W        W22122  15.328  17.761   2.939 -0.1351  0.0518  0.0873
 6654W        W22123  18.390   5.920   1.964 -0.1361  0.0774 -0.1242
 6655W        W22124  10.059   6.393   0.268 -0.1415  0.1517 -0.0325
 6656W        W22125   1.597  12.295  13.106  0.0476  0.2614  0.1400
 6657W        W22126   9.080   9.495  13.138  0.1501  0.1314  0.1979
 6658W        W22127  16.713  17.125   2.161 -0.0087 -0.1069  0.1262
 6659W        W22128  14.848   7.443  13.416  0.0223 -0.0261 -0.1497
 6660W        W22129  10.899  11.794   0.771 -0.0116 -0.3393 -0.1472
 6661W        W22130   5.970   3.899   3.893 -0.0868 -0.1086  0.0938
 6662W        W22131   5.863   3.930   5.535 -0.0869 -0.0077  0.0143
 6663W        W22132   1.308   7.148   3.263  0.2621 -0.1596  0.2043
 6664W        W22133  16.948   0.032  14.500 -0.1726  0.2998  0.2144
 6665W        W22134   8.241  11.553   4.909 -0.0118  0.0289  0.0342
 6666W        W22135  15.074  15.490   2.809 -0.1945 -0.1908  0.0634
 6667W        W22136   4.324   7.403   4.488 -0.0483 -0.2268  0.1772
 6668W        W22137   7.897   0.121   1.276 -0.0396  0.1521  0.0369
 6669W        W22138   7.127   0.128  12.730  0.0217  0.1572  0.0208
 6670W        W22139   6.584  10.821  14.691 -0.0769  0.1862  0.5534
 6671W        W22140   3.668  16.082   5.280 -0.3871 -0.1521  0.1037
 6672W        W22141   1.610  10.752   0.361  0.2836  0.1155  0.1025
 6673W        W22142   3.852   1.349   5.636 -0.0628 -0.1162  0.0473
 6674W        W22143  10.293   9.397  13.902 -0.0831  0.1162  0.0936
 6675W        W22144  14.222   1.682  12.485  0.2904  0.0666  0.2298
 6676W        W22145   1.156  10.001  10.556  0.0262 -0.1720 -0.1707
 6677W        W22146   0.380   8.347  14.448 -0.0483 -0.0234 -0.0231
 6678W        W22147  10.871  13.985   2.331  0.0075 -0.0511  0.2478
 6679W        W22148   5.563  12.153   1.465 -0.1922  0.1637 -0.2741
 6680W        W22149   0.065   7.281   2.342 -0.1634  0.5077 -0.0683
 6681W        W22150  11.386  16.652  11.835 -0.2063  0.1362  0.1164
 6682W        W22151   3.984  12.275  15.853 -0.0083  0.0904  0.2650
 6683W        W22152  17.316   7.969   1.195 -0.2560  0.2671 -0.0982
 6684W        W22153   5.181  18.142   1.407 -0.2593 -0.3322 -0.2953
 6685W        W22154  14.914   6.203  12.283 -0.4175  0.0372  0.2753
 6686W        W22155   9.662   6.143  15.063 -0.2460 -0.0417  0.1613
 6687W        W22156  15.161   5.793   1.163 -0.1074 -0.0230 -0.0467
 6688W        W22157   3.405  10.624   0.063  0.4809 -0.1158 -0.2864
 6689W        W22158  15.940  16.389  13.953  0.1230  0.1125  0.1085
 6690W        W22159  13.563   8.422   3.567 -0.0335  0.1947 -0.2008
 6691W        W22160  12.412  13.551  15.628 -0.0348  0.0196  0.0391
 6692W        W22161   3.668   4.986  15.829  0.2041  0.0537 -0.0727
 6693W        W22162   4.323  10.961  13.610  0.2209 -0.2629 -0.0532
 6694W        W22163   7.167   4.203   0.935  0.0699  0.0493 -0.1144
 6695W        W22164  13.191  13.786  14.596  0.0689 -0.1398 -0.0011
 6696W        W22165   7.928   4.373  13.687  0.1435 -0.0013 -0.2200
 6697W        W22166   3.248  13.107  12.959  0.0049  0.0139 -0.2062
 6698W        W22167   2.839  14.092  12.197 -0.2003 -0.0215  0.0163
 6699W        W22168  13.182   5.534  15.756  0.2454 -0.0241  0.0887
 6700W        W22169  17.793  10.224   2.439  0.0273 -0.0111  0.3001
 6701W        W22170   0.846  16.964  14.507 -0.0894  0.1615 -0.2797
 6702W        W22171  14.841  13.329   4.690  0.0323 -0.2454  0.0275
 6703W        W22172   7.056  15.265   2.375  0.0639  0.2019 -0.2331
 6704W        W22173  15.235  17.759  15.163 -0.1826  0.2025 -0.0988
 6705W        W22174  16.924   3.767   0.128  0.1086  0.3232  0.1402
 6706W        W22175   0.256  16.557   0.397  0.0082  0.1583 -0.1452
 6707W        W22176   3.452  16.794   3.632 -0.1937 -0.1068 -0.0855
 6708W        W22177  14.714  14.311   4.888 -0.0063  0.0281  0.3078
 6709W        W22178   3.828   4.836  13.958  0.1128 -0.2212 -0.1772
 6710W        W22179  13.910   1.740  14.924  0.2822 -0.1661  0.0286
 6711W        W22180  14.777  14.854  13.880 -0.1118 -0.2073 -0.0989
 6712W        W22181  16.651  11.540   3.696  0.0706  0.1256  0.1016
 6713W        W22182   9.648   5.043   9.856  0.0764  0.1348 -0.1413
 6714W        W22183   0.379   6.164   3.827 -0.2533  0.0539 -0.1150
 6715W        W22184   6.134   8.524   1.570 -0.0037 -0.1181 -0.1302
 6716W        W22185  10.035   4.861  15.714 -0.0404  0.0405  0.2773
 6717W        W22186  12.881   2.120   4.357  0.1185  0.1978 -0.2181
 6718W        W22187  17.328   2.227  12.650  0.1077  0.1443  0.2526
 6719W        W22188  18.441  10.462  10.129  0.0756  0.0657  0.0098
 6720W        W22189  16.244  12.708  11.519 -0.1240  0.0276  0.0915
 6721W        W22190  12.880  13.029   2.071  0.3037  0.3759 -0.0888
 6722W        W22191  17.523  16.366   2.086 -0.2585 -0.0471  0.3499
 6723W        W22192  17.534   5.796   1.668  0.3407  0.0535  0.1015
 6724W        W22193   3.651   1.204  11.522  0.0815 -0.1101 -0.1281
 6725W        W22194   6.252   6.603   2.743  0.3006 -0.5620 -0.0035
 6726W        W22195  11.128   6.383  15.621  0.2723 -0.0321  0.0178
 6727W        W22196   4.669  13.173   0.220  0.2400  0.0026 -0.1175
 6728W        W22197  18.184   8.726   4.268 -0.1548 -0.1205  0.1558
 6729W        W22198   8.258   7.846  12.007 -0.2326 -0.0080 -0.1050
 6730W        W22199  15.516  11.813  13.112  0.0683  0.2086  0.4401
 6731W        W22200   3.805   3.190   6.129  0.0492  0.3134 -0.1753
 6732W        W22201  16.648  14.445   1.581  0.1627  0.0636  0.0186
 6733W        W22202   2.818  18.037  12.813 -0.0910 -0.2147 -0.2287
 6734W        W22203   7.402  15.485  11.013 -0.1420 -0.0331 -0.0834
 6735W        W22204   3.321   1.530  15.827  0.0336  0.4195 -0.0705
 6736W        W22205   0.902  16.285  12.589  0.1238  0.2111  0.2200
 6737W        W22206  11.593   3.326  12.462 -0.3400  0.1042  0.2162
 6738W        W22207  16.649  12.040  11.104 -0.1046  0.0749 -0.0743
 6739W        W22208   8.888  14.207  11.324  0.1605 -0.2352 -0.2617
 6740W        W22209  16.626  10.157   4.705  0.1277  0.1315  0.0859
 6741W        W22210  16.836   2.044   1.897 -0.2457  0.1230  0.2224
 6742W        W22211   1.325   4.027  13.247  0.0434 -0.2774  0.2084
 6743W        W22212   9.504  17.925  15.620 -0.0444  0.1330 -0.1383
 6744W        W22213   7.238  16.937   2.592  0.0134  0.1737  0.1465
 6745W        W22214  13.908  18.047  14.550  0.0146 -0.1396 -0.0893
 6746W        W22215   4.968  14.660   6.157 -0.0067 -0.3005  0.1553
 6747W        W22216   3.580   4.470  15.916 -0.2969 -0.1863  0.0869
 6748W        W22217  17.280  14.007  10.162  0.0209  0.0052  0.0508
 6749W        W22218   5.118   8.462   2.040 -0.3481 -0.4007 -0.1792
 6750W        W22219  17.782  12.412   3.895 -0.4110 -0.1844 -0.2912
 6751W        W22220   3.550   6.312  13.227 -0.2546  0.1743 -0.2349
 6752W        W22221  14.803   6.979   0.886 -0.0122 -0.2419  0.1416
 6753W        W22222   1.312   4.070   0.155 -0.0602 -0.0321 -0.0411
 6754W        W22223  12.037   6.936   3.288 -0.3146 -0.1326 -0.0597
 6755W        W22224   9.123   2.109   0.379  0.1462 -0.0783  0.0212
 6756W        W22225   1.004  17.446  14.546  0.1939 -0.4814 -0.1119
 6757W        W22226  17.970   0.525   4.178 -0.0822 -0.2901 -0.0381
 6758W        W22227  15.631   3.968  11.337 -0.0396  0.0502  0.3220
 6759W        W22228  17.487   9.154   0.870  0.2336  0.0303  0.4233
 6760W        W22229  18.010  17.363  13.198  0.1678 -0.0384 -0.2775
 6761W        W22230  16.660  17.406  13.663  0.1055 -0.0391 -0.1376
 6762W        W22231   8.352   1.105   2.246  0.2232 -0.0232 -0.2626
 6763W        W22232  15.143   2.694  10.135 -0.1131 -0.1660  0.2252
 6764W        W22233  10.875   0.323   0.753  0.0762 -0.2872 -0.0032
 6765W        W22234   2.425  15.568   3.659 -0.2166 -0.0372  0.0937
 6766W        W22235   9.604  17.710  11.866  0.1702 -0.0657 -0.0222
 6767W        W22236  18.308   3.158   2.434  0.0169  0.0192 -0.0736
 6768W        W22237   8.837   4.194  13.563  0.2034 -0.0214 -0.0186
 6769W        W22238   7.394   7.310  14.812  0.0317 -0.0911 -0.1156
 6770W        W22239  10.313  10.392   2.573  0.0358  0.1635  0.1444
 6771W        W22240   0.403  13.922  13.296 -0.0340  0.6284 -0.2522
 6772W        W22241   2.590   9.619  15.542  0.3218 -0.2203 -0.0426
 6773W        W22242  12.417  12.848  10.695  0.4725  0.1442  0.2303
 6774W        W22243   9.028  10.442   0.973  0.0368  0.3580  0.0104
 6775W        W22244  10.889   4.693  15.504 -0.1610  0.4128  0.2863
 6776W        W22245  16.478  14.613   3.727 -0.0934 -0.0865 -0.0596
 6777W        W22246  14.929  15.189  13.055  0.1698  0.4383  0.0796
 6778W        W22247  14.005   0.152  15.425  0.1482  0.0626  0.0704
 6779W        W22248   5.500   5.838  15.334  0.0272 -0.1027  0.0870
 6780W        W22249  15.875   2.598   4.982  0.1020  0.0086  0.2593
 6781W        W22250   1.152  12.023  10.511  0.2654 -0.0674  0.0402
 6782W        W22251  15.517   0.022   0.612  0.0650  0.0770 -0.0740
 6783W        W22252   6.864   4.814  10.830 -0.1721  0.3316 -0.1957
 6784W        W22253  15.415  11.055  14.673  0.1295 -0.3067 -0.1705
 6785W        W22254  17.684   4.270   2.273 -0.1573  0.2278  0.0511
 6786W        W22255   0.095  11.646   2.147 -0.1920 -0.0532  0.1479
 6787W        W22256  15.358  16.096   3.704 -0.0485  0.1936 -0.0587
 6788W        W22257  18.440   1.129  15.160 -0.2265  0.1473 -0.0530
 6789W        W22258  11.470  10.330   1.206  0.1009  0.2864  0.0440
 6790W        W22259   2.130  15.134  15.470 -0.0919 -0.0740  0.2766
 6791W        W22260  15.084   0.619  12.312  0.3684 -0.0792  0.0914
 6792W        W22261   4.155   9.056   2.468 -0.0238  0.4227 -0.3215
 6793W        W22262   5.929  12.998   6.048  0.4242 -0.0285 -0.0407
 6794W        W22263  18.031  18.042  13.926  0.0894  0.1565 -0.2177
 6795W        W22264  10.475   3.163   4.291 -0.0258 -0.2965 -0.1117
 6796W        W22265  11.490  12.708  11.532  0.1877 -0.0981 -0.1291
 6797W        W22266  11.381   5.493   1.757 -0.1000  0.0978  0.1192
 6798W        W22267  11.090  14.127   3.727  0.1097  0.0195  0.2424
 6799W        W22268   7.629   0.032   4.004  0.0317 -0.2493  0.0615
 6800W        W22269   2.776   4.948   0.789 -0.0129  0.0723  0.0350
 6801W        W22270   5.634  15.357  11.580 -0.2309  0.2660  0.0791
 6802W        W22271   2.038  13.493   0.110  0.3598  0.0288  0.0188
 6803W        W22272  12.738  18.352  12.127  0.1578  0.4388  0.1990
 6804W        W22273  11.927   3.468  11.255  0.2569  0.1737  0.0027
 6805W        W22274  13.227   3.194  14.430 -0.2569  0.0515 -0.1363
 6806W        W22275  17.946   0.291  14.487  0.1985 -0.0220 -0.0803
 6807W        W22276  15.054   5.899   3.740  0.3187 -0.1808 -0.1294
 6808W        W22277  13.255  11.095   2.657 -0.1600 -0.3411  0.0101
 6809W        W22278   5.594   7.596  14.694  0.0889  0.0698  0.1703
 6810W        W22279  10.790   9.639   1.441  0.2523  0.1746 -0.0202
 6811W        W22280  10.908  15.933  12.492 -0.2614 -0.0173  0.1976
 6812W        W22281   5.393   0.712  12.946  0.0380  0.0012  0.2125
 6813W        W22282   4.227   3.549   1.395  0.0869 -0.0444  0.0951
 6814W        W22283  11.273   1.021  13.854 -0.0830  0.3384 -0.1274
 6815W        W22284  13.730  10.500   4.876 -0.1124 -0.0360 -0.0385
 6816W        W22285  12.074   2.798  13.924  0.1168 -0.3893  0.1285
 6817W        W22286  16.378   9.566   0.582  0.2840 -0.2846 -0.1499
 6818W        W22287   9.310  10.979   4.220 -0.1233 -0.1279  0.2178
 6819W        W22288  16.507   5.801   3.165 -0.0322  0.0133 -0.0397
 6820W        W22289  16.287   0.561  11.418  0.0831  0.0912 -0.2652
 6821W        W22290   8.962   5.252   4.609 -0.1742 -0.2473 -0.0979
 6822W        W22291   6.354   9.053  11.253 -0.0939  0.0180  0.0153
 6823W        W22292  14.510  11.511   5.484  0.0852  0.0462 -0.1008
 6824W        W22293   8.623  12.365   4.855  0.0337  0.0646  0.1393
 6825W        W22294  15.399   1.635   4.907  0.1312 -0.2380 -0.0331
 6826W        W22295  18.269   7.354   0.465  0.2247 -0.1914 -0.2101
 6827W        W22296  11.208   5.677   4.316 -0.2982 -0.0069 -0.1213
 6828W        W22297   1.967  16.237  15.485 -0.0958 -0.0786 -0.1307
 6829W        W22298  15.789   7.807   3.125 -0.1675  0.3393 -0.2613
 6830W        W22299   5.175   3.690   4.372 -0.0033  0.2177  0.3631
 6831W        W22300   5.915  10.984  11.174  0.0176  0.1135 -0.0205
 6832W        W22301  12.910  11.707   1.902 -0.2137 -0.0559 -0.1020
 6833W        W22302   1.413   9.321   5.761  0.3089  0.0260 -0.1552
 6834W        W22303  13.005  10.524   0.927  0.3956 -0.4000 -0.1376
 6835W        W22304  17.915   2.224  13.462  0.1454 -0.1233  0.0963
 6836W        W22305  10.469   4.610  15.847  0.1484  0.0474 -0.2819
 6837W        W22306  15.543  17.034   2.209 -0.1741 -0.1629 -0.3923
 6838W        W22307  15.179   3.259  15.740 -0.1614 -0.0134  0.1672
 6839W        W22308   0.800  12.893  10.112 -0.0083  0.0492  0.2492
 6840W        W22309   1.553  12.648   2.569 -0.1475  0.0269 -0.0846
 6841W        W22310   7.317   7.431  15.529 -0.0164  0.1054  0.0375
 6842W        W22311   8.305   2.624   0.124 -0.1613 -0.0239 -0.2599
 6843W        W22312  13.204   1.721  12.944 -0.0602  0.1529  0.0951
 6844W        W22313   3.200  17.214   2.704  0.0740 -0.0267 -0.0010
 6845W        W22314  18.314   5.748  13.022  0.1556  0.0673 -0.1700
 6846W        W22315  13.196  14.201  15.447 -0.0435 -0.1301  0.2352
 6847W        W22316   4.914  14.513  11.351  0.1407 -0.0877 -0.0114
 6848W        W22317  14.378   0.621  10.579 -0.4148 -0.0697 -0.0015
 6849W        W22318  14.406   9.475   4.413 -0.1742  0.0021 -0.1671
 6850W        W22319   6.059  14.608  11.511 -0.2194  0.0368 -0.0700
 6851W        W22320   0.821   4.004   0.329 -0.0366 -0.0110 -0.1164
 6852W        W22321  13.222  11.548   2.308  0.0744 -0.1195 -0.0225
 6853W        W22322  17.609   5.215   0.060 -0.2134  0.0981  0.0721
 6854W        W22323  17.459   0.333   0.991  0.1134  0.0904  0.2595
 6855W        W22324   1.955   2.006   4.771  0.1463 -0.2694  0.0657
 6856W        W22325   5.842  12.752  11.630 -0.2009 -0.0034 -0.0123
 6857W        W22326  11.888  15.129   2.971  0.0132  0.2986 -0.0496
 6858W        W22327  10.720  17.437   1.421  0.2214 -0.1395 -0.1939
 6859W        W22328   4.951  18.185   5.064 -0.0434  0.3456 -0.1264
 6860W        W22329   0.202  18.155  11.755 -0.1493  0.1890  0.0385
 6861W        W22330   2.034  12.631   4.365 -0.1170  0.0999  0.0707
 6862W        W22331   1.243   1.688  15.570  0.2435  0.0605 -0.1009
 6863W        W22332  17.605  10.218   5.043 -0.2345  0.0488  0.0264
 6864W        W22333   8.044  13.842  14.159  0.0037  0.0096 -0.3095
 6865W        W22334  11.673  16.785   3.885  0.0179  0.0900 -0.0640
 6866W        W22335   8.048  17.532   0.632  0.0753 -0.1927  0.3858
 6867W        W22336  16.238  18.018  11.308 -0.2914  0.1119 -0.0630
 6868W        W22337  12.380   3.303  14.787  0.1894  0.0354  0.1551
 6869W        W22338   2.967   3.874  14.770  0.2590  0.0455 -0.0419
 6870W        W22339  16.782   8.437   3.719  0.2640  0.1644 -0.2872
 6871W        W22340  13.144  11.219   4.882  0.5580  0.3961  0.0702
 6872W        W22341   5.539  10.395   3.914 -0.1944 -0.0833 -0.0215
 6873W        W22342  15.989   2.803   9.929  0.1638 -0.1790  0.0996
 6874W        W22343   0.765   5.333   1.674  0.1811 -0.0537  0.0184
 6875W        W22344   5.017  13.894   0.712  0.0069  0.1023 -0.0236
 6876W        W22345  13.951  18.215  11.917 -0.0826 -0.3080 -0.0802
 6877W        W22346   5.337   3.738  15.908  0.0142  0.2534  0.2232
 6878W        W22347   7.860   1.781  11.526  0.1479 -0.2899  0.3345
 6879W        W22348   1.586   2.641  15.642 -0.1047  0.1522 -0.1349
 6880W        W22349  13.278   0.355   0.295  0.1285 -0.1593 -0.1961
 6881W        W22350   1.616  12.528  12.639 -0.1558 -0.1508  0.0289
 6882W        W22351  10.682  17.600   4.657 -0.1210 -0.0492  0.2856
 6883W        W22352  10.714   9.760  12.081 -0.0302 -0.2748  0.2211
 6884W        W22353   4.947   1.179   4.469 -0.0417 -0.3436  0.1871
 6885W        W22354  11.172   1.389   3.037 -0.1804  0.1144  0.3326
 6886W        W22355  11.348   8.543   5.101 -0.1797  0.0445  0.0353
 6887W        W22356  12.079   9.980  14.352  0.1981  0.1667 -0.1382
 6888W        W22357  10.173   4.701   0.391  0.0300 -0.0708 -0.1941
 6889W        W22358   7.526   8.807   2.528  0.1826 -0.2219  0.1335
 6890W        W22359   6.410   0.754  15.666 -0.3202  0.2254 -0.2881
 6891W        W22360  13.374  13.668   2.891  0.2125  0.2986  0.0529
 6892W        W22361   0.038   9.496   4.978  0.3420 -0.4664 -0.2487
 6893W        W22362   5.432   8.380   3.435 -0.0016 -0.0570 -0.1832
 6894W        W22363  17.789  16.204   5.161 -0.2485  0.0114 -0.1065
 6895W        W22364  10.539   2.861   0.087  0.0407 -0.0697 -0.1164
 6896W        W22365   2.596  11.284  14.315 -0.0569 -0.2473 -0.0337
 6897W        W22366  15.319  17.493   0.162 -0.2872 -0.0757  0.1965
 6898W        W22367   4.825  10.220   0.806  0.1760 -0.1345 -0.0164
 6899W        W22368  12.699   6.250  11.722 -0.0572 -0.0004 -0.1825
 6900W        W22369  16.273   9.888   5.469  0.3747 -0.3533  0.2273
 6901W        W22370   8.018   7.844  14.934  0.0565 -0.2015 -0.0050
 6902W        W22371   5.934   8.843  11.129  0.2759  0.0208  0.1415
 6903W        W22372   4.557   2.889  11.630 -0.1811  0.0316 -0.2531
 6904W        W22373  14.870  10.116  14.768 -0.0762  0.1803  0.0090
 6905W        W22374   7.399  13.381  12.554 -0.1176 -0.0633  0.1961
 6906W        W22375   3.830   0.295  12.804 -0.1134  0.1554  0.1097
 6907W        W22376  16.025   6.776   3.853  0.1055 -0.0047  0.0381
 6908W        W22377   2.143  17.948   0.749 -0.0199  0.1114  0.2065
 6909W        W22378   6.422  18.254   4.696 -0.1264 -0.0695 -0.0066
 6910W        W22379   4.780  13.521  11.569 -0.4251  0.0765  0.0662
 6911W        W22380   8.579  16.776   4.964  0.3029  0.3868  0.1093
 6912W        W22381  17.152  14.862  10.241  0.0421 -0.1775  0.2853
 6913W        W22382   3.606   4.647   2.439 -0.1301  0.1385 -0.0969
 6914W        W22383   7.392  11.694   1.993  0.2212 -0.3666 -0.2781
 6915W        W22384  14.362  16.273   5.118 -0.0467 -0.1663 -0.0123
 6916W        W22385  13.314  17.406   0.795  0.3039 -0.1544 -0.0212
 6917W        W22386   6.379  16.139  11.545 -0.3660  0.1956 -0.1731
 6918W        W22387   3.804  11.697  11.231 -0.0822 -0.0745 -0.0906
 6919W        W22388   6.168   5.567   3.250  0.2799  0.0600  0.1326
 6920W        W22389   6.145  12.678   5.280 -0.0698  0.1709  0.2029
 6921W        W22390   4.385   5.825   3.321  0.2876  0.1031 -0.1301
 6922W        W22391   1.434  14.117  14.352  0.0003 -0.2417  0.2831
 6923W        W22392   2.881   9.757  13.317 -0.0463 -0.0009  0.2307
 6924W        W22393  13.885   9.260   4.690 -0.4303 -0.0352  0.0552
 6925W        W22394  14.071   3.384  15.006 -0.2127  0.1492  0.1786
 6926W        W22395   8.187  11.006  15.350  0.2645 -0.0418  0.0918
 6927W        W22396  12.191   4.837  11.227 -0.1121 -0.2886 -0.2430
 6928W        W22397  13.056   1.207   0.957 -0.1997 -0.0962 -0.1430
 6929W        W22398   8.215  13.837   2.337  0.1000 -0.1478  0.2356
 6930W        W22399  11.177  13.903   5.628 -0.2891  0.0519  0.4074
 6931W        W22400  15.655   5.770  14.428 -0.0507 -0.2469  0.0697
 6932W        W22401  11.921   7.707  12.516  0.2835 -0.4461  0.1675
 6933W        W22402  15.961  16.103   3.768 -0.0360 -0.1645  0.0942
 6934W        W22403  16.762  10.298  13.438 -0.2995  0.0877  0.0986
 6935W        W22404  12.289  11.609  12.616  0.1982  0.0603  0.3174
 6936W        W22405  16.234   6.316  14.934  0.2069  0.0224 -0.0929
 6937W        W22406  14.811  17.379  13.167  0.1071 -0.1523  0.3739
 6938W        W22407   0.606  10.359  11.183 -0.0966  0.0643 -0.0697
 6939W        W22408  11.240  15.335  11.055 -0.0663  0.5736 -0.0200
 6940W        W22409   6.590  10.362   0.571  0.0383  0.1008  0.1360
 6941W        W22410   3.665  13.894   2.616  0.1407 -0.2524 -0.1567
 6942W        W22411  12.211  11.709  11.319  0.1890 -0.0320 -0.1271
 6943W        W22412  12.470  17.953   1.009  0.0249  0.2083  0.1869
 6944W        W22413  16.674   0.970  11.243  0.1221  0.2961  0.4554
 6945W        W22414   9.004  18.181  12.365  0.0696 -0.1040 -0.0680
 6946W        W22415  15.016   5.100   5.644  0.1265 -0.0669  0.2761
 6947W        W22416   0.983  14.987  10.886 -0.0511 -0.2558  0.1041
 6948W        W22417   4.930  16.894   3.044  0.2423  0.0256 -0.1323
 6949W        W22418   3.496   6.465  11.522  0.0428 -0.1430 -0.3530
 6950W        W22419  14.366   1.182  12.367  0.1233 -0.0372 -0.0809
 6951W        W22420   1.216   7.778  12.945 -0.1765  0.2125  0.0916
 6952W        W22421  14.306   3.978   4.467 -0.3678 -0.0253 -0.1024
 6953W        W22422   7.381  11.898  11.649 -0.3610  0.1750 -0.1663
 6954W        W22423  15.416  13.641  11.526  0.0380 -0.2263 -0.1484
 6955W        W22424  10.527  16.553   3.722 -0.1001  0.1305 -0.0051
 6956W        W22425   7.345   8.418  11.523 -0.1839  0.0790 -0.1693
 6957W        W22426  16.781  15.553   3.907 -0.0500  0.1895  0.1725
 6958W        W22427   8.935   1.306  12.211 -0.0333 -0.1770  0.1447
 6959W        W22428  16.326   0.404  15.124  0.0210 -0.0524  0.0865
 6960W        W22429  12.300   4.881  14.526 -0.3956 -0.1146  0.0224
 6961W        W22430   2.748   9.990  14.222  0.3134  0.0272 -0.4211
 6962W        W22431   6.002   2.288   5.211 -0.0228 -0.0912 -0.0222
 6963W        W22432   2.611   5.356  13.158  0.1447  0.0430 -0.0888
 6964W        W22433  10.589   8.126  12.329 -0.0228  0.2342 -0.0962
 6965W        W22434  12.840   9.879   3.241  0.1492 -0.1417 -0.1804
 6966W        W22435  15.088   7.442   1.698 -0.2536 -0.1852  0.0585
 6967W        W22436   7.468   1.290   4.703 -0.0563 -0.1715 -0.0930
 6968W        W22437   8.673  14.816   0.354 -0.1931  0.3244 -0.1032
 6969W        W22438  14.269  17.706   2.722 -0.0753 -0.2912 -0.1327
 6970W        W22439   3.904   6.686   0.484 -0.1598 -0.0630  0.1129
 6971W        W22440   9.663   7.003  14.043  0.1472 -0.2739  0.0365
 6972W        W22441  12.478  10.729  13.014  0.0746 -0.0767  0.0602
 6973W        W22442  10.079   1.777  14.722  0.0699  0.1223  0.0018
 6974W        W22443   4.385   1.479  15.480 -0.0043 -0.1952 -0.0237
 6975W        W22444   6.341  17.314  13.960  0.1960  0.1124  0.0971
 6976W        W22445   6.763   1.880   2.300 -0.0876 -0.0953 -0.0555
 6977W        W22446   4.674  15.857   0.552  0.0371 -0.1000  0.0381
 6978W        W22447   4.731   9.948   1.380 -0.0023 -0.3522  0.2327
 6979W        W22448  18.345  10.060   1.253 -0.1596 -0.3132  0.0931
 6980W        W22449   8.142  17.195   1.867  0.2849 -0.3032  0.0911
 6981W        W22450   7.141   5.917   5.458 -0.2827 -0.3308 -0.2403
 6982W        W22451  16.573   6.236   3.992 -0.2407  0.1820 -0.1123
 6983W        W22452  13.586   8.232  14.021 -0.1008 -0.3591 -0.2217
 6984W        W22453   9.621   2.898   1.500 -0.1311 -0.1705  0.2546
 6985W        W22454   0.455  14.109  11.099 -0.0177 -0.0403  0.1914
 6986W        W22455   3.929  17.753   3.523 -0.0400 -0.4702 -0.1148
 6987W        W22456   4.605   7.633   5.379  0.2733  0.0733  0.1117
 6988W        W22457  12.806   2.306  15.009  0.4229  0.2333  0.0471
 6989W        W22458   8.824   7.224   2.752 -0.3503 -0.0598 -0.0225
 6990W        W22459  16.596   4.816  14.149 -0.2271  0.1231  0.2849
 6991W        W22460  16.244   1.043   5.677 -0.0433  0.0116 -0.0019
 6992W        W22461   2.978   3.356   2.235 -0.0723 -0.1496 -0.0162
 6993W        W22462   7.937   9.998  15.386 -0.1614  0.4993 -0.0714
 6994W        W22463   0.570   5.995   3.367  0.2950 -0.1804  0.1237
 6995W        W22464   3.330  10.591  12.168 -0.4539  0.0812 -0.0718
 6996W        W22465  16.549   7.745   4.806 -0.0642 -0.0330  0.3905
 6997W        W22466   1.550  12.299   1.366  0.1254 -0.0788 -0.2876
 6998W        W22467  14.409  16.092  13.115 -0.3306 -0.0856  0.1348
 6999W        W22468   7.935  16.931   2.532 -0.1071  0.0038  0.0831
 7000W        W22469  13.221   7.602   5.399  0.0160  0.2699  0.0892
 7001W        W22470   8.136   4.031   0.170  0.1323  0.2750  0.2907
 7002W        W22471   7.884  16.534   4.567  0.0656 -0.1302  0.1025
 7003W        W22472   9.605   1.493   2.008 -0.2890  0.0726  0.1961
 7004W        W22473   6.688   2.147   9.975  0.1838 -0.0482  0.1704
 7005W        W22474   2.807  10.403  11.124 -0.0636 -0.0192 -0.0284
 7006W        W22475  16.158   6.912  12.113 -0.0118  0.0672  0.0326
 7007W        W22476   5.759   5.775  15.775 -0.1090 -0.1137  0.2112
 7008W        W22477   7.710  16.031  13.762  0.1436  0.0723 -0.1306
 7009W        W22478   5.134   1.163   1.395 -0.2382 -0.0633 -0.0770
 7010W        W22479   6.281   4.482  13.621  0.0267 -0.0623  0.0864
 7011W        W22480   0.141  14.405  11.762  0.2424 -0.1683  0.1895
 7012W        W22481  15.486   5.785  11.650 -0.1377  0.0395  0.2458
 7013W        W22482  11.310  16.912  11.389  0.2551 -0.1836 -0.3882
 7014W        W22483   1.555   9.109  13.558 -0.2139  0.1676  0.1950
 7015W        W22484   4.966   1.329   1.864 -0.0495  0.0112 -0.0394
 7016W        W22485  10.953   2.851   5.866 -0.1376  0.1451  0.4016
 7017W        W22486  16.776   1.339   3.915 -0.0576  0.1384 -0.0001
 7018W        W22487  13.992  13.622  11.162  0.1660  0.0417 -0.1786
 7019W        W22488  11.224   1.342   1.137 -0.1649 -0.2724 -0.2545
 7020W        W22489  17.811   4.156   3.659  0.1162  0.0588 -0.2202
 7021W        W22490   1.868   1.775   3.171 -0.2173  0.2905  0.2224
 7022W        W22491   3.057  12.151  14.257  0.0098  0.0547 -0.1232
 7023W        W22492  15.375  14.817   2.176 -0.1936 -0.0608  0.0565
 7024W        W22493  18.273   0.712   2.147 -0.1421 -0.1971 -0.0386
 7025W        W22494  16.129   2.246  12.833 -0.1105  0.2781 -0.0025
 7026W        W22495  18.345   7.840   4.392 -0.0013 -0.1245 -0.0974
 7027W        W22496  18.118   3.631   4.984 -0.2027  0.3068  0.1855
 7028W        W22497  13.014  12.337   5.297 -0.1894  0.2044 -0.2082
 7029W        W22498  13.373  12.142   1.435  0.4709  0.1503 -0.2416
 7030W        W22499  10.581   3.058   1.301 -0.2260  0.1333 -0.0895
 7031W        W22500   6.722   5.097  11.404 -0.0960  0.2118 -0.0980
 7032W        W22501  17.523  16.982  13.669  0.2336 -0.1424  0.3796
 7033W        W22502  11.067   9.365   3.936  0.3388 -0.1009 -0.0249
 7034W        W22503  12.056   0.265  14.950  0.3647  0.1716  0.0837
 7035W        W22504   4.820   9.484  11.672  0.0165  0.2485 -0.2128
 7036W        W22505   7.085   8.436   2.739 -0.0132  0.4069  0.1158
 7037W        W22506   1.479   3.827   0.625  0.1562  0.1832  0.1142
 7038W        W22507  16.734   6.370   0.633 -0.2300  0.0332  0.0424
 7039W        W22508   6.526   6.947  15.132  0.0701 -0.2692  0.0318
 7040W        W22509  11.287  16.240   4.898  0.2370  0.4192 -0.0595
 7041W        W22510   5.490   3.229   0.017  0.0698  0.0197 -0.3477
 7042W        W22511   5.463  18.202   1.865 -0.1361  0.0531 -0.0227
 7043W        W22512   4.270   0.738  14.014  0.2087  0.1310 -0.3577
 7044W        W22513   8.144  14.221   1.186  0.0078 -0.0864  0.3183
 7045W        W22514   7.112   4.435  10.573 -0.1127 -0.0124 -0.0504
 7046W        W22515  12.652   0.543  13.314 -0.0724 -0.1590 -0.3372
 7047W        W22516   2.459   9.813   2.555  0.0007 -0.2684  0.0005
 7048W        W22517   0.299   9.020   1.857  0.1970  0.1900 -0.0563
 7049W        W22518   1.843   9.832  12.575  0.2006  0.0927 -0.1904
 7050W        W22519   4.324   2.946   0.553  0.1709  0.3003 -0.1729
 7051W        W22520   6.221   5.970  12.552  0.5091  0.0779  0.0456
 7052W        W22521   7.909  14.302   0.195 -0.1491  0.0205 -0.0463
 7053W        W22522  17.610   6.420   2.279  0.1154  0.1841 -0.0542
 7054W        W22523  16.431   1.566   4.941 -0.0260 -0.1704  0.0653
 7055W        W22524   0.697   0.653  13.813  0.0374  0.0526 -0.0225
 7056W        W22525   0.480   6.103  10.687  0.3276 -0.1728  0.3423
 7057W        W22526   3.916  17.181  14.563 -0.0055  0.3315 -0.2197
 7058W        W22527  10.579  18.164   2.999  0.1679  0.2560 -0.2883
 7059W        W22528   0.122  12.780   4.830 -0.2838 -0.1885 -0.3078
 7060W        W22529   8.340  12.361  12.628  0.2630 -0.0094 -0.2761
 7061W        W22530  15.795   3.526   5.121 -0.2785  0.3735  0.0372
 7062W        W22531  13.749   0.465   0.375 -0.1414  0.0112 -0.1018
 7063W        W22532  14.071  13.058   3.641 -0.1734 -0.0924  0.0285
 7064W        W22533  16.494   1.286   0.543 -0.3620 -0.0623 -0.0009
 7065W        W22534   1.776  13.502   2.466 -0.2160 -0.2518  0.0333
 7066W        W22535   6.001   3.173   4.231 -0.0043 -0.1850 -0.1207
 7067W        W22536  17.765   5.707  13.252  0.0413 -0.1407 -0.0594
 7068W        W22537  14.157   8.588  12.286 -0.0805  0.0725 -0.1049
 7069W        W22538   8.666   4.200   2.372  0.0602 -0.0159 -0.1520
 7070W        W22539  12.827   0.221  11.694  0.0247  0.0802  0.0735
 7071W        W22540  14.439  13.011   5.100 -0.5817  0.2883  0.1321
 7072W        W22541   7.862  16.264   2.211 -0.2657  0.1121 -0.1049
 7073W        W22542  14.986  12.720  14.664  0.0331 -0.0956  0.0962
 7074W        W22543   7.024   1.618   1.508 -0.1697 -0.0209  0.0274
 7075W        W22544   4.609  11.308   0.929 -0.2067 -0.0091  0.1435
 7076W        W22545   9.348   5.528  11.502  0.2830 -0.3061  0.0122
 7077W        W22546   2.398   8.719  10.497  0.2316 -0.0123 -0.3240
 7078W        W22547  14.465  10.464  12.353 -0.0800  0.0331  0.1974
 7079W        W22548  17.395   1.684  13.091  0.0614  0.2274  0.1500
 7080W        W22549   1.230  14.749   1.826 -0.1144  0.2468 -0.4658
 7081W        W22550  11.337   1.517   4.455 -0.1753  0.3376 -0.0789
 7082W        W22551  10.786   4.270   2.915 -0.3128  0.4201  0.1064
 7083W        W22552   8.231  10.664  12.416 -0.0523  0.0768 -0.0140
 7084W        W22553   4.903   1.888   1.925  0.2793  0.0070 -0.3225
 7085W        W22554   1.080   3.903   3.885 -0.0437  0.1403 -0.1453
 7086W        W22555   1.943   9.850  13.990 -0.0144  0.1222 -0.1745
 7087W        W22556  10.075  17.255  11.380 -0.0117 -0.0551  0.1683
 7088W        W22557   1.029  17.870   2.204 -0.3430  0.1560  0.0510
 7089W        W22558   4.328  17.541  14.420 -0.4654  0.1267 -0.1916
 7090W        W22559   0.915  12.220   2.238 -0.2354 -0.3991 -0.1013
 7091W        W22560  11.115  11.658  10.786 -0.1302 -0.5253 -0.0853
 7092W        W22561   7.509  16.847   0.573  0.0658  0.1545  0.2078
 7093W        W22562  15.221  12.533  14.263 -0.3676  0.2198 -0.1232
 7094W        W22563   9.198   5.952   2.199  0.1794 -0.0006 -0.0903
 7095W        W22564   6.542   7.276   3.573  0.0978 -0.1071 -0.1483
 7096W        W22565  15.388  10.148   4.530 -0.0738  0.0874 -0.2136
 7097W        W22566   9.012  11.304  15.852  0.2354  0.1506  0.2295
 7098W        W22567  15.952  13.673  12.020  0.2462 -0.1970 -0.1848
 7099W        W22568   0.097   0.193  11.428  0.2652 -0.1886 -0.1359
 7100W        W22569   6.792   2.224   5.441  0.0271 -0.1781  0.0097
 7101W        W22570  10.322   4.482  12.049  0.1900 -0.2401 -0.0393
 7102W        W22571   1.581   9.664  14.822 -0.0661  0.3478 -0.1984
 7103W        W22572  15.243   1.119   4.045  0.0096 -0.1854  0.2684
 7104W        W22573   9.507  11.416  11.526 -0.2193  0.0168 -0.2021
 7105W        W22574   1.194  13.590  11.245  0.0479 -0.1486  0.0098
 7106W        W22575  13.435  17.076   1.139  0.2026 -0.0672 -0.2028
 7107W        W22576  11.162   2.244  10.176 -0.1016  0.1414 -0.0362
 7108W        W22577  17.563  13.793   0.021  0.2889  0.5195  0.1508
 7109W        W22578  18.443   9.756   0.471 -0.0334  0.0741 -0.0429
 7110W        W22579   7.535  14.607   4.957  0.3422 -0.1604 -0.0699
 7111W        W22580  12.937   3.667   2.084  0.2375 -0.2127 -0.1289
 7112W        W22581   1.163  12.805   0.720  0.2909 -0.0898 -0.2821
 7113W        W22582   7.302   8.355  14.456 -0.1512 -0.1777  0.2389
 7114W        W22583  18.104   7.453  14.449 -0.0308  0.2112 -0.0657
 7115W        W22584  16.881   1.169   1.248  0.2412  0.1838  0.0140
 7116W        W22585  11.749  17.309   2.371  0.0555  0.1887  0.0321
 7117W        W22586   0.627   1.050   2.344  0.1802  0.1747  0.0323
 7118W        W22587   1.667   1.566   0.837  0.0900 -0.3213  0.2387
 7119W        W22588  14.348   7.858  11.078 -0.1589 -0.1059  0.0477
 7120W        W22589  12.661  11.923  10.652 -0.2539 -0.1255 -0.2902
 7121W        W22590  14.611   2.989   1.573  0.0681 -0.2200  0.1361
 7122W        W22591  13.211   9.601  12.002 -0.1256  0.0586  0.0771
 7123W        W22592   8.235  16.798   4.161 -0.1959 -0.2511 -0.0615
 7124W        W22593   0.648  15.178  14.582  0.3490  0.1333 -0.0831
 7125W        W22594  14.142  12.343   4.475 -0.1957 -0.1262 -0.2210
 7126W        W22595  10.791   6.664  10.141  0.0345  0.1445 -0.2420
 7127W        W22596  10.619  13.330   4.489  0.1769  0.0008 -0.1776
 7128W        W22597  10.473  14.389  13.637  0.4040 -0.1627 -0.0428
 7129W        W22598   1.580   9.048  14.108  0.2608 -0.0258  0.0840
 7130W        W22599   1.420  11.527  15.798  0.1873 -0.2995 -0.0586
 7131W        W22600  16.603   0.437   4.014 -0.0931  0.2827  0.1078
 7132W        W22601  17.610  10.478  12.965  0.1263 -0.0341 -0.0458
 7133W        W22602   0.204   3.521   5.013  0.0793 -0.0339 -0.0525
 7134W        W22603  13.629  15.982  12.805  0.1606 -0.1864 -0.1448
 7135W        W22604   2.748  14.152   4.737  0.0261 -0.1138  0.1709
 7136W        W22605  14.657  10.952  12.118 -0.0413  0.0972 -0.2064
 7137W        W22606   9.954   7.807  12.964 -0.1148 -0.0157  0.2683
 7138W        W22607   2.948  10.194   4.699  0.2976 -0.4224 -0.4353
 7139W        W22608  15.766   8.884   5.631  0.0522  0.2388 -0.3553
 7140W        W22609   3.114  10.425   2.539 -0.1810 -0.1782  0.1884
 7141W        W22610   9.459  11.462   4.239 -0.0824  0.0572  0.0704
 7142W        W22611  11.897  11.765   3.946 -0.0360  0.0223  0.1108
 7143W        W22612   6.490  10.982   1.374  0.1032 -0.1536  0.0245
 7144W        W22613   5.548  11.225  14.702  0.0128 -0.0919 -0.1552
 7145W        W22614   9.536   2.662   3.083  0.2658  0.1783  0.0883
 7146W        W22615   1.247  12.860  13.967 -0.1699 -0.0496 -0.2105
 7147W        W22616  15.030  14.427   3.080  0.1709  0.0746 -0.3103
 7148W        W22617  15.940   7.495  14.487  0.1666 -0.0005  0.0959
 7149W        W22618   3.704  11.363   0.763  0.0446  0.0041 -0.1773
 7150W        W22619  12.067   2.813   1.077  0.1131  0.0473  0.2714
 7151W        W22620   5.610   4.575   5.166 -0.0474 -0.4731  0.5826
 7152W        W22621   1.405   0.190   4.137 -0.0586 -0.2333  0.2567
 7153W        W22622   6.555  12.089   2.103  0.0071  0.3546  0.0598
 7154W        W22623  11.502   9.762   2.929  0.2165 -0.1715 -0.0498
 7155W        W22624  10.869   3.389  11.100 -0.2051 -0.0128  0.0809
 7156W        W22625   0.286  15.474   5.296  0.0376  0.1156 -0.2107
 7157W        W22626  14.398  13.352  11.095  0.1415 -0.1001 -0.1882
 7158W        W22627  11.644  17.149  12.289  0.2618  0.0887 -0.0217
 7159W        W22628  17.452  13.890  15.468 -0.0636  0.1325 -0.1398
 7160W        W22629  14.606  10.560  13.016 -0.0907  0.0493  0.3861
 7161W        W22630   9.039  10.647  10.749 -0.0365  0.0172 -0.0512
 7162W        W22631  11.261   4.864  14.103  0.0163 -0.0298 -0.2433
 7163W        W22632  15.138   4.217   2.568 -0.3254 -0.1725 -0.1398
 7164W        W22633   7.421  10.580   1.332 -0.2118 -0.1288  0.0884
 7165W        W22634  14.677  17.629  15.221  0.0483  0.0862  0.1261
 7166W        W22635   6.251   1.845  14.510 -0.0685  0.2227 -0.0256
 7167W        W22636   2.876   1.522  15.042  0.0054 -0.3452 -0.1020
 7168W        W22637   4.953  13.958  12.631  0.1008  0.0269  0.0853
 7169W        W22638   6.505   7.878   0.756 -0.1106 -0.0069  0.1903
 7170W        W22639   7.051  15.843  13.387 -0.1202 -0.1976  0.2060
 7171W        W22640   4.625   8.480   2.748  0.1027 -0.1525  0.3319
 7172W        W22641  17.395   7.350  15.088 -0.2161 -0.0645 -0.3211
 7173W        W22642   0.429   5.936  11.143 -0.0783 -0.3951 -0.3261
 7174W        W22643  17.805  13.984   1.506  0.3404 -0.0462  0.0085
 7175W        W22644  13.977   9.287   4.079 -0.1602  0.0043 -0.1444
 7176W        W22645  14.518   1.429   2.751 -0.2071 -0.1159 -0.1248
 7177W        W22646   3.796   8.451   0.630  0.0789  0.0035 -0.0357
 7178W        W22647  12.320  11.531  10.784  0.0802  0.0661  0.1250
 7179W        W22648   2.798  10.912   5.232  0.2964  0.0981 -0.1888
 7180W        W22649   5.905   9.092  15.399  0.2948 -0.0189  0.1327
 7181W        W22650   7.472   8.472  13.687 -0.0041  0.2698 -0.0983
 7182W        W22651   3.761   2.253  12.448  0.1437 -0.2473  0.0339
 7183W        W22652   3.098  15.947   0.877  0.0797 -0.0463 -0.0125
 7184W        W22653   8.641   9.510   5.823 -0.0255 -0.0689  0.0376
 7185W        W22654   1.934  16.665   4.917  0.1102 -0.0501  0.0707
 7186W        W22655   2.188   3.880  11.350  0.2424 -0.2817 -0.3511
 7187W        W22656  10.108  13.289   2.449  0.0657 -0.0750  0.0647
 7188W        W22657  18.306  15.653  11.013  0.4344 -0.0176  0.0936
 7189W        W22658   4.250   2.360   0.643  0.1454 -0.3752 -0.1942
 7190W        W22659  10.313   0.410  12.185 -0.1307  0.3346  0.2402
 7191W        W22660  17.258  17.531   1.657  0.1276 -0.0170  0.2869
 7192W        W22661  15.944  11.654  15.893 -0.0599  0.0128 -0.1285
 7193W        W22662   3.098  11.676  14.940  0.2456  0.0349 -0.0382
 7194W        W22663   0.180   1.674   4.254 -0.0218 -0.1779 -0.1327
 7195W        W22664   2.642   6.881  13.439 -0.0118 -0.0047 -0.2695
 7196W        W22665   4.143   6.568  15.549  0.2633 -0.0025 -0.2423
 7197W        W22666   6.081  18.269   1.025  0.1191  0.0198  0.2912
 7198W        W22667   4.732  17.029   5.878  0.1545 -0.2954 -0.2372
 7199W        W22668   9.990  18.193  12.752 -0.1027  0.0059 -0.3342
 7200W        W22669   9.861  15.734   1.409  0.1067  0.0069 -0.1217
 7201W        W22670  15.801   2.097   2.127 -0.2794 -0.0163 -0.0742
 7202W        W22671  14.711   1.534  14.452 -0.2454  0.0145  0.0017
 7203W        W22672   0.753   7.104   0.888 -0.0087 -0.3693 -0.1427
 7204W        W22673   0.811  17.378   0.374 -0.0226 -0.1753  0.2254
 7205W        W22674   9.832   5.400  15.766 -0.4872  0.2249  0.0697
 7206W        W22675  17.916   7.838   4.632 -0.2298  0.3316 -0.2129
 7207W        W22676  13.503   0.336   1.761 -0.0700  0.2702 -0.1570
 7208W        W22677  16.289  14.912  15.320 -0.0278 -0.1673  0.1592
 7209W        W22678   5.609  17.034  11.431 -0.0335 -0.0933 -0.1432
 7210W        W22679   7.040   9.132  14.923  0.1267 -0.2044  0.1258
 7211W        W22680   2.678  12.047   4.099 -0.1096  0.0938  0.1597
 7212W        W22681   1.456  13.321   1.496  0.1067 -0.1717  0.1226
 7213W        W22682   9.174  15.700   3.726  0.0766 -0.1002  0.1861
 7214W        W22683   5.539  16.295   5.641 -0.0809 -0.1166  0.3308
 7215W        W22684  10.594  14.971   1.810  0.1262 -0.1525  0.2169
 7216W        W22685   3.372   4.978  13.749 -0.0822  0.0407  0.2066
 7217W        W22686   4.524   8.530  14.912 -0.1686  0.1718 -0.1785
 7218W        W22687  17.012  16.755  14.865 -0.1743  0.0563  0.0113
 7219W        W22688   5.994   4.221   5.180  0.1075  0.0516 -0.0101
 7220W        W22689   3.902  17.336  14.019 -0.1215  0.0396 -0.0122
 7221W        W22690  12.755  10.709   3.274 -0.0846  0.2130 -0.1412
 7222W        W22691  16.482   5.812  13.394  0.2361 -0.0254  0.3852
 7223W        W22692  16.013   3.432   3.798  0.1113 -0.1914  0.0953
 7224W        W22693  11.004   6.725  13.783  0.4653  0.2804 -0.2717
 7225W        W22694  10.123   6.573   0.973 -0.2295 -0.2997  0.0161
 7226W        W22695  15.961   7.881   2.518  0.1442  0.1777  0.1481
 7227W        W22696   4.675   2.822   4.869  0.0482  0.0647 -0.1645
 7228W        W22697  12.844  17.772   1.912 -0.2503  0.0918 -0.0724
 7229W        W22698   1.655  15.192   4.623  0.1937 -0.3971  0.1787
 7230W        W22699  17.076  11.328   5.418  0.0738 -0.4158  0.0191
 7231W        W22700   5.250  11.862  15.031 -0.1015 -0.2990 -0.1825
 7232W        W22701   1.457   8.353  12.023 -0.2759  0.2469  0.0331
 7233W        W22702  10.822  10.757   3.267 -0.0489  0.2152  0.1262
 7234W        W22703   5.518   1.513   0.591 -0.0188  0.1778 -0.3476
 7235W        W22704  13.717   3.347   0.285  0.0248  0.2075  0.1355
 7236W        W22705   0.974   3.647   0.624  0.1684 -0.1278  0.1649
 7237W        W22706   4.662  18.123  15.275 -0.0911  0.2077 -0.3196
 7238W        W22707  12.666   3.643   1.245  0.1537 -0.2711 -0.0066
 7239W        W22708   0.523  14.216  14.932  0.2194  0.1236  0.2188
 7240W        W22709   8.890   9.725  10.726  0.0560 -0.0981  0.0010
 7241W        W22710  12.952  15.169  13.674 -0.0140  0.1881 -0.4542
 7242W        W22711   4.375   7.574  12.950  0.1710 -0.0837 -0.1225
 7243W        W22712  11.861   5.770   5.682  0.0675  0.1863 -0.2134
 7244W        W22713   8.624   8.522  14.781  0.1720 -0.0492  0.0226
 7245W        W22714   9.309   0.966  12.085  0.2133  0.1326  0.0932
 7246W        W22715  12.890   9.333  13.893 -0.0289 -0.0789  0.1661
 7247W        W22716  11.838  13.550   2.733  0.0834  0.1345 -0.0810
 7248W        W22717  18.310  15.530   2.817  0.0457 -0.1223 -0.1151
 7249W        W22718  11.660  17.790   3.687  0.1952  0.1228  0.1800
 7250W        W22719  13.682   1.329  13.611  0.2298  0.1466 -0.1118
 7251W        W22720   9.580   0.752   4.057 -0.1237  0.0616  0.0393
 7252W        W22721   9.115   1.616  13.459 -0.0286  0.1810 -0.3261
 7253W        W22722   6.457   8.133   3.378  0.0846 -0.2640 -0.0343
 7254W        W22723  13.303   6.337  14.236  0.4668  0.3543 -0.0856
 7255W        W22724  15.767  13.968  12.433  0.0764  0.2342  0.1921
 7256W        W22725  14.800   8.023   5.054 -0.3451 -0.1527  0.0893
 7257W        W22726  13.545  16.426  15.863  0.5420 -0.1637 -0.0511
 7258W        W22727   6.025   3.694   4.609 -0.1292 -0.0290 -0.0682
 7259W        W22728   2.674  14.191   6.154  0.0204 -0.2756 -0.2611
 7260W        W22729  10.234   2.361   4.650  0.0689 -0.1412 -0.0944
 7261W        W22730  15.460  18.330   1.785  0.0482  0.1972  0.3422
 7262W        W22731   4.896  18.102   5.784  0.1872 -0.2728  0.2274
 7263W        W22732  11.188   2.288   3.477  0.2033 -0.0278  0.2643
 7264W        W22733  15.351  14.111   0.615  0.0205  0.3422  0.1652
 7265W        W22734  10.188   9.322   0.238 -0.3114  0.1552 -0.1280
 7266W        W22735  11.531  16.713  13.000 -0.3726  0.0971 -0.0405
 7267W        W22736  16.926  13.451   0.671  0.0336 -0.0138  0.1604
 7268W        W22737  15.304  16.441   2.666 -0.0516  0.2436  0.1577
 7269W        W22738  14.532   0.167  15.465  0.3535  0.1735  0.3824
 7270W        W22739   8.121  14.267   4.597  0.3041  0.0250 -0.4537
 7271W        W22740  11.364   1.445  15.307  0.0538  0.0218 -0.2308
 7272W        W22741   2.069  17.867   4.068  0.0635 -0.2318 -0.0977
 7273W        W22742  17.248   0.882  14.729  0.2374  0.0207  0.3291
 7274W        W22743   1.176   6.210   0.829  0.2219  0.1964  0.0637
 7275W        W22744   1.935  15.172   0.326 -0.1104 -0.2793  0.3442
 7276W        W22745  10.399  13.979  13.354  0.1675  0.1261  0.2028
 7277W        W22746   0.744  11.321  14.187  0.0281 -0.0556  0.1501
 7278W        W22747   3.772  12.794  15.592  0.4571  0.1353 -0.1406
 7279W        W22748   0.892  17.426   3.578  0.0102 -0.3973 -0.2063
 7280W        W22749   6.576  12.083   4.480 -0.1844  0.0252  0.2805
 7281W        W22750  12.574   5.400  12.911 -0.0278  0.1009  0.2290
 7282W        W22751  14.275  16.616   1.213  0.1201 -0.0824  0.0220
 7283W        W22752   9.206  14.955  12.347 -0.1610  0.0257 -0.2420
 7284W        W22753  18.476   2.039  13.556  0.2689 -0.2015  0.0240
 7285W        W22754   4.044   5.536   5.135  0.2008 -0.0857 -0.1952
 7286W        W22755   4.960   7.161   0.741  0.0219 -0.1051  0.1229
 7287W        W22756  14.059  14.568   9.847  0.2984  0.2946  0.2084
 7288W        W22757   2.675   1.450   4.614  0.0435  0.1900  0.0667
 7289W        W22758   6.332  17.210   2.487  0.0418  0.0085  0.1111
 7290W        W22759  11.395   5.891   2.569  0.0396 -0.2759 -0.2599
 7291W        W22760  18.159   2.763   0.813 -0.1315 -0.2156 -0.0810
 7292W        W22761  13.570   3.320  12.828 -0.0350  0.4412  0.1471
 7293W        W22762  13.236   4.277   0.174 -0.2810  0.1091 -0.0964
 7294W        W22763   9.851  10.181  14.752  0.0002  0.0447 -0.1209
 7295W        W22764   7.648   1.713   3.890  0.1815 -0.2055  0.2108
 7296W        W22765  16.177  18.391  13.478 -0.1053  0.1654  0.0744
 7297W        W22766  15.313   4.989   4.901  0.0846 -0.1491  0.0337
 7298W        W22767  16.175   3.720  15.378  0.2732 -0.1203  0.0186
 7299W        W22768  12.987   4.750  15.352  0.1779  0.0317  0.0143
 7300W        W22769  11.566  17.695  12.479 -0.3374  0.2157 -0.1527
 7301W        W22770   8.491  17.489  12.641 -0.1162  0.0519  0.0563
 7302W        W22771   7.561   8.744   3.555  0.1533  0.2231 -0.1681
 7303W        W22772   1.636  15.024  15.768 -0.2736 -0.0849 -0.0316
 7304W        W22773   9.123  17.560   1.672  0.0236  0.1088 -0.1134
 7305W        W22774  18.010   0.748  15.374 -0.0621 -0.0080 -0.2254
 7306W        W22775   1.685  12.329   3.382  0.1330 -0.0676  0.1136
 7307W        W22776  16.746   8.972   0.022 -0.3291 -0.1099 -0.0146
 7308W        W22777  12.266   9.512   4.557 -0.2349  0.1311 -0.2600
 7309W        W22778   1.962   9.114  11.152 -0.0577 -0.3121  0.1717
 7310W        W22779   0.841   4.007  13.103 -0.3742  0.1120 -0.0268
 7311W        W22780  15.506   8.868  12.053  0.0034 -0.1073 -0.4280
 7312W        W22781  13.168   8.679   3.648  0.0571  0.1338 -0.1488
 7313W        W22782  13.472   9.989  14.081  0.0611 -0.2000  0.0649
 7314W        W22783   1.595  11.711  11.476  0.1553 -0.0528  0.2878
 7315W        W22784   5.251   1.284  12.258 -0.1721 -0.3102 -0.0502
 7316W        W22785   4.948  14.660   3.027 -0.0142  0.0222  0.4914
 7317W        W22786  10.652   8.363   1.614 -0.0397 -0.1067 -0.1009
 7318W        W22787   4.918   7.699  11.983  0.1490  0.4429  0.0078
 7319W        W22788   7.199  11.901  15.528 -0.0529 -0.0075 -0.2347
 7320W        W22789   8.211  15.631   4.822 -0.0272 -0.1249 -0.1178
 7321W        W22790  12.399   4.291   4.416  0.0405  0.1339 -0.0660
 7322W        W22791  10.442   6.782   0.031  0.0960  0.0067 -0.0955
 7323W        W22792  10.951   5.525  12.944 -0.1128 -0.2256  0.1096
 7324W        W22793  15.559  16.848  12.554  0.0473 -0.4488  0.1267
 7325W        W22794  15.173   5.080   1.974 -0.0239  0.0937  0.0378
 7326W        W22795   7.151  14.789  15.086 -0.0146  0.0517  0.0188
 7327W        W22796   2.185  11.743   3.967 -0.1455  0.2482 -0.1635
 7328W        W22797  12.697   2.767   3.617  0.0851 -0.0078 -0.2859
 7329W        W22798  12.032  18.117   5.081  0.1045 -0.2926 -0.0870
 7330W        W22799  16.565   9.790   3.145 -0.0386  0.0885  0.0052
 7331W        W22800   8.848  14.801   6.186 -0.0616  0.0568 -0.0887
 7332W        W22801  12.132  18.131   1.611 -0.0444  0.1768  0.0733
 7333W        W22802  11.155  12.601   4.842 -0.3255 -0.0716  0.2727
 7334W        W22803  10.152   2.188  11.895 -0.0128 -0.0352 -0.1282
 7335W        W22804   5.292  15.820   5.667  0.2384 -0.1348  0.0802
 7336W        W22805  11.534   7.979   1.861 -0.0537  0.0718  0.2460
 7337W        W22806   3.156  10.500   0.973  0.0119  0.0055 -0.1926
 7338W        W22807  10.547   4.026  14.116 -0.0466 -0.0570 -0.0879
 7339W        W22808   7.914  13.787   4.627 -0.2092 -0.3513  0.0501
 7340W        W22809  13.292   3.032  14.974 -0.0579  0.2401 -0.0221
 7341W        W22810   7.440  16.413   5.565 -0.1331 -0.0848 -0.0038
 7342W        W22811   0.808  16.300   2.790 -0.0128 -0.3350 -0.0675
 7343W        W22812  14.529   5.923   0.399 -0.0402 -0.0914  0.1938
 7344W        W22813   8.102   5.645  13.151 -0.0483 -0.0977  0.0964
 7345W        W22814  12.135   8.793  12.906  0.2420  0.1551 -0.0542
 7346W        W22815  15.617  16.551   2.253 -0.4797  0.2042  0.0837
 7347W        W22816   4.673   8.239  13.817  0.1749  0.3586 -0.0582
 7348W        W22817  13.500   1.857  15.745  0.1979 -0.1501 -0.1370
 7349W        W22818   4.137   9.156   5.205  0.0131  0.0159  0.0188
 7350W        W22819   3.472  14.607  15.250 -0.2111 -0.0593 -0.3765
 7351W        W22820   5.904   8.234   3.166 -0.0090  0.3742 -0.0179
 7352W        W22821  17.306  12.407  11.866  0.0681  0.0098 -0.1972
 7353W        W22822  13.706  14.255   3.803  0.2424 -0.0878 -0.2062
 7354W        W22823   3.186  16.068   3.501 -0.0411  0.1693 -0.0571
 7355W        W22824   2.622  15.463  14.497  0.0565  0.2059  0.2159
 7356W        W22825   8.389   6.875   0.441 -0.1284  0.1753  0.3318
 7357W        W22826  16.037   8.873   4.246 -0.1829  0.1886 -0.1577
 7358W        W22827   9.886  16.117  12.808 -0.0003  0.1539 -0.1376
 7359W        W22828  13.087  14.275   4.633  0.3166  0.1373  0.2072
 7360W        W22829   2.207   5.572   3.129 -0.0668  0.0458 -0.2364
 7361W        W22830  14.516  14.288  14.183  0.1116 -0.0517 -0.1158
 7362W        W22831  11.879  15.655  12.014 -0.0935  0.0680  0.1041
 7363W        W22832   3.742  16.790  15.559  0.3548  0.0715 -0.2885
 7364W        W22833  12.167   0.077  15.432 -0.0458 -0.2761  0.2633
 7365W        W22834   6.400   3.184   4.671  0.5176 -0.1176 -0.0225
 7366W        W22835   0.566   0.232   4.767 -0.2581 -0.2432 -0.0918
 7367W        W22836  16.078  13.492  13.547 -0.0794  0.0297  0.1160
 7368W        W22837  14.211  15.468  10.995  0.3441 -0.0567 -0.2052
 7369W        W22838   8.768  14.245   1.329  0.1721 -0.0352  0.3393
 7370W        W22839   0.085  16.443  14.578 -0.1140  0.1233 -0.0562
 7371W        W22840   4.450   2.475   1.482  0.0234 -0.1056  0.2043
 7372W        W22841   6.384  17.468   4.380 -0.0609 -0.3283 -0.1485
 7373W        W22842   3.496  10.221   0.351 -0.1668  0.0085  0.0530
 7374W        W22843  12.230  14.259   3.114 -0.0668  0.0494 -0.2643
 7375W        W22844   7.439   0.316  13.761  0.0266  0.0796  0.2441
 7376W        W22845   6.548   2.215  13.237 -0.3773 -0.0984 -0.1844
 7377W        W22846  15.707   4.418  15.816 -0.0454 -0.1886 -0.1316
 7378W        W22847   2.323   0.162   2.068 -0.1338  0.1415  0.1403
 7379W        W22848  11.874   9.827   0.496 -0.0061 -0.4499 -0.0080
 7380W        W22849   1.400   5.638  13.735 -0.1579 -0.2697 -0.1165
 7381W        W22850   7.099   1.062  11.945  0.2267 -0.2173 -0.0798
 7382W        W22851   1.336  15.733   5.607 -0.3775 -0.2994  0.2336
 7383W        W22852  16.164   8.007   0.750  0.3822  0.0675  0.0377
 7384W        W22853  11.884  16.933   5.845 -0.0185 -0.2215  0.2349
 7385W        W22854  16.483   6.628   4.984  0.0626  0.0157 -0.1966
 7386W        W22855   9.596   5.777  14.232 -0.1954  0.0437  0.2108
 7387W        W22856  12.261  15.958   0.275 -0.0573 -0.0922  0.0631
 7388W        W22857   9.518  13.790  12.321 -0.1236  0.0435  0.2000
 7389W        W22858  14.861   7.770  15.179  0.2619  0.3764  0.1816
 7390W        W22859   1.765   6.966  14.810 -0.1299 -0.1215  0.1096
 7391W        W22860   9.439  11.177  11.021  0.0864 -0.1336 -0.0110
 7392W        W22861   9.015  18.290   5.721 -0.1803 -0.1809 -0.1510
 7393W        W22862   4.359  17.467   4.103  0.1099  0.0728  0.0079
 7394W        W22863   2.004  18.469  11.842  0.4033  0.0665  0.1051
 7395W        W22864  16.560   8.063  12.652 -0.0416  0.0202  0.0302
 7396W        W22865   0.645  10.813   3.392  0.2449 -0.1106  0.0148
 7397W        W22866   2.009  15.708   0.447  0.0351 -0.0761  0.1495
 7398W        W22867  10.800   1.531   3.473  0.0158  0.4584 -0.0752
 7399W        W22868   6.082   9.929  11.330  0.3287 -0.1075  0.1336
 7400W        W22869  14.924   8.724   5.239  0.1673 -0.1372 -0.2779
 7401W        W22870   5.255   1.381  10.904 -0.1353 -0.2898  0.1966
 7402W        W22871  14.195  14.274  11.734 -0.3787 -0.0586  0.1038
 7403W        W22872  13.341   7.450   3.243  0.4658  0.1027  0.0360
 7404W        W22873   2.236   8.959   3.293 -0.1360 -0.0338 -0.2861
 7405W        W22874  14.140  14.267   5.887  0.1575  0.3012 -0.1704
 7406W        W22875   6.276  14.321  10.244  0.0568 -0.0257 -0.0546
 7407W        W22876  17.258   1.755   1.794 -0.2530 -0.1590 -0.0863
 7408W        W22877   3.608   7.506  10.413  0.1806  0.0431  0.0467
 7409W        W22878   2.481  10.408  10.371  0.2333  0.0786 -0.1024
 7410W        W22879   4.533   0.597  15.109  0.0492 -0.0920 -0.0751
 7411W        W22880  15.431  12.079  14.458 -0.1370 -0.1405  0.0078
 7412W        W22881   3.723   3.715  10.734 -0.1098  0.0660  0.0951
 7413W        W22882   1.057  10.501   4.786  0.1361 -0.2596 -0.0493
 7414W        W22883  16.522   5.913   0.338 -0.2371  0.2559  0.0992
 7415W        W22884   5.592  13.182   5.406 -0.0979 -0.0873  0.1110
 7416W        W22885   4.191  16.078  13.955  0.0427  0.0473 -0.3642
 7417W        W22886  14.960   1.675   0.659 -0.4900 -0.0399 -0.0470
 7418W        W22887  17.828  13.830  15.100  0.0985 -0.2640  0.0633
 7419W        W22888   8.555   6.370   0.002  0.3189  0.3570 -0.2198
 7420W        W22889   6.023   6.010   2.050 -0.0222  0.2676  0.1117
 7421W        W22890   4.188   8.712   5.376  0.3120  0.3334 -0.0345
 7422W        W22891   0.654   1.557   4.132 -0.2483  0.1173 -0.0077
 7423W        W22892   8.747  16.859   0.731 -0.2245  0.0853 -0.2007
 7424W        W22893  16.800   9.330   0.490  0.0643  0.2143 -0.3020
 7425W        W22894  12.354   9.333  12.072 -0.0069  0.4712  0.2456
 7426W        W22895   3.741  15.923  12.959  0.0128 -0.1272  0.2359
 7427W        W22896  12.049  18.188   1.113 -0.1690  0.1052 -0.0247
 7428W        W22897   6.645  18.198   0.090  0.0115  0.1714  0.0917
 7429W        W22898  12.689   0.833  12.006  0.4825 -0.2893  0.2120
 7430W        W22899  16.352  13.535  14.984 -0.2461 -0.0850  0.0303
 7431W        W22900   4.269   9.843   5.752  0.0501  0.1738  0.1355
 7432W        W22901   0.748  17.102  13.097  0.4001 -0.3173  0.3041
 7433W        W22902   0.975  12.923  11.445 -0.1120 -0.2438 -0.1955
 7434W        W22903  12.458   7.086  12.224 -0.1595 -0.0963 -0.0675
 7435W        W22904   5.269  10.110   0.065 -0.1701 -0.0753 -0.1385
 7436W        W22905  12.764   5.039   1.403 -0.2278 -0.5067  0.5018
 7437W        W22906  12.045   6.002   4.085 -0.0389  0.0719  0.2083
 7438W        W22907   8.387   5.663  15.435  0.3052 -0.2298  0.0542
 7439W        W22908   3.430  15.073   3.677  0.1381 -0.1655  0.2704
 7440W        W22909   4.393  14.791   4.390  0.0407 -0.0497 -0.6427
 7441W        W22910   8.938  17.699   0.245 -0.1051  0.2233  0.1561
 7442W        W22911   9.111  13.777  14.325 -0.0496  0.1030 -0.0737
 7443W        W22912   1.879   7.947  13.760 -0.2217 -0.2452  0.0852
 7444W        W22913   2.931  16.234   2.493 -0.2819 -0.1049  0.0115
 7445W        W22914   3.368  12.603  14.573 -0.0514  0.1029  0.2399
 7446W        W22915   4.313  11.028   1.776 -0.0288 -0.4665 -0.1714
 7447W        W22916  16.255   6.603   2.639  0.0103 -0.0471  0.0609
 7448W        W22917  11.930  15.946   4.411 -0.1418 -0.0655  0.0173
 7449W        W22918   8.434   4.459  12.563 -0.0897 -0.2927  0.1833
 7450W        W22919   7.062   8.887  11.561 -0.1480 -0.1203  0.1527
 7451W        W22920   2.064  14.177  12.855  0.1347  0.2121  0.0526
 7452W        W22921   0.318  10.625  10.799 -0.3238 -0.0475  0.0244
 7453W        W22922  16.103   5.525  15.600 -0.0056  0.0596 -0.0940
 7454W        W22923   2.479  15.939   2.397  0.0728 -0.0688 -0.2808
 7455W        W22924   7.328  15.907   3.408  0.4420 -0.1605 -0.3799
 7456W        W22925   0.496  15.883  15.247  0.1817 -0.1642  0.1206
 7457W        W22926  16.167  15.663  14.711 -0.0562 -0.0502  0.2192
 7458W        W22927   8.104   4.607  12.173 -0.1982  0.0024 -0.0827
 7459W        W22928   1.696  11.739  15.239 -0.0096  0.1025  0.1715
 7460W        W22929  17.411  13.676  12.716 -0.0024 -0.3086  0.3812
 7461W        W22930  17.184   5.840  12.478  0.1525  0.1563  0.2442
 7462W        W22931  11.029   4.479  13.752 -0.0358  0.3183  0.1856
 7463W        W22932  14.618  10.888   2.466 -0.0128  0.0488 -0.3291
 7464W        W22933   4.731   6.605   5.611 -0.2513 -0.0844  0.1590
 7465W        W22934   9.795  16.945   0.522  0.4364  0.0756 -0.3439
 7466W        W22935   1.299  12.434  15.375  0.2076  0.4813  0.1720
 7467W        W22936   3.420  17.180   4.011  0.1787  0.0194  0.2102
 7468W        W22937   9.179   6.009  11.478  0.1148  0.1910  0.2417
 7469W        W22938   4.618   6.410  12.488 -0.1178  0.3439 -0.1389
 7470W        W22939   3.527  11.968  12.905 -0.0045 -0.1485 -0.1651
 7471W        W22940   9.972  12.740  12.037  0.1662  0.0168  0.3133
 7472W        W22941   1.848   5.325  14.643  0.0459  0.2626  0.0525
 7473W        W22942   5.005  14.941   2.280 -0.4033 -0.1593 -0.1349
 7474W        W22943  16.093   9.056   3.809 -0.0941  0.0420  0.0493
 7475W        W22944  12.125   0.944  13.044  0.0578  0.0265 -0.0387
 7476W        W22945  13.786  17.378  12.352  0.0276  0.0256 -0.3602
 7477W        W22946  12.602   2.728   0.237 -0.0603 -0.0442  0.0594
 7478W        W22947  13.530  11.648  12.316  0.0108  0.0649  0.0394
 7479W        W22948   2.346   7.877  13.333  0.1114 -0.2757 -0.1348
 7480W        W22949  16.147   8.560   4.864 -0.1044 -0.1515  0.3202
 7481W        W22950   8.514   4.102  14.422 -0.1156 -0.2288  0.1551
 7482W        W22951  11.348   8.677  11.042 -0.2172 -0.1679 -0.1622
 7483W        W22952  11.966  10.467  12.908  0.0379 -0.2912  0.0172
 7484W        W22953  13.915   0.648  15.657  0.3905  0.0946 -0.0666
 7485W        W22954  10.920   4.591   6.019 -0.4920 -0.2218  0.3211
 7486W        W22955   2.859   0.578  11.212 -0.1903  0.3032  0.0470
 7487W        W22956   9.495   9.551  12.012 -0.2021 -0.0943  0.0275
 7488W        W22957  15.770   1.649  14.149 -0.1820 -0.1851  0.3749
 7489W        W22958   3.462   7.267  12.912 -0.0705 -0.1575  0.0322
 7490W        W22959  14.334  13.025  14.227  0.2062  0.0003  0.4317
 7491W        W22960  12.185  14.123  14.802  0.3072  0.1837 -0.1563
 7492W        W22961  14.400   6.300  12.438  0.4395 -0.2342 -0.2243
 7493W        W22962   4.618   4.746  15.038 -0.1862 -0.0590  0.0715
 7494W        W22963   2.345   3.239   2.803 -0.1134 -0.3610 -0.1842
 7495W        W22964  12.631   2.932   2.280 -0.4387  0.1493  0.3169
 7496W        W22965  10.791  12.716  13.023  0.0085  0.2169 -0.2946
 7497W        W22966  17.929  12.995   3.806  0.1205  0.0847  0.1965
 7498W        W22967   9.960   5.767  13.360 -0.1191  0.0825  0.0823
 7499W        W22968   0.966  13.380  15.333 -0.1357  0.0296 -0.0249
 7500W        W22969  15.513   4.731  11.432 -0.0039 -0.1099 -0.1768
 7501W        W22970  16.266  14.000   0.644 -0.0520  0.3268  0.3122
 7502W        W22971  10.326   6.174  15.828  0.1111  0.1022  0.0141
 7503W        W22972  10.323  17.123   4.091 -0.2085  0.3704  0.0970
 7504W        W22973   5.899   4.688   4.779  0.2043 -0.1134 -0.0287
 7505W        W22974   3.267   4.831  10.250  0.1272 -0.1996 -0.4021
 7506W        W22975  13.406   0.108   1.287  0.0087  0.2036 -0.1231
 7507W        W22976  11.272  17.190  14.318  0.1458  0.3023 -0.3970
 7508W        W22977  17.052   9.540   5.645 -0.0435  0.0701  0.2217
 7509W        W22978  12.373   5.631   4.248 -0.0137  0.0059 -0.1320
 7510W        W22979   6.378   2.945   5.647 -0.0634 -0.1162 -0.0997
 7511W        W22980  15.422  17.349  12.401 -0.0023 -0.3319  0.4100
 7512W        W22981   0.897   3.470  14.857  0.2589  0.1004 -0.0127
 7513W        W22982  15.386   8.144   4.238  0.2102 -0.2571 -0.0538
 7514W        W22983  17.628  17.867   2.257 -0.0058  0.2488 -0.0243
 7515W        W22984  14.209  15.036  15.645 -0.0788  0.0675  0.1563
 7516W        W22985   9.972   0.275  15.405 -0.0622 -0.2410 -0.2782
 7517W        W22986   4.771  13.004  11.414  0.1342 -0.1477 -0.3025
 7518W        W22987   4.125   0.359  13.190 -0.1731  0.3050  0.0445
 7519W        W22988  14.413  13.628   2.879  0.1518  0.0514 -0.0932
 7520W        W22989  11.190   8.098   5.205 -0.0470 -0.0799 -0.0565
 7521W        W22990   8.692   7.602  14.172  0.1436  0.1181 -0.1296
 7522W        W22991   8.467   8.234  15.369  0.0493  0.1343 -0.1663
 7523W        W22992   8.818  10.567   4.219  0.2737  0.0343 -0.2469
 7524W        W22993  12.582  13.114  11.875  0.1061 -0.2608 -0.1089
 7525W        W22994  12.030  17.630  12.157  0.3135 -0.1166  0.2160
 7526W        W22995  17.735   9.090   4.961  0.1898  0.3619  0.0598
 7527W        W22996   9.557   3.101  13.988  0.0370  0.1773  0.1568
 7528W        W22997   1.902   6.068  15.106 -0.0729 -0.1432 -0.0707
 7529W        W22998  15.939  14.276   0.311  0.0268 -0.3100  0.2129
 7530W        W22999   6.019  14.460   1.030 -0.0627  0.3648  0.1521
 7531W        W23000  15.715  14.546  10.551 -0.0734  0.1845 -0.1098
 7532W        W23001   1.589  10.543   3.951  0.1187  0.1073  0.2718
 7533W        W23002  10.685   0.723  12.123  0.2247 -0.5363  0.0615
 7534W        W23003   4.547  17.400   5.515  0.1508 -0.3492 -0.3331
 7535W        W23004   6.199   5.123  14.924  0.0231 -0.1278  0.3255
 7536W        W23005  11.292   4.340   5.640 -0.0987  0.2473 -0.1955
 7537W        W23006   4.093   0.896   5.302  0.1503  0.0123 -0.1908
 7538W        W23007   4.823  10.002  13.234  0.0180 -0.0704 -0.1360
 7539W        W23008   0.305   0.658   2.256 -0.3178 -0.1419  0.0353
 7540W        W23009   3.840  10.593   0.445  0.2609 -0.0738  0.2724
 7541W        W23010   6.053  13.176  11.463  0.0115  0.1913  0.1833
 7542W        W23011   7.974  15.218  13.458  0.0302  0.0075 -0.4656
 7543W        W23012   0.289  10.667  11.400  0.2846  0.0018 -0.1289
 7544W        W23013   9.888  10.962   0.465  0.2366 -0.2466 -0.0522
 7545W        W23014  18.174  17.770   3.840  0.3447  0.0653 -0.1975
 7546W        W23015   0.190   6.619  15.722 -0.0969  0.0307 -0.1159
 7547W        W23016  15.782   0.854   0.333 -0.1852  0.4412  0.3316
 7548W        W23017  14.285   3.806  15.240 -0.3035 -0.0262 -0.2167
 7549W        W23018  17.511   8.092   1.678  0.2133  0.2420  0.0853
 7550W        W23019  14.131  11.658   3.753  0.0146 -0.1199  0.4163
 7551W        W23020  13.098   5.014  14.358 -0.0323 -0.1493  0.0167
 7552W        W23021   2.729  14.930  11.728  0.1354 -0.0475  0.0501
 7553W        W23022   7.508   3.032  14.070 -0.0200 -0.1126 -0.1206
 7554W        W23023   2.930  15.193  12.431  0.0316 -0.0876  0.0606
 7555W        W23024   9.809  12.549  14.997  0.0586 -0.0372 -0.0513
 7556W        W23025   1.373   0.427  15.001 -0.2815 -0.0888 -0.1215
 7557W        W23026   3.634  14.502   4.939 -0.1159  0.0943 -0.2402
 7558W        W23027  13.619  11.589   0.093  0.1678 -0.0088 -0.3046
 7559W        W23028  11.578   4.498   2.503 -0.1017 -0.0288 -0.0224
 7560W        W23029  14.225   6.967  12.593  0.2774 -0.0044  0.0919
 7561W        W23030  11.670  13.426   0.880  0.0423 -0.1394 -0.2021
 7562W        W23031  17.148   4.446   2.178 -0.0314 -0.3774 -0.0659
 7563W        W23032  18.173  10.437   4.469 -0.0236  0.3946  0.0463
 7564W        W23033   9.782   3.832  15.714  0.1414  0.0543 -0.5205
 7565W        W23034  18.418   6.184  14.575 -0.1387  0.1611  0.2598
 7566W        W23035  14.051   6.308   4.137  0.0857 -0.0335 -0.0324
 7567W        W23036  15.986  11.539  13.314  0.0359  0.2871  0.1932
 7568W        W23037  15.132   2.089  15.540 -0.1946 -0.0780 -0.0783
 7569W        W23038   4.786   5.111   0.111  0.1956  0.2152  0.0483
 7570W        W23039  11.523  10.529   2.133 -0.1749  0.2310  0.0780
 7571W        W23040  10.218   3.988   1.436 -0.0522 -0.2600  0.1103
 7572W        W23041  15.154  14.148  12.749 -0.0988  0.0603  0.1092
 7573W        W23042   9.286   3.710  14.294  0.4913 -0.1367  0.1736
 7574W        W23043  15.663  13.255   3.497  0.1847 -0.0760 -0.1869
 7575W        W23044  11.971   1.555  11.903  0.0563 -0.0142 -0.0756
 7576W        W23045   0.631  10.099   4.527 -0.0098 -0.0327  0.3762
 7577W        W23046   4.853  17.617  15.307  0.3725  0.2314  0.2245
 7578W        W23047   9.691  16.759   4.748  0.1554  0.1263  0.0517
 7579W        W23048   3.519  15.095   2.993  0.1936 -0.3042 -0.1220
 7580W        W23049  17.256   0.486  11.508 -0.2334  0.0097  0.0477
 7581W        W23050   7.612   3.094   1.823  0.1140  0.0056 -0.1184
 7582W        W23051  18.181  14.078  11.882  0.0299  0.4133  0.2125
 7583W        W23052   4.543   5.832  11.961 -0.1811  0.0059  0.2099
 7584W        W23053   2.742  10.827   2.633 -0.1686 -0.0808 -0.0586
 7585W        W23054  17.803  13.503   1.435  0.0101 -0.0063  0.0244
 7586W        W23055   8.896  13.628  12.878  0.0652 -0.2981  0.0681
 7587W        W23056  15.160  15.776   3.279 -0.5661 -0.1076  0.0427
 7588W        W23057  11.976   4.844   0.845 -0.2391  0.1902  0.0831
 7589W        W23058   5.165  15.535   3.515  0.0226 -0.0634  0.0209
 7590W        W23059  15.542   9.620  12.470  0.2306 -0.2250 -0.2656
 7591W        W23060   5.008   2.388  12.936 -0.3257 -0.3135  0.0152
 7592W        W23061   0.592  17.995   2.954  0.1834 -0.0465  0.0790
 7593W        W23062   1.041   8.344   2.412  0.0671 -0.0730 -0.0495
 7594W        W23063   2.119  10.486   1.422 -0.0965  0.1919  0.2341
 7595W        W23064   9.479   3.827   1.200  0.0703 -0.1363  0.1787
 7596W        W23065  16.399  16.750   2.071 -0.3125 -0.1225 -0.0371
 7597W        W23066  17.148   5.101  11.048  0.1530 -0.2324 -0.2791
 7598W        W23067  17.536   7.169   2.352 -0.2402 -0.0005  0.2932
 7599W        W23068   1.021   2.202  15.306  0.1150 -0.2638 -0.0198
 7600W        W23069   0.932   8.917  13.486  0.0100  0.2372 -0.1345
 7601W        W23070  11.252   9.570   4.746  0.1759  0.2079 -0.0975
 7602W        W23071   4.958  16.996   1.921  0.1219  0.0211 -0.1176
 7603W        W23072  17.223  18.277  13.738 -0.0420 -0.2189  0.0455
 7604W        W23073   1.605   7.174   3.903 -0.0236  0.1456  0.1684
 7605W        W23074   8.555   7.110  13.103 -0.5302  0.0528 -0.0461
 7606W        W23075   7.838  11.628   4.534 -0.0448 -0.1372  0.1747
 7607W        W23076   1.133  14.209  15.574 -0.2125  0.1434  0.1741
 7608W        W23077   1.507  10.776  14.067  0.0958 -0.0651 -0.3311
 7609W        W23078   2.344   7.737  13.799 -0.1773  0.1682  0.2403
 7610W        W23079   5.154  11.742   4.822 -0.0274 -0.2145 -0.0056
 7611W        W23080   1.670  18.142   3.890  0.1195 -0.1383  0.1657
 7612W        W23081   6.564   4.126   1.504  0.0157  0.0529 -0.0952
 7613W        W23082  15.412  14.290   3.747 -0.0637 -0.1884  0.2971
 7614W        W23083  18.390   3.667   3.165  0.1188 -0.2476 -0.3564
 7615W        W23084   3.620   8.111   1.263 -0.1182  0.0206 -0.2305
 7616W        W23085  12.249  17.110   2.431  0.1516  0.1709 -0.0555
 7617W        W23086  14.117   8.076   4.233  0.0199  0.0677 -0.2496
 7618W        W23087   5.824  12.391   2.780 -0.1346  0.0841  0.1549
 7619W        W23088   0.199  11.596  15.867 -0.1880 -0.1409  0.0563
 7620W        W23089  11.508  16.604  14.296 -0.0179  0.3607 -0.1232
 7621W        W23090  13.895   4.900   0.530  0.0328 -0.4979 -0.2045
 7622W        W23091  12.635   8.797  15.479  0.1751 -0.3776 -0.2651
 7623W        W23092   5.788   2.064   5.787  0.2144 -0.2816  0.0416
 7624W        W23093  15.810   9.263   2.799  0.2868  0.0628  0.1327
 7625W        W23094  17.775   5.722  10.774  0.3947 -0.2252  0.1515
 7626W        W23095   9.036  15.019  14.430  0.1388 -0.0276 -0.0168
 7627W        W23096  17.734  18.399  14.841 -0.1620 -0.0246 -0.1308
 7628W        W23097   2.294   1.327   0.149  0.2086 -0.2926  0.1084
 7629W        W23098   8.379  15.212   0.356  0.1997  0.0149 -0.2228
 7630W        W23099  12.296  15.545  12.319  0.0365 -0.3271  0.0321
 7631W        W23100   2.547  15.893   1.115 -0.0694  0.2043  0.1196
 7632W        W23101   3.718   7.862   3.600 -0.0600  0.1323  0.1813
 7633W        W23102   0.921  14.982   1.463  0.2553 -0.0798  0.0512
 7634W        W23103   7.254  13.596  11.864 -0.0404 -0.1199  0.0011
 7635W        W23104  15.934   2.633   3.687  0.2285  0.1893  0.0553
 7636W        W23105  12.449   8.521  11.839 -0.2547  0.0925  0.0999
 7637W        W23106  16.234   9.985   3.884 -0.0048  0.0808  0.2419
 7638W        W23107   0.645  15.260  15.565  0.2308  0.2516 -0.2522
 7639W        W23108  15.642   1.934  13.606  0.4627  0.2363  0.1012
 7640W        W23109   6.938  18.309   0.503  0.0629  0.1381  0.3032
 7641W        W23110   6.826   6.443  10.270 -0.3188  0.2547  0.1056
 7642W        W23111   1.136   1.550   0.876 -0.1322  0.1593  0.1272
 7643W        W23112   7.761  16.264   1.108  0.1997  0.2034 -0.2086
 7644W        W23113  15.405  10.578   1.821 -0.2525  0.0136  0.1537
 7645W        W23114   5.121  15.759   2.355  0.1782 -0.4307  0.1663
 7646W        W23115   9.581  12.153   9.923 -0.0257 -0.0204 -0.0528
 7647W        W23116  13.476  18.336  14.754 -0.0827 -0.0233 -0.3150
 7648W        W23117  13.498   6.302  11.668  0.1344  0.1004  0.0201
 7649W        W23118  18.463   7.431  14.907 -0.3384 -0.0911 -0.2285
 7650W        W23119   0.431  13.527   2.513 -0.1789 -0.0787 -0.1834
 7651W        W23120  10.436   0.058  13.992 -0.0673 -0.1392 -0.2598
 7652W        W23121   0.878   2.071  12.414 -0.1885  0.0010  0.0260
 7653W        W23122  17.745   1.862   4.614  0.5570 -0.0079  0.2200
 7654W        W23123  15.222  13.460  11.925  0.1574 -0.2790 -0.1482
 7655W        W23124   4.047   3.634  15.915 -0.0930 -0.0031 -0.2307
 7656W        W23125  12.471   3.549  14.350  0.0233 -0.2022 -0.4478
 7657W        W23126   4.634   2.328  13.990 -0.0238  0.1066  0.0547
 7658W        W23127   2.295  18.308   0.981 -0.0724 -0.2475  0.0044
 7659W        W23128   2.478  17.288  12.526 -0.2037 -0.0481 -0.0202
 7660W        W23129   7.102   7.434   3.553 -0.0533  0.0611  0.0708
 7661W        W23130   3.170   6.680   4.148  0.2730  0.2799 -0.0651
 7662W        W23131   3.909   0.327   2.318  0.1424 -0.1306  0.0070
 7663W        W23132  13.578   8.243   2.013 -0.3010 -0.0707  0.0930
 7664W        W23133   5.783  13.594   5.709 -0.1766  0.2550 -0.3610
 7665W        W23134   5.047   6.896   2.587  0.1715  0.2504  0.0575
 7666W        W23135  12.327   6.450   1.136 -0.4537 -0.2887 -0.3178
 7667W        W23136  13.971   6.513  11.506 -0.4186  0.0157 -0.3984
 7668W        W23137  15.261   0.094  12.443 -0.0720 -0.1011  0.0002
 7669W        W23138   0.068  12.024  10.752  0.0479  0.2034  0.1446
 7670W        W23139   6.714   0.424   1.826 -0.1986 -0.0171  0.2761
 7671W        W23140  17.791   5.332  11.647 -0.2954 -0.1086  0.2236
 7672W        W23141   8.937  11.374  10.757 -0.0778  0.2883 -0.0910
 7673W        W23142   4.931  16.157   1.544 -0.1701 -0.0367 -0.2123
 7674W        W23143   0.932   9.349   2.479 -0.0990  0.0291  0.1794
 7675W        W23144   2.050   0.315   0.294  0.2496 -0.3551  0.1029
 7676W        W23145   2.462   5.819  15.273  0.2693  0.2347  0.2560
 7677W        W23146   8.435   3.218   2.654 -0.0939  0.3811 -0.0748
 7678W        W23147  12.302  10.237  11.009 -0.1579 -0.2721  0.0513
 7679W        W23148  15.528  10.669  14.308 -0.2302  0.1663  0.3778
 7680W        W23149   1.454  11.471   3.864  0.1718  0.0599 -0.0833
 7681W        W23150   4.591  12.843   5.076 -0.0885  0.0617  0.1214
 7682W        W23151  13.876  18.397   2.472 -0.1366 -0.3151 -0.0202
 7683W        W23152   7.757   6.756   5.556 -0.0161  0.0604 -0.1333
 7684W        W23153  14.930   7.295   4.264  0.1668 -0.6947 -0.0742
 7685W        W23154   9.695  16.233  12.302 -0.2162  0.2129  0.1590
 7686W        W23155   8.332  10.755   4.216 -0.1011 -0.0117  0.5110
 7687W        W23156   5.953  15.158   0.764  0.1361  0.0265 -0.1140
 7688W        W23157   2.699  10.146  11.703  0.0252  0.2003 -0.4238
 7689W        W23158   7.910   1.059  14.858 -0.0248  0.1328 -0.2878
 7690W        W23159  16.164   8.359  15.482 -0.1939 -0.0521 -0.2930
 7691W        W23160   0.184  13.354   4.660  0.1370 -0.1362  0.1191
 7692W        W23161  12.914   8.458   0.488 -0.0931 -0.0576  0.0334
 7693W        W23162   8.719  11.262   2.561 -0.2316  0.2089 -0.1142
 7694W        W23163  17.128   0.233  14.091 -0.2511  0.2571  0.1252
 7695W        W23164  13.422  13.979   4.773  0.0331  0.0129 -0.1172
 7696W        W23165  10.903   0.848  13.586  0.0697  0.1435 -0.0491
 7697W        W23166   1.462   1.323   4.830  0.0715  0.1445 -0.0188
 7698W        W23167  17.996   1.489   2.892  0.0769  0.0529 -0.2423
 7699W        W23168  16.812   1.327   3.256  0.2122 -0.0666  0.4577
 7700W        W23169  13.219  13.837  12.851  0.3340 -0.1483  0.1499
 7701W        W23170   8.807  10.375  11.721  0.2061  0.0798 -0.0197
 7702W        W23171  12.176  12.202  12.060 -0.2126  0.1560 -0.2660
 7703W        W23172  10.263  16.140   2.154  0.1373 -0.0094  0.2730
 7704W        W23173  13.550   5.257  13.126 -0.0896 -0.1015 -0.0565
 7705W        W23174   8.757  10.318   0.024 -0.2816  0.1903  0.1456
 7706W        W23175  11.708   7.303   0.460  0.0374 -0.0815 -0.1368
 7707W        W23176   0.582   1.361  11.953 -0.3100  0.0137  0.1143
 7708W        W23177   3.871   8.999  13.090  0.2733 -0.1500  0.2031
 7709W        W23178   8.037   7.916  15.500 -0.1132  0.0543  0.0555
 7710W        W23179  16.409  17.338  11.627 -0.0060 -0.4753  0.0192
 7711W        W23180  16.162  13.847   1.137 -0.0690 -0.0643  0.3019
 7712W        W23181   5.947  10.173  10.920  0.1439 -0.1201 -0.1530
 7713W        W23182  12.183   4.364   3.821 -0.3056  0.1396  0.0288
 7714W        W23183  18.122  11.293  14.311  0.1084  0.0144 -0.0056
 7715W        W23184   6.722  11.309   4.774 -0.2237  0.0375 -0.2339
 7716W        W23185   5.730   4.217  11.323 -0.3801 -0.0489 -0.0551
 7717W        W23186   7.602  14.937  11.657 -0.0717 -0.0023  0.2708
 7718W        W23187   1.581  14.022   4.143 -0.1976 -0.1696  0.0693
 7719W        W23188   5.091   6.695   0.485  0.1388  0.1145 -0.1384
 7720W        W23189  12.045   1.094  11.012 -0.5780 -0.1076 -0.0348
 7721W        W23190  13.305  15.586   2.550 -0.1442  0.0133  0.1628
 7722W        W23191  13.598   7.497  10.366  0.0910  0.3001  0.1425
 7723W        W23192   8.552  13.847  13.200 -0.1661  0.0940  0.0745
 7724W        W23193  16.515   0.450   1.648  0.0076  0.0362 -0.2356
 7725W        W23194  18.006  15.977  12.050  0.0481 -0.2096  0.0048
 7726W        W23195   5.823   2.376  15.496  0.2104 -0.0065 -0.2095
 7727W        W23196   4.210  17.719   1.998 -0.3327  0.2112 -0.1471
 7728W        W23197   0.495   5.898   4.668 -0.1081  0.3064  0.1988
 7729W        W23198  10.596   3.613   4.411 -0.1432 -0.0417  0.0814
 7730W        W23199  11.997  13.551  15.334 -0.4936  0.0569 -0.1475
 7731W        W23200  17.463  14.465  14.376  0.3163  0.2535  0.0688
 7732W        W23201  10.817  12.262  11.952 -0.0826  0.1130 -0.1113
 7733W        W23202  11.843  10.804  14.321  0.0396 -0.0995 -0.0312
 7734W        W23203  11.962   8.193   2.689  0.1186  0.2334  0.0414
 7735W        W23204  10.439   4.718   1.840 -0.1113 -0.0279  0.1432
 7736W        W23205   4.990   0.143  11.172 -0.0335 -0.1533  0.0686
 7737W        W23206  15.323  12.473  12.515 -0.3450 -0.2578 -0.2197
 7738W        W23207  16.071  12.664   1.270 -0.1544 -0.1233 -0.0926
 7739W        W23208   5.408   6.294  15.642 -0.0210 -0.2813 -0.0362
 7740W        W23209  18.335   0.845   4.898  0.0163  0.2292 -0.1520
 7741W        W23210   7.817   8.715  14.243 -0.0453 -0.3651 -0.1334
 7742W        W23211   1.528   8.596   3.086 -0.2867 -0.2131 -0.1685
 7743W        W23212   0.280   8.197  14.919  0.1802 -0.0636  0.0421
 7744W        W23213  10.581  15.275  13.888 -0.3777 -0.0648 -0.1791
 7745W        W23214  10.594  12.102  14.366  0.0459  0.1174  0.0170
 7746W        W23215   4.746  11.746   3.932  0.1692  0.1761  0.4514
 7747W        W23216   3.437  15.445  15.106 -0.0486 -0.0004  0.1665
 7748W        W23217   2.770  10.863  15.256  0.2105  0.2846 -0.2228
 7749W        W23218   1.758  16.072   2.968 -0.0818  0.2204  0.0108
 7750W        W23219   9.187   2.583   0.230 -0.3130  0.1696 -0.2054
 7751W        W23220  14.164   1.127   2.583  0.1841 -0.2265 -0.2426
 7752W        W23221   7.216   2.652  13.919  0.2135  0.0596  0.1661
 7753W        W23222   4.431  14.308  11.460 -0.0829  0.1734 -0.3150
 7754W        W23223  11.992  17.740   4.772 -0.0452  0.2182  0.4723
 7755W        W23224   9.180  16.237  12.578  0.0983  0.1482 -0.0836
 7756W        W23225   0.569  11.998  15.899 -0.1908 -0.0313 -0.0437
 7757W        W23226  14.835  16.431  13.093  0.0915  0.0554 -0.1659
 7758W        W23227   6.394  17.003   1.301  0.1146  0.1314  0.1571
 7759W        W23228   3.476   2.832   1.423 -0.1353 -0.0676 -0.2844
 7760W        W23229  17.626   3.450  12.426 -0.1567  0.0338  0.2466
 7761W        W23230   7.216   3.007   1.487  0.3472 -0.0887  0.2286
 7762W        W23231   5.654   3.539   2.897  0.4418  0.0898 -0.1308
 7763W        W23232  12.356   9.537   1.627  0.2075 -0.2189  0.2375
 7764W        W23233   6.419   1.473   2.041  0.1012  0.0623 -0.0710
 7765W        W23234  16.899  13.782  11.821 -0.1126 -0.1688 -0.0170
 7766W        W23235  13.472  14.250   1.792 -0.2149  0.0162 -0.0014
 7767W        W23236  14.999   6.513  13.384 -0.3268  0.0033  0.1964
 7768W        W23237   2.729   7.962  13.025  0.1362 -0.1882 -0.2243
 7769W        W23238   4.400  17.108   0.189 -0.4145 -0.0681  0.0351
 7770W        W23239  17.914   1.320  12.654 -0.0158  0.2565 -0.0018
 7771W        W23240  10.957   8.646   3.639  0.4540  0.5735 -0.1246
 7772W        W23241  11.284  14.687  13.287  0.1018 -0.4975 -0.2116
 7773W        W23242  17.620  17.353   4.226  0.0611  0.2328 -0.0389
 7774W        W23243  17.082  13.614  10.011  0.0208  0.5873  0.4119
 7775W        W23244  17.149   8.230  12.341  0.1833  0.0331  0.2056
 7776W        W23245   6.738   9.665   1.991 -0.0514 -0.0220 -0.4550
 7777W        W23246   3.632   2.532  13.700  0.2747  0.1782 -0.0332
 7778W        W23247  15.410   2.338  15.188 -0.0883 -0.4471 -0.0145
 7779W        W23248  14.697   3.801   1.063 -0.0273 -0.2414 -0.3379
 7780W        W23249  13.242  16.867   4.947  0.1170 -0.1288 -0.2155
 7781W        W23250  18.393  10.736  13.183 -0.1161  0.0368 -0.0067
 7782W        W23251  11.671   3.460  13.748  0.2568 -0.2475 -0.1656
 7783W        W23252  11.830   8.145   4.317 -0.4350 -0.1454 -0.0866
 7784W        W23253  13.480  14.623   2.785 -0.2025  0.2035 -0.4414
 7785W        W23254  15.364  18.188  14.935  0.2241  0.0128 -0.1596
 7786W        W23255  18.236  12.898  11.250 -0.2021  0.0748  0.2574
 7787W        W23256   4.663   9.362  13.487 -0.2248  0.2654 -0.2609
 7788W        W23257   8.976  13.279  11.621 -0.0544  0.4688 -0.2345
 7789W        W23258  18.006   5.379  12.635 -0.1220  0.0278  0.3478
 7790W        W23259   8.068  10.053   3.259 -0.1312  0.0330  0.3518
 7791W        W23260   2.147   8.471  14.452 -0.1422  0.0041  0.0697
 7792W        W23261   8.810   9.718  12.593  0.0995  0.2086  0.0985
 7793W        W23262   6.214   3.765   3.021 -0.2686  0.3427 -0.4738
 7794W        W23263   3.118  17.021   0.422 -0.1818 -0.1737 -0.0495
 7795W        W23264   9.660  14.917  12.043 -0.1408  0.2467  0.1566
 7796W        W23265  10.527   9.639  12.953 -0.0631  0.1137 -0.0877
 7797W        W23266   1.207   6.211  11.204 -0.0359 -0.1421 -0.0989
 7798W        W23267  12.611   4.215  12.662 -0.1163  0.0219  0.0226
 7799W        W23268   0.954   8.762   5.369  0.0632  0.3392  0.1746
 7800W        W23269   1.159   0.508  14.020  0.1836  0.2261 -0.0688
 7801W        W23270   2.412  11.786   1.876 -0.1802 -0.4001  0.0112
 7802W        W23271  15.131   0.357  11.393  0.2270 -0.2925  0.2409
 7803W        W23272   4.087  12.952   4.276  0.0193 -0.0640  0.0686
 7804W        W23273   5.084  15.273  14.906 -0.2758 -0.1245 -0.2755
 7805W        W23274  12.788  12.281   4.659 -0.2287  0.0760  0.1115
 7806W        W23275   6.879  11.377  12.183 -0.0697 -0.4081 -0.5728
 7807W        W23276  10.448  18.017  15.713 -0.0153 -0.0609  0.0376
 7808W        W23277  18.335  10.513  12.638  0.1887 -0.2379  0.1030
 7809W        W23278  18.146   5.315  14.086  0.0541 -0.0836  0.2183
 7810W        W23279   8.429   7.056  14.577  0.3664 -0.0338  0.0705
 7811W        W23280  15.876  11.347   4.052  0.2455  0.0105 -0.2027
 7812W        W23281  15.867   3.496  14.953  0.3000 -0.2120  0.1881
 7813W        W23282   0.912   1.044   0.087  0.2105  0.2149  0.1427
 7814W        W23283  16.169  14.492  14.982  0.1189 -0.0438 -0.0195
 7815W        W23284   9.829  14.199   3.613 -0.0090  0.0868 -0.0549
 7816W        W23285  16.551   1.053  13.961  0.0118  0.0760  0.1593
 7817W        W23286  17.305   8.395   1.381  0.0986 -0.0903 -0.0506
 7818W        W23287   6.518   5.345   2.820 -0.0477 -0.1532  0.1433
 7819W        W23288   9.683   2.233   4.811 -0.0112 -0.1211 -0.1291
 7820W        W23289   3.137   1.034  13.342 -0.3346  0.0710 -0.1048
 7821W        W23290   8.072   6.928   3.493  0.3773  0.1595  0.0872
 7822W        W23291   9.406  18.250  11.572 -0.2386 -0.2591  0.2949
 7823W        W23292   7.498   7.589   4.675 -0.0511  0.1927 -0.1607
 7824W        W23293   4.821  10.498  12.161  0.3952  0.1301  0.0997
 7825W        W23294  11.378   9.796  13.293 -0.1749 -0.0893 -0.1368
 7826W        W23295   7.618   4.442   0.828 -0.0416  0.0019 -0.0820
 7827W        W23296  10.186   0.531   5.789 -0.1845 -0.2909  0.0105
 7828W        W23297   0.403  11.250  12.329  0.1071  0.4713 -0.0605
 7829W        W23298  15.410   1.478  13.781  0.0274 -0.3055 -0.0529
 7830W        W23299  11.785  15.858  12.919 -0.0198 -0.1290  0.1684
 7831W        W23300   0.578   6.229  12.750 -0.4117 -0.0390 -0.1520
 7832W        W23301   6.790  18.364   1.836  0.2564 -0.0453  0.4699
 7833W        W23302   8.663   5.925   2.074 -0.1703  0.0719  0.1527
 7834W        W23303   6.051   4.030  11.693  0.0225 -0.4306  0.0384
 7835W        W23304   5.131   8.718  12.946 -0.0361  0.0546 -0.0374
 7836W        W23305   4.132  13.590  11.006  0.2885 -0.3545  0.2376
 7837W        W23306  15.675   7.285  13.675 -0.1460  0.2410  0.0842
 7838W        W23307   0.886  14.505   3.335  0.1057 -0.0610  0.1325
 7839W        W23308  16.944  16.649   0.251 -0.0169  0.1034  0.3465
 7840W        W23309  14.938   1.177   2.944  0.0500  0.0606  0.0263
 7841W        W23310  12.435   0.984  15.644  0.1975 -0.0423 -0.0924
 7842W        W23311   7.988   3.760   3.709 -0.2036 -0.2005  0.2878
 7843W        W23312   6.858   8.027  10.864  0.0290  0.3568 -0.2038
 7844W        W23313  10.325   8.092   3.855 -0.1269 -0.1720 -0.0243
 7845W        W23314  12.152   6.157  14.645  0.2929  0.1903 -0.3604
 7846W        W23315   5.647   0.019   0.653 -0.3147 -0.1188  0.0610
 7847W        W23316   4.718  14.499  13.244  0.0857  0.2832  0.1062
 7848W        W23317  17.738   7.271   1.082 -0.0087  0.1450 -0.3902
 7849W        W23318  13.230  18.352   0.307 -0.0814 -0.0313 -0.0213
 7850W        W23319  10.238   7.402   2.610 -0.1965  0.0273  0.0417
 7851W        W23320   3.670   8.363   3.151 -0.2512 -0.1680  0.2531
 7852W        W23321  15.662   2.447  13.460  0.0235  0.2555  0.2548
 7853W        W23322  12.269   7.843   2.342  0.0832 -0.1126 -0.1496
 7854W        W23323   3.979   6.068  13.993  0.3064  0.0653 -0.1887
 7855W        W23324   3.649   0.923  13.946 -0.3742  0.4109 -0.0657
 7856W        W23325   7.657   3.407   5.202 -0.1408 -0.2073  0.1154
 7857W        W23326  17.051   5.139   1.435 -0.1087 -0.0504  0.0342
 7858W        W23327  14.236  11.007  10.592  0.0474  0.2288 -0.0058
 7859W        W23328  10.654  17.995   2.429  0.1808 -0.0770 -0.2784
 7860W        W23329  17.742   8.261   2.184 -0.0873 -0.0392  0.0457
 7861W        W23330   4.198  10.633  12.340  0.0017  0.3259  0.1824
 7862W        W23331  15.492   5.644   2.720  0.0892  0.0349  0.1326
 7863W        W23332   1.555   1.099   0.675  0.3465  0.2475  0.0721
 7864W        W23333  16.880  11.912   1.805  0.0297  0.1869 -0.3890
 7865W        W23334  16.820   7.630  14.455 -0.2013  0.0146  0.1773
 7866W        W23335   9.659   5.900  12.436 -0.1341  0.0752  0.2111
 7867W        W23336   9.615   0.471  13.782 -0.1390  0.2525 -0.0499
 7868W        W23337   6.089  10.258  12.748 -0.0694 -0.2624 -0.0320
 7869W        W23338  17.802  12.820   2.026  0.0429 -0.1377 -0.0433
 7870W        W23339   8.326  14.206   4.113 -0.2138  0.1020  0.1264
 7871W        W23340  13.505   1.978   1.212  0.0172 -0.1002 -0.2287
 7872W        W23341  14.065  17.220  12.812  0.0190 -0.0069 -0.2074
 7873W        W23342  11.708   5.531   2.158  0.1866 -0.2647  0.2688
 7874W        W23343   3.311  10.985   5.328  0.1420 -0.5438 -0.0623
 7875W        W23344  15.519   3.116  11.723 -0.2142  0.4240 -0.1712
 7876W        W23345  13.684   7.140   2.956  0.0932  0.0135 -0.3633
 7877W        W23346   5.969  10.446   1.823 -0.1042 -0.2048  0.0612
 7878W        W23347  10.858   1.917  13.593  0.2052  0.1094  0.0904
 7879W        W23348  18.085   3.204  12.114  0.4402  0.3035  0.2788
 7880W        W23349  12.794   8.548  13.520  0.2066  0.2848 -0.1098
 7881W        W23350  12.835   0.813  13.654 -0.1191 -0.1481  0.0519
 7882W        W23351   9.530  10.459   2.871 -0.1544 -0.5170 -0.0452
 7883W        W23352   5.872   6.238   0.697 -0.0365  0.2448 -0.0848
 7884W        W23353  15.020  18.339   0.628  0.0602 -0.0089  0.2247
 7885W        W23354   3.737   8.203  12.545  0.1783 -0.0740  0.0278
 7886W        W23355   8.417   8.027   0.022  0.0520 -0.1984 -0.1592
 7887W        W23356  17.879  18.244  11.917 -0.0922 -0.0198 -0.1844
 7888W        W23357  14.442   7.659   0.463  0.1545 -0.0272  0.0283
 7889W        W23358  14.939  14.464  15.367 -0.1339  0.0828  0.1921
 7890W        W23359   8.867  14.227  11.807  0.2530 -0.3817 -0.1423
 7891W        W23360  14.480  17.247  11.327  0.0978  0.1367 -0.0712
 7892W        W23361  13.871   4.010   4.178  0.0505  0.1779 -0.2812
 7893W        W23362   1.841  12.683  13.634  0.3994  0.1226  0.0549
 7894W        W23363   1.655   2.360   1.342 -0.2482  0.4624 -0.3524
 7895W        W23364   2.050  13.369   0.962  0.0202  0.0297 -0.0908
 7896W        W23365  12.489  12.623   0.324  0.0283  0.1720 -0.0730
 7897W        W23366   4.913  13.686   5.140  0.1833  0.2781  0.0391
 7898W        W23367   6.524   7.393   1.864 -0.1051 -0.0053 -0.0219
 7899W        W23368  10.592   8.889  13.785 -0.0141 -0.1769  0.2926
 7900W        W23369  10.855  11.780  13.472  0.1297 -0.0614 -0.0835
 7901W        W23370  17.913   8.469  12.669  0.2865  0.0435  0.5464
 7902W        W23371   2.737   4.760  10.852 -0.0931  0.0904  0.0292
 7903W        W23372   8.272   1.663  15.721  0.0239  0.1483 -0.1258
 7904W        W23373  11.451  10.353   4.923 -0.1101  0.2148 -0.2760
 7905W        W23374  13.227   3.517  10.611 -0.0476  0.0321 -0.0403
 7906W        W23375   3.514   3.830   5.278 -0.0198 -0.0010  0.0245
 7907W        W23376  18.054  15.068  14.050  0.0131  0.2974  0.2912
 7908W        W23377   1.078  11.186  15.580  0.2266  0.2471 -0.2124
 7909W        W23378  14.005  14.915   1.665  0.4940  0.0543  0.0085
 7910W        W23379   4.357   5.769  11.133  0.2811  0.0025  0.2479
 7911W        W23380  16.878   4.497  13.863  0.1332  0.1465  0.3838
 7912W        W23381   5.892  16.653  13.067 -0.2662  0.1779 -0.0972
 7913W        W23382   6.125   9.122   3.431 -0.3570  0.2065 -0.2117
 7914W        W23383   9.123   5.908   2.950 -0.0031  0.1998  0.2417
 7915W        W23384   1.958  12.629   1.515 -0.4345  0.0714  0.4859
 7916W        W23385  16.454  10.609  10.638  0.1198  0.0219 -0.1406
 7917W        W23386   9.314   0.388   3.671 -0.3061 -0.0029  0.1644
 7918W        W23387   4.271  15.996  15.470  0.0743 -0.0961 -0.0133
 7919W        W23388   6.846   2.333  14.074 -0.2086 -0.0008  0.1303
 7920W        W23389  17.829   1.696  15.115 -0.0777  0.0960  0.0389
 7921W        W23390   1.424   1.427   4.132 -0.0058  0.1570  0.0006
 7922W        W23391  10.702   1.519   4.596 -0.0686 -0.0634  0.3217
 7923W        W23392   4.685  18.457   0.265 -0.2609  0.2121  0.1161
 7924W        W23393   0.504  10.849   0.232  0.2595  0.0631  0.1464
 7925W        W23394  13.014   6.413  11.070  0.2349 -0.2690  0.0222
 7926W        W23395   1.150   1.726  12.757  0.0108  0.1340 -0.1058
 7927W        W23396  17.392  11.669  11.307 -0.0728 -0.0854  0.1642
 7928W        W23397   1.550  14.815   4.135  0.3475 -0.2105  0.1537
 7929W        W23398  11.324   7.664   4.887 -0.1481  0.4163  0.0447
 7930W        W23399  15.841   1.016   4.795 -0.1483 -0.0186 -0.0908
 7931W        W23400   5.042  11.034  15.010 -0.1967  0.0078 -0.1485
 7932W        W23401  13.913   4.165  10.822  0.1424 -0.0078  0.1331
 7933W        W23402   4.147   8.030  10.734  0.2170 -0.2350  0.1496
 7934W        W23403   5.712  14.415  13.153  0.0467  0.0242  0.1253
 7935W        W23404  17.579   0.814  15.818  0.1650  0.0269 -0.1227
 7936W        W23405   0.642  12.881   0.518  0.2950 -0.0646 -0.2487
 7937W        W23406  15.433   5.676   5.097 -0.1445  0.0406 -0.0877
 7938W        W23407  17.583   3.753  14.036  0.2004  0.0003  0.2142
 7939W        W23408   0.704   7.761  10.966  0.1002  0.1222 -0.1414
 7940W        W23409  14.894  14.754  11.084  0.0257  0.0498 -0.0971
 7941W        W23410  11.491   6.287  10.609  0.0234  0.0091 -0.3431
 7942W        W23411  13.869   3.508  12.458 -0.0593  0.1780  0.1384
 7943W        W23412   3.542  15.505  14.134  0.0905 -0.3482  0.0995
 7944W        W23413   3.655   0.617  13.133  0.4577  0.1558  0.1206
 7945W        W23414   6.896   8.027   5.219 -0.1345 -0.0237  0.0121
 7946W        W23415   7.147   0.532   2.377 -0.2186 -0.0394  0.2847
 7947W        W23416  12.547   8.083   2.800  0.2734 -0.1970  0.2549
 7948W        W23417   8.825   5.708   3.313  0.0503 -0.0848 -0.1364
 7949W        W23418  10.965   8.930   4.158 -0.0140  0.0726  0.3003
 7950W        W23419   4.011  12.977  12.720  0.1097 -0.0708  0.2981
 7951W        W23420   9.761   4.113  14.273 -0.1142  0.0183 -0.2442
 7952W        W23421  13.577   6.754  15.094  0.3073  0.2032  0.1375
 7953W        W23422  12.664  14.707  12.926  0.1056  0.0745  0.0301
 7954W        W23423  16.293   5.658  12.063  0.2672  0.2288 -0.2879
 7955W        W23424  13.305   0.460  11.635 -0.3588 -0.3992  0.3759
 7956W        W23425  16.673   8.075   9.781 -0.0223  0.1443 -0.0473
 7957W        W23426  17.634  14.157  14.770 -0.3308  0.2161 -0.0323
 7958W        W23427  16.426   6.272  10.669 -0.1383 -0.1319  0.0359
 7959W        W23428   5.829   5.303   2.308  0.0414 -0.0155  0.1140
 7960W        W23429  16.613  14.596  15.538 -0.0455 -0.2228  0.1842
 7961W        W23430  14.594   3.197  12.602  0.2088 -0.1381 -0.2969
 7962W        W23431   0.768  13.020   0.974  0.1952 -0.0780 -0.2270
 7963W        W23432   8.899  16.138   4.500 -0.1157  0.3385 -0.1196
 7964W        W23433   6.651  11.382  12.630  0.1995 -0.0576 -0.4422
 7965W        W23434   9.932   6.971   0.075  0.2160  0.3208 -0.0765
 7966W        W23435  16.389   3.667   5.443  0.3241 -0.0015  0.0114
 7967W        W23436  11.128  11.154   3.771  0.1810 -0.1849 -0.2042
 7968W        W23437   4.360   3.768   0.929  0.2214 -0.0619  0.1447
 7969W        W23438   3.114   0.405   3.664 -0.0744  0.2774  0.1003
 7970W        W23439  13.689  13.720  12.213  0.5376 -0.1444  0.0475
 7971W        W23440   3.152  17.687   1.986 -0.2256  0.0353 -0.1980
 7972W        W23441  13.189   6.666  11.928 -0.0433  0.0152 -0.1997
 7973W        W23442   9.848  11.181   2.456  0.0253  0.1400 -0.1153
 7974W        W23443   8.671  17.412   2.073  0.1058 -0.2906 -0.0705
 7975W        W23444   6.885  13.478  15.814 -0.2466  0.1315  0.2295
 7976W        W23445  13.244  15.582   1.929  0.0931 -0.0986 -0.1752
 7977W        W23446  13.013  12.478   4.254  0.1888  0.0607  0.3214
 7978W        W23447  14.194   6.429   9.663 -0.0986  0.2108 -0.2758
 7979W        W23448   0.888  15.799  14.806 -0.2261  0.1857 -0.2483
 7980W        W23449   6.230   0.226   1.655 -0.2059 -0.2155 -0.1094
 7981W        W23450   4.724  15.291  14.087 -0.2216 -0.1340 -0.1966
 7982W        W23451  14.414   0.744   3.612  0.3485 -0.0421  0.0767
 7983W        W23452   1.190   2.519   1.652  0.1345  0.2478  0.0514
 7984W        W23453   6.211   9.413   2.057  0.1873 -0.1429 -0.2627
 7985W        W23454   9.918  18.215   3.556 -0.0005  0.1710 -0.3179
 7986W        W23455  16.652  18.397   3.207  0.3212 -0.0907 -0.4647
 7987W        W23456   6.620   8.938  12.705 -0.1591  0.0260 -0.0797
 7988W        W23457   3.098  12.345  11.149  0.2235 -0.2698 -0.0623
 7989W        W23458   5.035   4.293   3.032  0.0745  0.1698 -0.1753
 7990W        W23459   9.634  17.483  13.943 -0.5314 -0.1884  0.0280
 7991W        W23460  10.512  15.537  11.042  0.2946  0.1099  0.1069
 7992W        W23461  16.373  10.303   5.124  0.2493  0.3375  0.0632
 7993W        W23462   4.632  11.536  14.773  0.3241 -0.2441 -0.0978
 7994W        W23463   4.741   9.791  14.049 -0.0640  0.0305  0.1801
 7995W        W23464   3.187  10.856  13.796  0.2487 -0.1667 -0.1965
 7996W        W23465  13.893   2.732  14.170  0.1399 -0.1030  0.1635
 7997W        W23466   7.034   0.141  10.221  0.1331 -0.1068  0.1636
 7998W        W23467   4.749   5.818  15.894 -0.0444  0.0544  0.2775
 7999W        W23468   3.468  16.799  14.344  0.1385  0.1067 -0.0392
 8000W        W23469  14.914  11.526  14.593  0.0533 -0.0267  0.4034
 8001W        W23470  15.059  16.040  12.301 -0.2332 -0.1099  0.2552
 8002W        W23471  16.669   4.076  11.185  0.1855 -0.0801 -0.0212
 8003W        W23472  10.307   3.288   0.826 -0.0191  0.1044  0.2780
 8004W        W23473   5.967   3.067  15.820 -0.0707 -0.2370 -0.2085
 8005W        W23474  11.583   0.979  11.725 -0.0625 -0.3206  0.4053
 8006W        W23475  17.932  13.428  10.640 -0.1643 -0.0311 -0.0024
 8007W        W23476  13.118   6.543   2.842 -0.4764 -0.3237 -0.0279
 8008W        W23477   7.078  15.212   1.788  0.0494 -0.0207 -0.1091
 8009W        W23478   6.391   5.576  15.506  0.0441 -0.1270  0.0247
 8010W        W23479  12.779  15.750  12.972  0.0739 -0.0722  0.2110
 8011W        W23480  12.655  13.789  11.541 -0.1080  0.1213  0.0460
 8012W        W23481   5.949  17.723   1.871 -0.1053  0.2273  0.1342
 8013W        W23482   3.584  15.574  12.559  0.1185  0.2032  0.3489
 8014W        W23483   9.966   9.520  11.097 -0.3732  0.3729 -0.1425
 8015W        W23484   3.402  13.778   1.690  0.2094 -0.1243  0.1027
 8016W        W23485   2.146  11.180  14.674  0.1103  0.3619 -0.1064
 8017W        W23486   5.145   5.785   2.226  0.1996  0.2994 -0.1708
 8018W        W23487  13.868   6.936  11.310 -0.2703 -0.2650  0.1379
 8019W        W23488   1.356  16.260   5.550 -0.1146  0.1047 -0.0565
 8020W        W23489   6.968   7.401   1.604 -0.0153 -0.2124  0.1201
 8021W        W23490  11.230   4.454   0.822 -0.0333  0.0599 -0.2480
 8022W        W23491  16.307  18.251   4.483  0.0089 -0.1840 -0.1332
 8023W        W23492  11.431   3.092   3.082  0.2851  0.1918  0.1408
 8024W        W23493   6.014   0.987  11.174  0.0777  0.0678 -0.3502
 8025W        W23494   2.009   5.701  13.846  0.0505  0.0058 -0.3645
 8026W        W23495   3.536   4.291  14.217 -0.5156  0.1940 -0.2421
 8027W        W23496   5.266  10.277   3.510 -0.1704  0.0794  0.2352
 8028W        W23497  14.823   9.805  14.216 -0.2968 -0.3046  0.1367
 8029W        W23498  17.458   7.744   3.751  0.2072 -0.4389 -0.0445
 8030W        W23499   6.335  13.544   0.042  0.0139  0.0188 -0.0422
 8031W        W23500   1.461   3.370  11.478 -0.1347  0.1947  0.0469
 8032W        W23501   5.299   7.224  15.129 -0.1650  0.0462 -0.1804
 8033W        W23502  14.179   2.581   1.620 -0.0799  0.0235  0.1521
 8034W        W23503   3.673   1.533   0.649  0.3547 -0.0399 -0.0694
 8035W        W23504  10.368   3.023   3.813  0.0125 -0.1339 -0.0854
 8036W        W23505  14.732   2.740  11.345  0.1985  0.1725 -0.1047
 8037W        W23506   0.526  11.221  13.771  0.1418  0.1905  0.1189
 8038W        W23507  12.892   0.336  14.716  0.0598 -0.1186 -0.2220
 8039W        W23508  12.370   9.330   3.763  0.4081 -0.0158 -0.2032
 8040W        W23509   9.725   0.875   3.066  0.3929  0.0439  0.1960
 8041W        W23510  16.494   5.882  14.880  0.0619  0.1249 -0.1113
 8042W        W23511   7.591  14.134  11.887 -0.3368 -0.1853 -0.0998
 8043W        W23512   2.807  16.028   3.828  0.2154  0.2834  0.1444
 8044W        W23513   4.438   3.695  12.818 -0.2545  0.0616  0.3301
 8045W        W23514   8.286   8.425   4.498 -0.1464 -0.2972  0.1627
 8046W        W23515   6.685  17.232  14.815 -0.0319 -0.0142 -0.0050
 8047W        W23516   0.170  14.920   3.086 -0.1535 -0.1625 -0.3691
 8048W        W23517   8.291   5.313  13.471  0.1145 -0.0851  0.0331
 8049W        W23518   4.767  13.766   3.248 -0.2145 -0.1953  0.0317
 8050W        W23519  17.670   9.980  11.708  0.0380 -0.2840 -0.0344
 8051W        W23520   3.679   1.628   4.381  0.0029  0.1010  0.1634
 8052W        W23521   4.596   5.967   1.445 -0.0797 -0.1936  0.0632
 8053W        W23522   1.747  10.313   5.115 -0.0484  0.1528 -0.0987
 8054W        W23523   8.509   1.115  13.595 -0.1247 -0.2946  0.0107
 8055W        W23524   0.100  17.263   1.314 -0.2385  0.1303 -0.0623
 8056W        W23525  14.675  10.713  10.527 -0.0658 -0.0661 -0.0196
 8057W        W23526   9.228   6.386  11.047 -0.1840 -0.0212  0.0346
 8058W        W23527   8.151  15.291  12.709  0.2495  0.3809  0.1959
 8059W        W23528  15.518  16.647  11.373  0.1083 -0.2045 -0.0590
 8060W        W23529  16.921  11.804  13.976 -0.0088 -0.1069 -0.0733
 8061W        W23530   2.766  11.840  15.781 -0.1664 -0.1168  0.0177
 8062W        W23531  12.535   6.063  15.035  0.1062 -0.1118  0.1255
 8063W        W23532   2.568  13.187   2.085  0.3866 -0.2323  0.0907
 8064W        W23533  11.461  14.792  11.904  0.0039  0.1821  0.1572
 8065W        W23534   7.919  12.634   0.575 -0.0180  0.4100 -0.1502
 8066W        W23535   8.706   1.443   5.109  0.1664  0.2655 -0.3007
 8067W        W23536  15.782   3.492  12.886 -0.1822  0.1602 -0.0478
 8068W        W23537  12.246   6.614   2.958 -0.0320  0.0150 -0.1669
 8069W        W23538  14.215   5.046  13.708  0.1780 -0.1680  0.1080
 8070W        W23539  12.271   3.882   3.665 -0.2608  0.1605  0.2676
 8071W        W23540   8.527  13.775  10.755  0.0763  0.1940 -0.0955
 8072W        W23541  18.215  13.441   5.788  0.0840 -0.1475 -0.3064
 8073W        W23542   8.987   5.909   1.299  0.0850  0.1194  0.1183
 8074W        W23543  16.061  13.714   4.447 -0.0218  0.0050 -0.0563
 8075W        W23544  12.447   4.028  10.619  0.0505  0.0945 -0.0536
 8076W        W23545   0.037  12.787  12.995 -0.2761 -0.0993  0.2630
 8077W        W23546  17.455   0.357   2.408 -0.1011 -0.1230  0.3493
 8078W        W23547   0.462  17.830  15.238  0.2146 -0.0199  0.0666
 8079W        W23548  13.905   6.646   3.852  0.3445  0.1268 -0.1147
 8080W        W23549  10.575   3.631  11.481  0.0737  0.1617 -0.0395
 8081W        W23550   8.172   9.246   4.205 -0.2365  0.2042  0.0096
 8082W        W23551   9.077  13.778  15.611 -0.1182 -0.0844  0.1843
 8083W        W23552   8.522  17.862  13.590  0.0053 -0.0322 -0.0695
 8084W        W23553  12.493   0.509   4.654  0.0352  0.1961 -0.1366
 8085W        W23554  11.388   3.890  15.403 -0.1227 -0.0393  0.2234
 8086W        W23555   3.432   6.077  14.952 -0.2267 -0.1977 -0.0633
 8087W        W23556   7.215   6.127  15.857 -0.3431 -0.1728  0.1236
 8088W        W23557  11.483  12.988  13.829  0.1982  0.4204 -0.0720
 8089W        W23558   7.109  13.543   1.284  0.3834 -0.0274 -0.0320
 8090W        W23559   4.571  12.691  12.214 -0.2949 -0.0631  0.1547
 8091W        W23560   7.808   0.028  14.176 -0.0576  0.0219  0.0480
 8092W        W23561  12.224  16.413   0.553  0.3287  0.2028 -0.1929
 8093W        W23562   3.844   2.326   5.965 -0.2912  0.2020 -0.0585
 8094W        W23563  16.532   9.376  12.489  0.3332  0.0224 -0.2089
 8095W        W23564   1.149  16.669  14.854 -0.0417  0.1418  0.2776
 8096W        W23565   4.397  17.058  14.766  0.0278  0.2012  0.0088
 8097W        W23566  15.495  18.147   3.204 -0.2764  0.1196 -0.0102
 8098W        W23567   5.554  13.006  13.341  0.2275  0.3102 -0.0099
 8099W        W23568   5.004   7.865  12.463  0.0321 -0.0366 -0.0052
 8100W        W23569   2.002  10.458   0.479  0.1363 -0.1923 -0.2154
 8101W        W23570   3.915  13.161  13.950 -0.1487 -0.3258  0.2265
 8102W        W23571  11.066  11.526   0.208  0.1072 -0.1700  0.1222
 8103W        W23572   8.116  15.300   0.988  0.0944 -0.1768 -0.2889
 8104W        W23573   0.576   8.914  11.175 -0.1738  0.0004  0.1638
 8105W        W23574  11.872   1.950   6.059  0.2519 -0.1445  0.0897
 8106W        W23575  13.454  10.357   0.311 -0.0811 -0.1346  0.1220
 8107W        W23576  13.331  13.432   1.282  0.0023  0.2286  0.0854
 8108W        W23577   0.748   7.567   4.205  0.1158  0.3544 -0.1909
 8109W        W23578  14.950  11.327  13.636  0.2432  0.0618 -0.0209
 8110W        W23579  16.457   8.461  14.304  0.1662 -0.1404  0.0914
 8111W        W23580  11.019   2.616   5.041  0.0077  0.2309 -0.0688
 8112W        W23581   5.146  11.493   5.684 -0.2602 -0.3637 -0.1405
 8113W        W23582  14.392   9.746  13.934  0.1335 -0.2111 -0.2135
 8114W        W23583  10.531  12.727  11.699  0.1156  0.1717  0.0052
 8115W        W23584   0.179   1.499   0.361 -0.2909 -0.3974  0.2566
 8116W        W23585   8.563  17.302  11.760  0.0965  0.0122  0.1018
 8117W        W23586   2.594  15.475   5.426 -0.2896  0.0667 -0.0194
 8118W        W23587  17.120  10.074  13.711 -0.2063 -0.3844  0.0442
 8119W        W23588   6.785   6.380  11.972  0.1099 -0.0099  0.1943
 8120W        W23589  13.060  12.802  12.713 -0.0555  0.0819 -0.1480
 8121W        W23590  15.096   8.416  12.221 -0.0478 -0.0663 -0.2363
 8122W        W23591   7.373   6.036   3.918 -0.0225 -0.3055  0.2581
 8123W        W23592   7.244   4.848  12.113 -0.0517 -0.0604  0.0622
 8124W        W23593  13.025  12.685  13.640  0.1872  0.1683  0.1022
 8125W        W23594   7.473   4.776   9.587 -0.0415 -0.0335  0.2190
 8126W        W23595   4.053  17.039   5.449  0.3073 -0.0391  0.1029
 8127W        W23596   0.854   4.656  11.311 -0.2140 -0.0062  0.0736
 8128W        W23597  18.246   6.756  10.018  0.3612  0.1461 -0.2277
 8129W        W23598   2.360  17.066   3.838 -0.0099  0.0174 -0.0596
 8130W        W23599   4.331   6.967   1.545  0.3989  0.1783  0.2527
 8131W        W23600   4.050   6.370   3.969 -0.0341  0.0051  0.0156
 8132W        W23601   0.097   8.203  13.935 -0.0033 -0.1459  0.2205
 8133W        W23602  14.006  14.800  15.227 -0.2327 -0.2291 -0.2726
 8134W        W23603  13.571   4.884  14.607  0.0910  0.2556  0.4325
 8135W        W23604   4.096   5.323  13.945 -0.3334 -0.1973  0.0297
 8136W        W23605  17.954   1.753   5.542 -0.2157 -0.1628 -0.3293
 8137W        W23606   7.535  13.070  11.637  0.0978  0.1297 -0.0147
 8138W        W23607   9.796  13.339  13.729 -0.0435 -0.1475 -0.1818
 8139W        W23608  15.842   2.173  11.104 -0.5701  0.1040 -0.2862
 8140W        W23609   8.188   1.576   0.620 -0.0118  0.0300  0.0513
 8141W        W23610   6.214  10.344   2.691  0.0163  0.2556  0.2032
 8142W        W23611   2.599  18.372   5.127  0.1601 -0.0400 -0.4565
 8143W        W23612   6.516   7.348  11.453 -0.2347  0.0035  0.3312
 8144W        W23613   3.280  13.730   5.487 -0.1650  0.2228 -0.2572
 8145W        W23614   7.200   3.927   0.198  0.2792  0.2160  0.0821
 8146W        W23615   2.939   7.572   2.680 -0.0864 -0.1788 -0.0858
 8147W        W23616  12.504   1.837   3.225 -0.0641  0.5605  0.0791
 8148W        W23617  10.366  14.082  15.578 -0.1512 -0.2332 -0.3096
 8149W        W23618   2.586   5.770  14.615 -0.0775 -0.0943 -0.1123
 8150W        W23619  11.063   5.266  14.291  0.0184 -0.1215 -0.0212
 8151W        W23620   1.068  10.546  12.392 -0.2272 -0.4440 -0.0266
 8152W        W23621  10.787   7.053   4.553 -0.0233  0.1602  0.2742
 8153W        W23622  15.468   6.911   1.957  0.3857  0.2847 -0.0097
 8154W        W23623   0.407  15.472   0.945  0.0905  0.0435 -0.1201
 8155W        W23624  12.362  16.022   4.701  0.0152 -0.0517 -0.1698
 8156W        W23625  13.875   3.778  12.924 -0.1566 -0.2426 -0.2524
 8157W        W23626  15.713   1.062  10.771 -0.3688 -0.0168  0.3429
 8158W        W23627   0.068  16.644  12.641  0.1331  0.0829  0.1731
 8159W        W23628   4.320   8.850  15.707 -0.1083  0.2208 -0.1351
 8160W        W23629   2.650  14.185   1.140  0.0970 -0.1720  0.0387
 8161W        W23630   9.922   5.386  14.349 -0.3500 -0.2634  0.1700
 8162W        W23631  13.556  16.299  15.312 -0.2993 -0.1811  0.2783
 8163W        W23632  17.879  15.063  13.109 -0.2179  0.0671  0.1631
 8164W        W23633  13.488  17.130   2.933  0.3516 -0.0195  0.0614
 8165W        W23634  11.251  18.280   1.562 -0.0452  0.0355 -0.1899
 8166W        W23635   2.964  14.974   4.791  0.1992  0.1794  0.1010
 8167W        W23636  10.302  10.395  11.478 -0.0224 -0.2660  0.0342
 8168W        W23637   8.469   4.184   5.995 -0.0353  0.1246 -0.1581
 8169W        W23638  14.870   5.906   4.581 -0.2345  0.0893  0.0808
 8170W        W23639  16.411   1.486   3.545  0.3949 -0.0447 -0.4616
 8171W        W23640  18.059  16.522   1.208  0.3092  0.0186 -0.0790
 8172W        W23641  18.128   2.944  15.669  0.1544  0.0882  0.1932
 8173W        W23642   3.896   1.447  15.488  0.1201 -0.0951  0.3713
 8174W        W23643   5.708   4.488   1.659  0.1749 -0.1877  0.2051
 8175W        W23644   4.132  16.867  15.204  0.2476  0.0721 -0.1103
 8176W        W23645   5.878  10.023  13.168  0.3271 -0.2323  0.2507
 8177W        W23646  11.667  11.637  11.488 -0.1424 -0.0092 -0.0164
 8178W        W23647  10.848   4.369  14.863 -0.1172  0.1870  0.0903
 8179W        W23648   9.212   2.826   2.398 -0.1001 -0.1192  0.2657
 8180W        W23649   5.540  17.330   2.438 -0.1152 -0.0819  0.0815
 8181W        W23650   3.846   9.000  15.900 -0.1419  0.1296 -0.0054
 8182W        W23651   7.361   6.531  15.215  0.0671 -0.6958  0.0408
 8183W        W23652   0.387  10.787  12.595  0.0539  0.0065 -0.0022
 8184W        W23653  10.868   4.850  14.453 -0.2316 -0.0416 -0.2927
 8185W        W23654  13.460   9.854  14.941 -0.0068 -0.1111  0.2268
 8186W        W23655  17.002  11.148   3.531 -0.0761 -0.1165 -0.2434
 8187W        W23656   6.826   3.664   4.970 -0.2598  0.3502 -0.2690
 8188W        W23657   6.928  11.606   4.289  0.1600 -0.0048 -0.4238
 8189W        W23658   5.785   6.856   3.587 -0.1229 -0.2819 -0.3286
 8190W        W23659  17.010   0.862  12.957 -0.0906  0.1240 -0.0098
 8191W        W23660  15.648   8.883  15.869 -0.2883 -0.2002  0.1218
 8192W        W23661  10.940  10.356  15.051 -0.2917  0.1807 -0.3696
 8193W        W23662  18.450  15.808  15.358  0.3034  0.2866  0.1486
 8194W        W23663   0.698   0.981  13.371  0.1112 -0.0384 -0.1120
 8195W        W23664   3.427  12.681  11.538  0.0464 -0.2142 -0.0585
 8196W        W23665   7.658   9.097  13.888 -0.0322  0.1787  0.0580
 8197W        W23666   0.887  18.254   3.230  0.1242 -0.0106 -0.0781
 8198W        W23667   2.352   7.442   0.993 -0.2253 -0.1120  0.0988
 8199W        W23668  14.810   6.115  15.481 -0.0163  0.1762  0.1504
 8200W        W23669   9.729  17.458  15.802 -0.1042  0.2700 -0.0224
 8201W        W23670   3.815  15.117   6.178 -0.1052  0.3303 -0.1596
 8202W        W23671  14.733   9.034   0.506 -0.0130 -0.0289 -0.0718
 8203W        W23672   8.930  12.161   2.207 -0.0544  0.1002 -0.0800
 8204W        W23673   6.680   5.821   0.385  0.2298 -0.0649  0.2153
 8205W        W23674   5.287  13.689  12.808 -0.0483  0.1804  0.1139
 8206W        W23675   3.811   0.558   4.837  0.2676  0.0874 -0.0171
 8207W        W23676   9.434  15.821  13.896 -0.1907  0.2051 -0.0953
 8208W        W23677   6.260   4.588   3.393 -0.2419 -0.0367  0.0019
 8209W        W23678  16.932   9.450   1.804  0.2272  0.2419 -0.2183
 8210W        W23679   8.536   5.312  13.026 -0.0463  0.0342  0.1809
 8211W        W23680   7.121  12.918  12.452  0.0469 -0.1573  0.2556
 8212W        W23681  16.698   2.925  10.815 -0.0331  0.1912  0.4167
 8213W        W23682  18.417   3.147  11.142 -0.0646  0.0395 -0.0215
 8214W        W23683  13.766  15.204  14.877 -0.1966 -0.1564 -0.1029
 8215W        W23684  11.008   6.878  15.815  0.1089 -0.0042  0.0827
 8216W        W23685  10.539   3.577  13.779 -0.1189 -0.1477 -0.5377
 8217W        W23686  11.269   9.376   3.428 -0.2075 -0.2913  0.0477
 8218W        W23687   6.947  10.642  15.488 -0.0377  0.2759 -0.0610
 8219W        W23688  15.161  14.775  12.179 -0.1326  0.0361  0.0953
 8220W        W23689   0.146  14.003  15.608  0.3928 -0.0479 -0.2671
 8221W        W23690   5.211   5.486  11.439  0.1872  0.0109  0.0380
 8222W        W23691   1.692   9.978   4.336 -0.1240 -0.2422  0.1103
 8223W        W23692  17.355  14.794  11.960  0.1169 -0.0350 -0.3272
 8224W        W23693  14.430   5.716   1.622  0.0676 -0.1212 -0.0552
 8225W        W23694   1.270  12.514   4.120 -0.3098  0.1583 -0.1836
 8226W        W23695   0.191   8.729  11.481  0.1841 -0.2626  0.0087
 8227W        W23696   1.162  17.143  14.142 -0.2339  0.1551  0.2334
 8228W        W23697  13.301  11.945  14.147 -0.2319  0.0064 -0.1020
 8229W        W23698   7.000   4.005   4.608 -0.1508 -0.1460 -0.1608
 8230W        W23699  11.771   6.380   1.173  0.3769  0.0078  0.0961
 8231W        W23700  11.510   6.058   4.199  0.3189  0.0628 -0.0730
 8232W        W23701  11.012   0.237  13.460  0.1352  0.0683  0.1085
 8233W        W23702  16.904  12.761  12.109  0.2706  0.0398  0.1335
 8234W        W23703  14.506  13.913  14.508  0.2160 -0.1686  0.3019
 8235W        W23704   7.545   2.225   3.706 -0.2527 -0.0194 -0.3863
 8236W        W23705   9.124  11.040   1.088 -0.3079 -0.2603  0.1124
 8237W        W23706  17.966  12.789   4.239  0.1288 -0.0612  0.0839
 8238W        W23707  10.294  12.952   0.694 -0.3294  0.0561 -0.0722
 8239W        W23708  13.869  13.256   0.306 -0.1421  0.1640 -0.0404
 8240W        W23709   6.823  11.075   4.356 -0.0999 -0.2299 -0.3187
 8241W        W23710  17.864   0.740   2.624  0.0072 -0.1688 -0.1438
 8242W        W23711   4.572  16.999   2.711  0.0533 -0.0928 -0.2382
 8243W        W23712   7.890   4.023  15.671 -0.0385 -0.0616  0.0038
 8244W        W23713  10.253   3.449   3.964 -0.0302 -0.0891 -0.0646
 8245W        W23714   6.922   1.362   1.999  0.1404  0.3100 -0.2580
 8246W        W23715   9.121   4.153   2.055  0.0070  0.2814 -0.0049
 8247W        W23716   0.662   3.629  13.946 -0.1729 -0.2929 -0.2934
 8248W        W23717  17.914  10.523   0.104 -0.1403 -0.3072 -0.3856
 8249W        W23718  17.838   2.597   1.965 -0.2289 -0.3577 -0.0997
 8250W        W23719   4.540  14.242   1.656  0.0758 -0.0625  0.0468
 8251W        W23720   0.874   6.582   6.015 -0.1530  0.0591 -0.2311
 8252W        W23721   1.651  17.074   4.697  0.2153  0.1879 -0.5154
 8253W        W23722   8.119   9.174   3.056  0.0356 -0.0268 -0.2380
 8254W        W23723   9.469  12.758   1.743  0.0261 -0.1321 -0.1054
 8255W        W23724   0.687  11.484   3.455  0.1600 -0.0111 -0.1461
 8256W        W23725  14.123  14.360  12.733  0.0343  0.1843 -0.2720
 8257W        W23726   6.355  15.551  13.549 -0.0927  0.1008 -0.1768
 8258W        W23727  18.030   6.527   2.786 -0.1370  0.1307 -0.0499
 8259W        W23728  15.598   6.914   2.531 -0.1564 -0.1000 -0.0431
 8260W        W23729  10.007   0.884   0.841 -0.1622  0.1820 -0.0825
 8261W        W23730   8.957   0.568   5.244 -0.1365 -0.0799 -0.1905
 8262W        W23731  17.430  10.479   3.478  0.0363  0.0454  0.1349
 8263W        W23732   5.287   0.298  12.588 -0.1535  0.1346  0.1784
 8264W        W23733  11.575  12.303  15.907  0.0487 -0.0769  0.0995
 8265W        W23734   1.038   3.900  14.916  0.0177  0.0185 -0.3484
 8266W        W23735   8.455   9.137   0.437 -0.0927  0.2234 -0.0184
 8267W        W23736   0.508  13.075  14.498  0.3062  0.0883 -0.2158
 8268W        W23737  13.006   4.292  11.110 -0.1196 -0.0204 -0.1313
 8269W        W23738  17.009   6.944  12.720 -0.0011  0.4766 -0.0353
 8270W        W23739  13.891  14.546   2.478  0.1248 -0.0649  0.2871
 8271W        W23740  14.876  12.885   4.447 -0.0499 -0.2501 -0.1134
 8272W        W23741  14.306  10.578  13.974 -0.2137 -0.1381  0.2282
 8273W        W23742   3.790  15.956   4.573 -0.0890  0.1365 -0.0236
 8274W        W23743   5.677   5.461  14.965 -0.4433  0.0615  0.0093
 8275W        W23744   9.541  12.633  14.501 -0.0350 -0.1803  0.1203
 8276W        W23745   3.454   7.533   0.546  0.1800  0.0328  0.0363
 8277W        W23746  14.330  10.079  13.605  0.1812  0.2341 -0.1390
 8278W        W23747   6.394  15.131  14.529  0.4402 -0.0034  0.0161
 8279W        W23748  11.424   3.076  10.406 -0.1534  0.0454  0.1425
 8280W        W23749  15.160  12.337   0.140  0.1451 -0.0411  0.1675
 8281W        W23750   8.902   0.941   2.539  0.0229  0.1615  0.1492
 8282W        W23751   1.442   1.026   2.846 -0.4243  0.0032  0.1512
 8283W        W23752  14.147   7.724  12.819 -0.3359 -0.0920 -0.0342
 8284W        W23753  18.231  16.266  12.503  0.0669 -0.0560 -0.1375
 8285W        W23754   1.638   7.806   1.999 -0.1868 -0.1159 -0.3025
 8286W        W23755  13.929   9.789  15.159  0.0622 -0.0315  0.2354
 8287W        W23756   1.403  15.811   3.919 -0.0516 -0.2137  0.2114
 8288W        W23757   9.318   5.089   2.401 -0.0948 -0.0269  0.0345
 8289W        W23758   5.247   4.617  13.354 -0.4162 -0.0816 -0.1234
 8290W        W23759  11.642   8.355  12.985 -0.4133 -0.2127 -0.0226
 8291W        W23760  11.542   2.893   1.183 -0.1572  0.0317  0.2349
 8292W        W23761   8.576   3.523   3.083 -0.1953 -0.2764  0.2790
 8293W        W23762  18.479   2.432   1.097 -0.1106  0.0065 -0.1101
 8294W        W23763  13.656   0.153  10.011 -0.0600  0.0374  0.1998
 8295W        W23764   2.328   3.420  12.018  0.4131  0.1194 -0.1100
 8296W        W23765  13.116  14.741  12.727 -0.2274  0.2427 -0.0353
 8297W        W23766   2.901   7.843   3.636  0.0186  0.0156 -0.0703
 8298W        W23767   0.201  12.751   2.829 -0.0384  0.2032 -0.0229
 8299W        W23768  17.457   6.290  11.516  0.0068  0.2892  0.0664
 8300W        W23769   7.215  11.734  13.857  0.1088  0.0193 -0.1898
 8301W        W23770  17.986  10.856  14.721 -0.1112  0.0271 -0.0384
 8302W        W23771   5.848  16.888  14.661 -0.1588  0.1541  0.1633
 8303W        W23772   3.755   1.678  14.603 -0.1132  0.1551  0.2698
 8304W        W23773   1.904  14.628   1.797 -0.1066  0.1855  0.1153
 8305W        W23774  10.557   6.866  14.920  0.2303  0.0508 -0.3124
 8306W        W23775  17.976   2.036  15.799  0.1142  0.2045  0.0357
 8307W        W23776  14.264   7.016   2.052  0.2850  0.1359 -0.1545
 8308W        W23777   1.903   7.333   0.266  0.0196  0.0044  0.1031
 8309W        W23778   7.659  16.316   5.084 -0.2259  0.0741 -0.0287
 8310W        W23779  15.099   6.779   4.206 -0.1097 -0.0768  0.1300
 8311W        W23780  12.550   7.385   2.470 -0.0003  0.2913 -0.4411
 8312W        W23781   8.051  13.938   6.063 -0.2117 -0.0077 -0.0035
 8313W        W23782   5.545  13.755   0.803  0.1254  0.0178  0.0519
 8314W        W23783   5.411  13.624   5.349  0.1685 -0.0883  0.2829
 8315W        W23784  16.556  11.030   1.062  0.0395  0.2616  0.0327
 8316W        W23785   8.880  10.435   1.790  0.0281 -0.1599  0.2086
 8317W        W23786  12.911  10.319  13.132  0.0810 -0.4425  0.2950
 8318W        W23787  10.351   3.502   1.368  0.4055  0.0078  0.2947
 8319W        W23788  11.091  15.158   0.691 -0.0329  0.4230 -0.1304
 8320W        W23789   3.229   1.981  15.243  0.3472 -0.1076 -0.1571
 8321W        W23790   3.134  16.887  13.880 -0.0356 -0.0349 -0.2870
 8322W        W23791   7.168   8.918   3.089 -0.0573  0.1606  0.0874
 8323W        W23792  15.910   6.203  13.963  0.1292 -0.2499 -0.1895
 8324W        W23793   0.344   3.912   0.212 -0.1093  0.1598 -0.0807
 8325W        W23794  11.235  10.770  14.993  0.0839 -0.1634 -0.2955
 8326W        W23795  18.061  13.444   0.984  0.0337 -0.1707 -0.3348
 8327W        W23796  18.415   3.187   1.872 -0.1651 -0.2575  0.2379
 8328W        W23797  16.176  15.980   3.314 -0.0628 -0.0451 -0.2858
 8329W        W23798   6.470   9.283   1.092 -0.2005 -0.1903  0.0512
 8330W        W23799  15.117   2.427  14.793 -0.1249 -0.1156 -0.0045
 8331W        W23800   8.268   9.359  12.588  0.3123  0.3789  0.1465
 8332W        W23801   7.904   7.447   0.277 -0.1383 -0.0045 -0.3885
 8333W        W23802  15.853   4.814   1.706 -0.2883 -0.1628 -0.0688
 8334W        W23803  18.258   7.878   2.185  0.0065 -0.0226  0.1930
 8335W        W23804   4.544  17.727   1.045  0.3462  0.1582 -0.4326
 8336W        W23805   6.534   2.437   3.794 -0.0593 -0.2458  0.5691
 8337W        W23806  17.955   4.850  14.260  0.0026 -0.0072 -0.0407
 8338W        W23807  14.791   9.527  14.783 -0.1868  0.0306 -0.0910
 8339W        W23808   5.141   3.211   1.454 -0.3059 -0.0863 -0.3058
 8340W        W23809   6.742   9.247   2.806 -0.3126  0.1371  0.2812
 8341W        W23810   7.828   0.550  14.038  0.0552 -0.0510  0.0210
 8342W        W23811  17.464   8.720  11.479 -0.0700 -0.1785  0.2406
 8343W        W23812   4.795   5.957   4.047  0.0728 -0.0114 -0.0864
 8344W        W23813   4.995   8.994   2.051 -0.1213  0.3525 -0.0876
 8345W        W23814  17.511  13.302   3.733  0.0282 -0.0793 -0.1523
 8346W        W23815   9.649  14.976  12.529 -0.1298 -0.1898 -0.2814
 8347W        W23816   0.080   8.677   2.746 -0.1034  0.0646  0.1192
 8348W        W23817  15.523   9.133  12.481 -0.4284 -0.1829  0.0366
 8349W        W23818   1.899  12.926  12.151  0.3598  0.0208 -0.1483
 8350W        W23819  18.234  16.812  14.370  0.1937  0.0339  0.1005
 8351W        W23820   8.921   6.834   1.033 -0.0866  0.0818 -0.1210
 8352W        W23821   3.702   8.576   5.178  0.1655  0.0162 -0.0895
 8353W        W23822   2.689  16.188   1.461  0.2295 -0.3084 -0.0181
 8354W        W23823  11.289  11.770   4.778  0.2184 -0.0860 -0.1701
 8355W        W23824   0.282   3.739  11.791  0.2885 -0.2562 -0.0978
 8356W        W23825   1.550  16.493   5.950 -0.3653  0.1049 -0.0973
 8357W        W23826  13.796  17.188  15.253 -0.3123 -0.1722 -0.0209
 8358W        W23827  10.890   2.402   1.852  0.1152  0.2097 -0.1988
 8359W        W23828   0.744  12.264  12.520  0.3068 -0.1986 -0.1258
 8360W        W23829  12.201  12.123  14.411  0.1701 -0.1397 -0.1779
 8361W        W23830   9.875  10.279   2.400 -0.0492 -0.0185  0.0809
 8362W        W23831  14.447   8.129  12.891  0.3039  0.2134 -0.0643
 8363W        W23832   2.621   8.737  15.607  0.0671 -0.3882 -0.1656
 8364W        W23833   9.751   3.875  12.698 -0.1522 -0.2308 -0.2165
 8365W        W23834   0.285  11.318  14.495 -0.2658 -0.2746  0.0447
 8366W        W23835   2.384   5.034  15.579 -0.1269 -0.1123  0.1957
 8367W        W23836   9.993  17.447  13.503 -0.2184 -0.2149 -0.2883
 8368W        W23837  13.924  17.014   1.155  0.0568 -0.1448 -0.0540
 8369W        W23838  14.724   1.532   3.848 -0.0567 -0.0137 -0.1367
 8370W        W23839   7.938   2.367   2.307  0.2570 -0.3105  0.1009
 8371W        W23840  17.124   4.001   4.006 -0.5186  0.1401  0.1250
 8372W        W23841  10.699   9.263  15.016  0.2655  0.0246 -0.4227
 8373W        W23842  15.589   0.831  15.795 -0.1619 -0.2661  0.0415
 8374W        W23843  15.556  15.008   1.649  0.1579 -0.2195 -0.3184
 8375W        W23844  12.191   0.895  10.186 -0.0059 -0.0519 -0.2325
 8376W        W23845  11.539  14.902   3.403 -0.4358  0.2810  0.0738
 8377W        W23846   3.397   5.819  12.562 -0.0413  0.0427  0.3040
 8378W        W23847  13.143   9.999  14.612  0.0368  0.0633 -0.1370
 8379W        W23848  15.669  17.161  10.978 -0.2176  0.0731 -0.2045
 8380W        W23849  13.812   7.748  14.686  0.1602  0.3437  0.1325
 8381W        W23850   5.597  10.500   0.276  0.0056  0.0667 -0.1466
 8382W        W23851  15.910   6.280   3.825 -0.1085 -0.0160  0.1234
 8383W        W23852   5.393   0.371   4.717 -0.0441  0.3105 -0.0164
 8384W        W23853   2.917  14.583  15.428  0.2292 -0.3722 -0.1370
 8385W        W23854  15.151   0.399  14.491  0.1206 -0.1998 -0.0716
 8386W        W23855   8.692   0.684  11.258 -0.0832  0.0050  0.3148
 8387W        W23856  14.613   2.343  12.769 -0.3231  0.0406 -0.2651
 8388W        W23857  14.266  11.935  15.053  0.3650 -0.1949  0.1100
 8389W        W23858   2.654  15.990   5.262 -0.2570  0.5147 -0.1434
 8390W        W23859   6.685  14.825   0.606 -0.0611  0.3417  0.4046
 8391W        W23860  13.040   0.490  13.894 -0.0004  0.1521  0.1767
 8392W        W23861   8.040   1.017  14.046  0.2802  0.3646 -0.4039
 8393W        W23862  14.635   2.262  14.698 -0.1630  0.4766 -0.0150
 8394W        W23863   3.437  10.703  14.576 -0.0500 -0.0148  0.2943
 8395W        W23864  12.652  17.394   2.226 -0.1766  0.1672 -0.0424
 8396W        W23865  18.236  17.403  11.339 -0.0456 -0.0395  0.1840
 8397W        W23866   8.445  16.933   2.291  0.1520 -0.0258  0.1113
 8398W        W23867  12.765  18.457   4.809 -0.1801 -0.1130 -0.1658
 8399W        W23868   4.589  11.037  15.222 -0.1215 -0.0188 -0.3473
 8400W        W23869   7.962  18.462   4.389 -0.3175 -0.3241 -0.0749
 8401W        W23870  13.974  11.525   5.867 -0.1185  0.0819  0.1888
 8402W        W23871   7.426  11.919   4.514  0.1514 -0.1590  0.0307
 8403W        W23872   8.605  14.716   1.985 -0.3445  0.0852  0.1995
 8404W        W23873  13.403   1.682  15.060  0.0290 -0.1830  0.1423
 8405W        W23874   9.540  13.164   0.709  0.2543 -0.1849 -0.0119
 8406W        W23875   1.869  15.338   1.375  0.2151  0.2386 -0.0982
 8407W        W23876   5.308   8.977   4.317 -0.0578  0.1737 -0.0183
 8408W        W23877  14.363  12.570   2.731 -0.3673 -0.1597  0.0066
 8409W        W23878  13.798   4.554  14.143 -0.1103  0.1734 -0.0145
 8410W        W23879   8.626   3.418  13.242  0.0635 -0.0007  0.3107
 8411W        W23880  16.973  14.459   3.705  0.2556 -0.2063  0.1371
 8412W        W23881   8.659  17.981  15.723  0.0842  0.0067 -0.0885
 8413W        W23882  13.307   9.814   3.590  0.3123 -0.3612 -0.3592
 8414W        W23883   3.744  17.232   3.613 -0.0685 -0.3139 -0.0580
 8415W        W23884   7.954  14.017   2.851 -0.3395 -0.0246  0.3160
 8416W        W23885   3.077  17.163   4.891  0.0361  0.1046  0.0462
 8417W        W23886  15.351  16.765  13.028 -0.1936 -0.2234  0.2223
 8418W        W23887   1.185  12.885  10.456  0.0608  0.0420  0.2251
 8419W        W23888  16.438   7.016  12.582  0.0357  0.1142  0.1333
 8420W        W23889  18.301   2.791   3.251  0.0226 -0.1451 -0.0524
 8421W        W23890  15.219   7.655   3.103  0.3037  0.1603  0.2809
 8422W        W23891   7.179  12.021   0.904 -0.1492 -0.0285 -0.1907
 8423W        W23892   1.075  18.148   5.588 -0.0997  0.0520 -0.1495
 8424W        W23893  13.573   0.180   4.163 -0.1446 -0.0647 -0.0993
 8425W        W23894   7.357  14.457   2.326  0.1174 -0.1340  0.1783
 8426W        W23895  17.625  11.901  10.847 -0.1497 -0.0576  0.0203
 8427W        W23896   6.686   6.689  10.754 -0.1144  0.1203  0.0720
 8428W        W23897   9.992  16.143   1.139 -0.0815  0.0530 -0.1944
 8429W        W23898   9.591  10.930   3.763  0.0871 -0.1010 -0.1560
 8430W        W23899   8.734  14.146  13.566 -0.1800  0.3238  0.2131
 8431W        W23900  11.801   3.622   0.516 -0.0112 -0.0548  0.0869
 8432W        W23901   1.387  15.485   1.209  0.1172  0.1350 -0.0441
 8433W        W23902   4.636   4.569  14.520  0.0677 -0.1009 -0.4589
 8434W        W23903  15.002  11.873   1.602  0.1931 -0.2930 -0.1411
 8435W        W23904  14.348  11.383  14.584  0.0660 -0.0919 -0.2909
 8436W        W23905   5.549  17.781   1.532  0.0939  0.1622  0.0198
 8437W        W23906   4.868   6.202   5.165 -0.1650  0.0451 -0.2683
 8438W        W23907   9.486  15.280   3.562 -0.0241  0.0212 -0.4617
 8439W        W23908   4.528   7.971  15.585 -0.3373  0.2940  0.3412
 8440W        W23909  10.181  14.122  12.936  0.0385 -0.2289  0.1224
 8441W        W23910   6.131  13.652  14.724 -0.0198  0.1143 -0.0850
 8442W        W23911   0.573   1.795   3.540 -0.0256  0.2651  0.2091
 8443W        W23912   1.807  11.078  15.008  0.1105  0.1162 -0.0516
 8444W        W23913   5.773  11.119   5.989 -0.2718  0.1421 -0.1117
 8445W        W23914  10.540   3.098   5.503  0.1882  0.0122 -0.2997
 8446W        W23915  12.014  12.415   5.505  0.2064  0.1454  0.4755
 8447W        W23916  16.857  13.076   2.787  0.1738 -0.0479  0.1954
 8448W        W23917   3.069  15.232  14.186  0.1322 -0.1554  0.3640
 8449W        W23918   3.117   1.898  11.471  0.1360 -0.2963 -0.1644
 8450W        W23919   0.254  13.191   5.798  0.2220 -0.0120 -0.1022
 8451W        W23920  10.458   9.097   2.189  0.0961  0.0295  0.0073
 8452W        W23921   7.366  10.951  13.400 -0.1319 -0.0764  0.0059
 8453W        W23922  10.125  18.246   4.503  0.2309  0.1728  0.0934
 8454W        W23923   6.412   1.258   5.844 -0.2988 -0.0955 -0.3938
 8455W        W23924  16.560  12.866  14.847 -0.1849  0.2029 -0.1227
 8456W        W23925   3.470  12.708  11.048  0.1808 -0.1019 -0.2157
 8457W        W23926   7.433  11.517   4.217  0.1505  0.1150  0.1368
 8458W        W23927   9.241   7.087   1.737 -0.0053  0.1806  0.1103
 8459W        W23928  18.418   9.977  14.875  0.0456 -0.2854 -0.3376
 8460W        W23929  15.709  12.362  12.126  0.0097 -0.1909 -0.3090
 8461W        W23930  12.828  13.073  14.978 -0.2275 -0.1839  0.2572
 8462W        W23931   5.705  11.552   2.210  0.1799 -0.2138 -0.2956
 8463W        W23932  13.331   5.688   2.264  0.0055  0.1260  0.1080
 8464W        W23933   0.896   3.746  13.554  0.0530  0.0297  0.4400
 8465W        W23934   2.502  17.536  11.235 -0.2949 -0.1315 -0.1643
 8466W        W23935  11.121   9.690  12.854 -0.0584 -0.1369 -0.4095
 8467W        W23936  15.474  18.149  12.071  0.0596 -0.0742 -0.0478
 8468W        W23937   5.460   3.006   2.892 -0.0091  0.1079 -0.0231
 8469W        W23938   2.961  12.932  15.772  0.2036 -0.0567  0.0950
 8470W        W23939   6.886   8.877  12.292 -0.2450 -0.1026 -0.1232
 8471W        W23940  10.864  16.579  11.858 -0.0585  0.2371 -0.2676
 8472W        W23941  12.388   0.953  13.518  0.4197  0.1731  0.2498
 8473W        W23942   1.248   3.744  12.815  0.0835 -0.3464  0.1108
 8474W        W23943   1.993   5.275   2.323 -0.1650 -0.0941 -0.0120
 8475W        W23944  15.733   7.806   4.342  0.0353  0.1478  0.2023
 8476W        W23945  12.091   2.002  10.927 -0.3794  0.2074 -0.0954
 8477W        W23946   6.980  10.072  12.382  0.1230  0.0731  0.2614
 8478W        W23947  14.630  15.742  10.853  0.2169 -0.0165 -0.0477
 8479W        W23948  11.276   7.135  11.385 -0.0592  0.1935 -0.0487
 8480W        W23949   7.741   4.102   3.360  0.1998 -0.2217  0.0649
 8481W        W23950  15.338   5.827   0.313 -0.2431  0.0200  0.0452
 8482W        W23951   6.288   2.798   1.706  0.1424 -0.0669 -0.2069
 8483W        W23952   1.018   4.007  13.938 -0.0916  0.1965  0.6376
 8484W        W23953   0.688   6.586   3.578 -0.3350  0.0757 -0.2607
 8485W        W23954   9.851  16.277   2.636  0.1783 -0.0387  0.1248
 8486W        W23955  15.991  10.473  13.867  0.0827  0.0925 -0.0519
 8487W        W23956   1.651  10.928   3.455 -0.0069 -0.1481 -0.1319
 8488W        W23957   0.600  15.132   5.603 -0.3496 -0.0641  0.3970
 8489W        W23958  16.495   8.372   1.103  0.0718 -0.1231  0.1198
 8490W        W23959   4.404   5.786  13.905 -0.1586 -0.1027 -0.1179
 8491W        W23960   8.411   5.530   1.172  0.1574 -0.0528  0.3719
 8492W        W23961  11.188  15.503   1.365 -0.3225  0.0838 -0.1885
 8493W        W23962   8.175   0.179  10.903  0.1214  0.0461  0.4004
 8494W        W23963   1.903  11.639  15.679 -0.2045  0.3050  0.1435
 8495W        W23964   3.267  17.300   1.383  0.0349  0.1041  0.2695
 8496W        W23965  16.081  15.433   4.629 -0.0372  0.1605 -0.1413
 8497W        W23966   5.558  10.478  15.692  0.2481 -0.3159 -0.1535
 8498W        W23967  14.073  17.296   4.642  0.0591 -0.0136 -0.2385
 8499W        W23968  14.889  10.789  14.030 -0.1076  0.0649  0.3715
 8500W        W23969   4.811   2.690  12.062 -0.4315 -0.2390 -0.2185
 8501W        W23970   2.690  18.060   3.281  0.0714  0.1687 -0.0731
 8502W        W23971  16.656  12.439   5.583 -0.2186 -0.0180  0.2569
 8503W        W23972  14.434   8.665  10.586  0.0940  0.1468  0.1464
 8504W        W23973  11.836   5.421  10.795 -0.0165 -0.0445  0.2341
 8505W        W23974   6.563   4.052  13.620 -0.1430 -0.1463 -0.1350
 8506W        W23975   3.912   4.237  15.500 -0.3642 -0.2517 -0.1432
 8507W        W23976   6.463  18.335  11.656 -0.4223  0.0287 -0.0708
 8508W        W23977   0.277   4.941  13.615 -0.3022 -0.0927 -0.1565
 8509W        W23978   6.576  14.339  13.470  0.1800  0.0893  0.0268
 8510W        W23979  10.122  14.165   4.032  0.1433 -0.1498 -0.1344
 8511W        W23980  13.614   7.907   1.620  0.0889 -0.0508  0.0647
 8512W        W23981   1.367   8.000   5.038  0.3646  0.2219  0.1905
 8513W        W23982   0.487  10.004   2.625 -0.0565  0.1295  0.2388
 8514W        W23983  18.309  13.831  13.025 -0.2865 -0.3293  0.3622
 8515W        W23984  15.906   6.541   4.779  0.1555  0.0002  0.0838
 8516W        W23985   9.876   9.326   3.549 -0.1557  0.1310  0.3098
 8517W        W23986   8.295   6.736   4.409  0.0653  0.2039 -0.0436
 8518W        W23987   5.132   2.591   2.092 -0.2306 -0.0817  0.2002
 8519W        W23988   5.215  10.456  11.391 -0.1426 -0.0273  0.0237
 8520W        W23989  16.724  16.259  12.883 -0.2023  0.5158 -0.0826
 8521W        W23990   0.485  11.695   3.019 -0.0724  0.1078 -0.1245
 8522W        W23991  13.961   6.523  10.107  0.4084 -0.2004  0.1497
 8523W        W23992   5.426   8.700  12.562 -0.0808 -0.2278  0.0787
 8524W        W23993  14.683  16.928   1.076  0.0726 -0.1619 -0.0900
 8525W        W23994  16.575  12.194  14.703  0.1655  0.0944 -0.1300
 8526W        W23995   2.881   4.555  14.394  0.2249 -0.0827 -0.3026
 8527W        W23996  12.825   6.326  12.872 -0.1066 -0.1562 -0.4465
 8528W        W23997   1.612  11.155  12.728 -0.0282  0.1504 -0.1302
 8529W        W23998  16.134   7.098   0.391 -0.1621  0.0064  0.1660
 8530W        W23999   7.973   7.960   2.298 -0.4115  0.0323 -0.0471
 8531W        W24000  15.923   3.838   2.548 -0.1204  0.0581 -0.1234
 8532W        W24001   3.274   8.429  14.278  0.0193 -0.1742  0.0882
 8533W        W24002   4.744  15.807   3.525  0.0639  0.0206 -0.0557
 8534W        W24003   0.433   9.961  15.141  0.3197  0.3781  0.0393
 8535W        W24004   7.238  11.149  12.535 -0.1199 -0.1615  0.0243
 8536W        W24005   6.647   5.321  13.099 -0.0390 -0.3024 -0.0895
 8537W        W24006   5.060   4.984   1.128 -0.0296 -0.1621  0.1863
 8538W        W24007  11.021  15.225   4.382 -0.1640  0.1129 -0.0155
 8539W        W24008  17.120   9.810   2.580  0.1949  0.1468 -0.1063
 8540W        W24009   0.828   8.888  11.605  0.4724  0.1990 -0.2022
 8541W        W24010   1.636  16.056   0.382  0.0816  0.0807  0.1543
 8542W        W24011  16.153  12.481  13.445 -0.0382 -0.0891  0.3935
 8543W        W24012  17.241   0.573  15.563  0.1224 -0.2499  0.3378
 8544W        W24013   7.472  10.900   0.441  0.1951  0.0601 -0.0407
 8545W        W24014  16.282  11.893   4.960  0.0388  0.0952 -0.0867
 8546W        W24015   5.650  16.877   4.276 -0.0142 -0.0188 -0.2369
 8547W        W24016   0.836  14.304  10.860 -0.4885 -0.0604 -0.3308
 8548W        W24017   9.310  10.215  10.744  0.1702  0.2279 -0.0838
 8549W        W24018   9.372  11.963  11.453 -0.1514 -0.0061  0.0206
 8550W        W24019  15.941   7.161   3.356 -0.1458  0.1073 -0.0291
 8551W        W24020  12.664  13.050  13.372 -0.0569  0.0528  0.0137
 8552W        W24021  14.969   2.407  13.163 -0.1701  0.0270 -0.2015
 8553W        W24022   2.443   0.121   0.562  0.1026 -0.0395  0.1714
 8554W        W24023   9.768  17.978  15.091  0.1056  0.1579 -0.1004
 8555W        W24024  15.501  17.124   1.685 -0.0072 -0.2555  0.1323
 8556W        W24025   4.661   2.449  13.447 -0.3024  0.1021 -0.4015
 8557W        W24026   2.306   0.842   4.088 -0.0468  0.0496  0.0213
 8558W        W24027  16.723  18.154   0.547 -0.0484  0.0552 -0.2621
 8559W        W24028  10.832   4.299  15.861 -0.1495 -0.0867 -0.0686
 8560W        W24029   9.060  10.494  15.350 -0.0731  0.1879  0.0824
 8561W        W24030  12.485  13.421  15.095  0.0350 -0.1831 -0.1416
 8562W        W24031   5.686  14.514   4.279 -0.0241 -0.0957 -0.1626
 8563W        W24032  17.422  13.037  11.345  0.0945  0.1365 -0.0961
 8564W        W24033  15.685   5.009  15.063 -0.3408 -0.1019 -0.0325
 8565W        W24034  14.308   0.711   2.083  0.0581 -0.0600  0.2836
 8566W        W24035  11.028   2.195   5.261  0.2501  0.1509 -0.0207
 8567W        W24036   0.291  12.143  12.712  0.1087 -0.2344  0.1853
 8568W        W24037  12.098  10.288   2.947 -0.1279 -0.1486  0.5323
 8569W        W24038   3.768  16.156   4.093 -0.2300 -0.0481 -0.0063
 8570W        W24039   3.562   2.000  13.837  0.1052  0.0302  0.0132
 8571W        W24040   8.460   5.489   2.459 -0.1320 -0.1604 -0.3537
 8572W        W24041  10.780   9.062  14.532  0.4047  0.1436  0.0150
 8573W        W24042  11.093  10.809  13.849 -0.4124  0.0352 -0.2305
 8574W        W24043   5.822   5.492  13.568  0.0323 -0.2990  0.0313
 8575W        W24044  11.128   4.337  13.251 -0.0409  0.1065 -0.2921
 8576W        W24045  10.526   1.173   0.685 -0.2901  0.1350  0.2984
 8577W        W24046   5.172  12.832   2.463  0.2444 -0.1597 -0.0402
 8578W        W24047   7.822   4.540   0.379 -0.1091 -0.1259 -0.1191
 8579W        W24048   3.282   0.284  13.189 -0.1833 -0.0514 -0.1013
 8580W        W24049   2.394  16.627  14.262  0.1122  0.2049  0.0255
 8581W        W24050   6.206  11.469  12.918 -0.2238 -0.0758 -0.0884
 8582W        W24051   9.609   7.397  11.588  0.0407  0.0232 -0.0331
 8583W        W24052   5.311   5.282   2.255 -0.1095 -0.0261 -0.5129
 8584W        W24053   3.527  11.299   2.910 -0.1908 -0.1242  0.0916
 8585W        W24054   5.356  11.406  15.171 -0.4924  0.1896 -0.3168
 8586W        W24055  11.304  18.234  14.275 -0.2376 -0.0866  0.2325
 8587W        W24056  12.190  15.307   1.241 -0.1372  0.1255  0.3059
 8588W        W24057   1.363  13.694  14.547 -0.0491  0.3231 -0.1355
 8589W        W24058   0.129  14.634   1.156 -0.0219  0.2953  0.0888
 8590W        W24059  15.297   0.314  13.948  0.0981  0.0505  0.3888
 8591W        W24060  15.629  16.827   2.686 -0.1419 -0.2406  0.1030
 8592W        W24061   3.850  10.004  11.239 -0.0866 -0.1725  0.0131
 8593W        W24062   8.564   2.775   0.535 -0.1457 -0.0418  0.0196
 8594W        W24063   9.801   5.293  11.623 -0.4514 -0.1583 -0.0900
 8595W        W24064   7.570  11.601  12.845 -0.0126 -0.1345 -0.3206
 8596W        W24065  15.743  11.271   1.273  0.4048 -0.0814  0.2640
 8597W        W24066  18.315   8.648  13.738 -0.2295  0.0367  0.1769
 8598W        W24067  17.811  11.380  15.485 -0.0640  0.1011  0.1004
 8599W        W24068   8.792  12.064   3.029  0.0361 -0.0574  0.0176
 8600W        W24069   2.064   1.609  10.060  0.3200  0.1714  0.1035
 8601W        W24070   4.908   9.948   3.534  0.0648  0.3035 -0.3123
 8602W        W24071   1.669  14.144  13.297 -0.0198 -0.2720  0.0303
 8603W        W24072   3.519   1.185   1.761  0.0320 -0.1049  0.0452
 8604W        W24073   8.482   8.249   1.321  0.2931  0.1306  0.1455
 8605W        W24074   9.267  12.009   5.646  0.2118  0.0832 -0.1160
 8606W        W24075   5.814   5.250   1.817  0.0669 -0.2598  0.0927
 8607W        W24076  14.644  11.927  12.730  0.2359 -0.0922 -0.0097
 8608W        W24077  17.850   7.776   1.907 -0.1610  0.0909 -0.0465
 8609W        W24078  18.194   4.929   3.457 -0.0385 -0.1910  0.0851
 8610W        W24079   1.894  12.146  13.654 -0.0151 -0.1765  0.1514
 8611W        W24080  12.617  13.707   5.362 -0.3999 -0.0146 -0.2691
 8612W        W24081  17.905   4.920   0.399 -0.2333 -0.0129  0.1570
 8613W        W24082  10.436  13.037  14.761  0.0283 -0.0186  0.2052
 8614W        W24083   0.425   4.296   0.464  0.1530  0.2043 -0.0172
 8615W        W24084  13.295  11.210  15.872 -0.0886 -0.1454  0.2526
 8616W        W24085  12.311  18.118  15.571  0.1454  0.3736 -0.0202
 8617W        W24086   4.601  13.358  15.174  0.0927  0.0612  0.0522
 8618W        W24087  10.419  17.443  15.062  0.1990  0.0932 -0.2048
 8619W        W24088   8.869   3.400  10.317  0.1679 -0.1833 -0.0316
 8620W        W24089   3.550   1.259   2.294  0.1549 -0.0624  0.1149
 8621W        W24090  10.186   7.845  15.181  0.2169  0.1347 -0.0097
 8622W        W24091  10.076   7.945   0.004  0.1376 -0.1887  0.2182
 8623W        W24092   9.630  14.382   4.052  0.0916  0.0781 -0.2219
 8624W        W24093  11.268   6.869   3.859  0.0794 -0.0051 -0.4567
 8625W        W24094  17.495   5.959   1.130 -0.0525  0.0499  0.0551
 8626W        W24095  14.888   9.500   2.964  0.1395 -0.1008 -0.1045
 8627W        W24096  15.611   5.394  13.393 -0.0663  0.1771  0.0275
 8628W        W24097  10.755  12.214   2.203  0.0511  0.0936 -0.1962
 8629W        W24098  15.624   5.825   1.340  0.0692  0.2378  0.0202
 8630W        W24099  10.578  16.061   3.768 -0.0870 -0.0300  0.0669
 8631W        W24100   9.321   0.978   2.807  0.1012 -0.1704  0.1092
 8632W        W24101  16.552   0.021  15.391  0.0686 -0.3553  0.2496
 8633W        W24102   3.201   4.555   5.183 -0.0195  0.1525  0.0877
 8634W        W24103   2.888   1.836   0.667 -0.2566  0.0548  0.2383
 8635W        W24104   8.987  15.098  13.898  0.2000  0.5091 -0.2739
 8636W        W24105   5.219  16.693   5.830  0.0895  0.1441 -0.2138
 8637W        W24106   6.628   2.303   2.554  0.0476 -0.1462 -0.0137
 8638W        W24107  12.113  12.434  11.259 -0.2071  0.5001  0.1495
 8639W        W24108   3.817  13.391  12.549  0.1645 -0.0964 -0.0371
 8640W        W24109  14.987   5.462   0.223 -0.3705 -0.0956 -0.2683
 8641W        W24110   3.448   9.772  15.495  0.0270 -0.0207 -0.1075
 8642W        W24111   5.914  12.396   5.656  0.3618  0.2148 -0.0531
 8643W        W24112  12.812  14.971   2.988  0.1956  0.0655 -0.0361
 8644W        W24113  18.292   1.663  15.912 -0.1703 -0.2275 -0.0550
 8645W        W24114   2.461   5.094   2.238 -0.2455  0.1092 -0.0361
 8646W        W24115   0.748   7.102  13.004  0.2135 -0.2214  0.0661
 8647W        W24116  12.772  15.141  15.389  0.0923 -0.1182  0.0308
 8648W        W24117  17.383  16.648  14.025  0.1404  0.1615  0.0313
 8649W        W24118  10.045   9.325   4.882 -0.1201 -0.0563  0.2630
 8650W        W24119  17.964   2.290   5.361 -0.0533 -0.1611 -0.0839
 8651W        W24120  17.097  16.174   1.252  0.1420 -0.1613 -0.1195
 8652W        W24121  16.070  18.010  13.066  0.0545 -0.0145 -0.1048
 8653W        W24122  14.510   4.774   3.944  0.1779 -0.0895 -0.0406
 8654W        W24123   2.084  12.950   0.523  0.1604  0.1590  0.2414
 8655W        W24124   7.984   2.715   1.887 -0.2743 -0.1178  0.1277
 8656W        W24125   9.574   2.529  15.799  0.3718 -0.2583 -0.1816
 8657W        W24126  16.769   3.845   5.893  0.0828 -0.2183 -0.3878
 8658W        W24127  17.485  10.925  12.043  0.2887 -0.0614  0.1179
 8659W        W24128   9.574   1.822  14.709 -0.0589 -0.1094  0.1249
 8660W        W24129  10.401   6.601  10.519 -0.0298  0.1951 -0.0518
 8661W        W24130  11.573   7.816   0.616 -0.2231  0.0317  0.0866
 8662W        W24131  15.073  11.468   2.441 -0.2104 -0.0238 -0.2072
 8663W        W24132   6.913   8.604  13.702  0.3469  0.0019 -0.0382
 8664W        W24133  11.944  15.202  15.034 -0.2912  0.3260 -0.3609
 8665W        W24134   1.907  15.380  15.095 -0.0171 -0.2016  0.2069
 8666W        W24135   2.974  11.134   1.739 -0.1597  0.0634  0.4001
 8667W        W24136  15.054  13.696   0.876  0.3161 -0.1327 -0.1393
 8668W        W24137   0.915   2.697  11.672 -0.0316  0.1753  0.0905
 8669W        W24138  16.937  17.330  14.230  0.1221  0.3062 -0.3552
 8670W        W24139  11.915   0.344  15.849  0.0794  0.0148  0.0404
 8671W        W24140  12.842   7.892  11.945 -0.2836  0.3779 -0.0302
 8672W        W24141   7.174  16.164  10.755  0.0525  0.0792 -0.0006
 8673W        W24142   8.089  16.339   3.598 -0.1692 -0.0726 -0.2435
 8674W        W24143  14.181  12.233  14.611  0.1313 -0.1653  0.0798
 8675W        W24144  17.189   8.077  11.441 -0.1317  0.1428  0.0784
 8676W        W24145   8.514   7.212  15.462  0.0828  0.0216 -0.0228
 8677W        W24146   8.802   6.340  11.526  0.3527  0.0654  0.2581
 8678W        W24147  17.228   3.024   4.889 -0.1061 -0.1558  0.2858
 8679W        W24148   7.491   9.570  11.961  0.1453  0.2809  0.0480
 8680W        W24149  18.393  17.039  13.901  0.2845 -0.0136 -0.1879
 8681W        W24150  14.353  12.808  15.533 -0.1416  0.1445 -0.3420
 8682W        W24151  16.387  12.190   2.530  0.0256  0.0899  0.3898
 8683W        W24152  13.757   3.325  14.643  0.0231 -0.2205 -0.1953
 8684W        W24153  10.657  12.012   2.790  0.3054  0.0067  0.0579
 8685W        W24154  12.326   6.310  12.623 -0.1999  0.1699 -0.1740
 8686W        W24155   8.028   5.135  13.063 -0.0666 -0.0978 -0.2119
 8687W        W24156   3.815   9.558  15.784  0.0932 -0.2074 -0.1235
 8688W        W24157   4.445  13.233  14.292 -0.0313 -0.0580  0.3990
 8689W        W24158   4.465   3.087   1.365 -0.1228 -0.0612 -0.1097
 8690W        W24159  14.322   5.910  13.490 -0.0788 -0.2025  0.0939
 8691W        W24160   2.938  10.243   1.918 -0.2890  0.2822 -0.3438
 8692W        W24161  10.103   6.056   0.658 -0.3421 -0.2655 -0.4577
 8693W        W24162   4.254   2.936   1.759  0.0312  0.0762  0.0637
 8694W        W24163  12.130   0.526   1.516  0.2250  0.3850 -0.2158
 8695W        W24164  18.036   4.884   4.917  0.3868  0.1789 -0.2002
 8696W        W24165   0.916   7.324   5.312  0.2823  0.0110  0.1146
 8697W        W24166   0.671   4.532  13.019  0.0123  0.2355  0.3621
 8698W        W24167   5.271  14.599  12.896  0.0187  0.0719 -0.0368
 8699W        W24168  12.004  18.369   0.024  0.1937 -0.1955 -0.1555
 8700W        W24169   7.113  15.977   2.933 -0.3341  0.1685 -0.0975
 8701W        W24170   2.331   8.472  15.305  0.2260  0.2808  0.3809
 8702W        W24171   4.105  16.437  15.597 -0.0740 -0.1946 -0.0915
 8703W        W24172   6.587  15.693  13.139  0.3551 -0.0886 -0.1160
 8704W        W24173  10.312   7.081   1.074 -0.2034 -0.2855  0.1108
 8705W        W24174   6.274  15.982   1.290 -0.0512  0.0931  0.2837
 8706W        W24175   3.439  13.147   1.080  0.6505 -0.0861  0.2908
 8707W        W24176   8.951   5.734  10.020 -0.0138 -0.2990 -0.3413
 8708W        W24177  18.164   1.766   6.013  0.0700 -0.0374  0.0754
 8709W        W24178   5.705  16.658  11.985  0.3954 -0.0592 -0.0046
 8710W        W24179   2.399   7.275  11.825 -0.0492  0.3442 -0.0741
 8711W        W24180   8.481  16.414   2.149 -0.0769  0.1646  0.0085
 8712W        W24181  12.355   4.942  10.345 -0.2361 -0.0508 -0.1398
 8713W        W24182  15.974   7.631   5.570 -0.0858  0.3468 -0.1788
 8714W        W24183  10.610  11.836  15.848  0.0830  0.2294 -0.2221
 8715W        W24184   6.213  18.158  11.120  0.3729  0.0454 -0.1458
 8716W        W24185  16.603  14.126   3.709  0.0105  0.1013  0.4233
 8717W        W24186   9.032   8.359   0.209  0.0177  0.0781  0.2509
 8718W        W24187   5.512   0.474   2.011  0.1065 -0.3399 -0.0631
 8719W        W24188  13.332  11.279   3.441  0.2729 -0.0917 -0.0280
 8720W        W24189   8.575  13.242   3.099  0.0660 -0.0516  0.0411
 8721W        W24190   7.588  10.114   1.219 -0.1430  0.2367 -0.1977
 8722W        W24191   8.338   9.572   1.617 -0.0444  0.0279  0.3621
 8723W        W24192  10.937  10.905  10.232 -0.1843 -0.1351 -0.1844
 8724W        W24193   9.250  13.193   2.484 -0.0793 -0.1039  0.4379
 8725W        W24194  14.676   3.826   5.640  0.0255 -0.2242  0.0437
 8726W        W24195  14.040   1.273   5.872 -0.0063  0.3677  0.1710
 8727W        W24196  15.863   1.431  15.362  0.0124  0.2195  0.1052
 8728W        W24197   8.771  14.826  13.123 -0.1037  0.2111 -0.0819
 8729W        W24198   7.067   3.157   2.003 -0.2241  0.3924  0.0164
 8730W        W24199   6.467   7.553   3.137  0.0778  0.2273 -0.0222
 8731W        W24200   0.777   7.982  13.184  0.2238 -0.2554  0.2856
 8732W        W24201   8.615  11.615  14.032  0.3517  0.1369  0.1723
 8733W        W24202  13.519  11.380   5.930 -0.3088  0.0480  0.6195
 8734W        W24203  15.338   9.217   0.722  0.0183 -0.1296 -0.3913
 8735W        W24204  13.395   5.368   3.314 -0.0150 -0.2720 -0.2965
 8736W        W24205   1.378  12.122   2.153  0.2699  0.3973 -0.3011
 8737W        W24206  14.539   6.663   3.284  0.0387 -0.3552  0.1452
 8738W        W24207   2.735  18.264   1.898  0.2210 -0.0098  0.2402
 8739W        W24208  16.356  12.116   3.126 -0.0447 -0.0360 -0.0453
 8740W        W24209   5.934   8.455   4.246  0.2383  0.0035 -0.2762
 8741W        W24210  10.768   4.013  13.543 -0.1617 -0.1338  0.0648
 8742W        W24211  17.168   7.429   0.308  0.2200 -0.1216  0.1704
 8743W        W24212   8.892   6.207  12.066 -0.2667 -0.3097  0.0392
 8744W        W24213  10.428  16.929  11.244  0.4121 -0.2629  0.0500
 8745W        W24214  13.159   2.538   2.892  0.0431 -0.0162 -0.0643
 8746W        W24215   8.279  16.946   0.044  0.1080  0.0768 -0.2370
 8747W        W24216  11.544   1.460   5.253 -0.0083 -0.2243  0.3484
 8748W        W24217  11.856  11.445  11.046  0.2303 -0.1510 -0.2128
 8749W        W24218  16.051   6.515   0.280 -0.1002 -0.1854 -0.4598
 8750W        W24219   4.167   3.877   3.960  0.3981 -0.0255  0.1901
 8751W        W24220   6.761   8.366  12.258 -0.0887 -0.4454 -0.2350
 8752W        W24221  12.727   3.770  11.762 -0.1889 -0.2053 -0.2124
 8753W        W24222   8.160   3.702   2.309 -0.0164 -0.2395  0.0317
 8754W        W24223   6.667  16.725  14.820  0.2098 -0.0150  0.0904
 8755W        W24224  10.309  15.712  15.364  0.0846 -0.1611 -0.2532
 8756W        W24225   0.813   6.881   3.173 -0.1524 -0.3047  0.0743
 8757W        W24226  13.908  15.040  14.385  0.4007 -0.0569  0.0371
 8758W        W24227   4.530   6.305  15.313  0.0312 -0.0888 -0.0429
 8759W        W24228  18.174   9.934   2.124 -0.1236  0.0420  0.0138
 8760W        W24229  15.105  16.717   2.291 -0.1125 -0.0103  0.2741
 8761W        W24230   2.972  11.178  12.693  0.3064  0.3673 -0.0236
 8762W        W24231   3.996   1.501  11.900 -0.0087 -0.0452 -0.1353
 8763W        W24232   0.214   4.478   2.581 -0.0055 -0.1132 -0.0538
 8764W        W24233  18.056   6.226   1.817 -0.0476 -0.0888 -0.0980
 8765W        W24234  17.023  10.664  13.698  0.1126  0.2715  0.2030
 8766W        W24235   7.168   7.871   4.330  0.0380 -0.0964 -0.1779
 8767W        W24236  10.497  16.553  14.088 -0.3019 -0.0235 -0.1317
 8768W        W24237   4.645   4.294  15.354  0.2151 -0.1526 -0.1233
 8769W        W24238  16.541  16.591  11.106 -0.0186  0.3381  0.3630
 8770W        W24239   9.270  10.941   5.301 -0.0658  0.1831 -0.0100
 8771W        W24240   4.196   4.179  15.059 -0.0820  0.0145  0.0212
 8772W        W24241  14.041   5.268  13.019 -0.1251  0.2109  0.0530
 8773W        W24242   9.224  18.189   6.190  0.0371  0.0749 -0.1961
 8774W        W24243   3.296  12.222   4.908  0.1748 -0.1374 -0.1409
 8775W        W24244  17.561  17.563  15.097  0.1329 -0.1215 -0.0552
 8776W        W24245  18.232   1.143  13.362 -0.2039 -0.0924 -0.0146
 8777W        W24246   5.927   1.827   5.350 -0.0010  0.1099 -0.1076
 8778W        W24247   7.685  16.895  12.687  0.2812  0.1599  0.0941
 8779W        W24248  13.070  10.685   0.329  0.0035 -0.0481  0.0459
 8780W        W24249   4.538   4.572   4.781  0.1014 -0.1634  0.1504
 8781W        W24250  12.562   1.992   3.747  0.0759 -0.0777  0.1828
 8782W        W24251  15.803   2.720  11.604 -0.0612  0.0865 -0.0946
 8783W        W24252  16.446  14.379   5.087  0.0650  0.0556  0.2463
 8784W        W24253   5.236  10.410   2.739 -0.4685 -0.1753 -0.2126
 8785W        W24254  14.129  10.817  12.232 -0.3463  0.1456 -0.0142
 8786W        W24255   4.176   3.103  15.826 -0.0286  0.0233 -0.5372
 8787W        W24256  11.847  16.794  15.623  0.0181 -0.0752  0.0672
 8788W        W24257   2.805   3.044  10.978  0.1088 -0.1297 -0.2567
 8789W        W24258   8.045  16.718   2.076  0.0590 -0.0996 -0.4348
 8790W        W24259  12.094  17.321   4.540  0.2767 -0.0410  0.1647
 8791W        W24260  11.071   8.530   2.310  0.1434 -0.0982 -0.2045
 8792W        W24261   7.789   4.642   2.913 -0.0084 -0.2178  0.1348
 8793W        W24262   5.567   2.178  13.794 -0.1571 -0.0013 -0.1163
 8794W        W24263   6.172  14.834  11.008 -0.0122 -0.1066  0.1540
 8795W        W24264   9.289  16.513  15.234 -0.0585  0.1010  0.3010
 8796W        W24265   1.562  18.253  11.397 -0.3101 -0.0161 -0.3763
 8797W        W24266  11.702   9.103   3.524  0.0339 -0.1119  0.0136
 8798W        W24267  16.729  15.839   1.719  0.3027  0.2061 -0.1406
 8799W        W24268  15.962   0.118   0.794 -0.0537 -0.0111  0.1873
 8800W        W24269   4.553   2.521   3.881 -0.1213  0.0111  0.0870
 8801W        W24270  10.321   5.635   0.880  0.1635  0.1396 -0.1704
 8802W        W24271  10.145  11.754  12.185  0.0866  0.2288 -0.1384
 8803W        W24272  15.521  17.248   2.983 -0.0656  0.4053 -0.1157
 8804W        W24273   8.111  10.380   2.289 -0.3007 -0.0824  0.1903
 8805W        W24274   0.383   7.289  12.671 -0.1917  0.2376  0.0683
 8806W        W24275   5.329  13.596   1.611 -0.1576 -0.0630  0.0727
 8807W        W24276   3.165   9.283   3.214  0.3231  0.0585 -0.3753
 8808W        W24277  11.336   9.036   4.903 -0.0790  0.1814  0.0084
 8809W        W24278  12.304  16.364  11.321 -0.1694 -0.0312 -0.2858
 8810W        W24279   5.501  12.442   0.070  0.0168  0.0354 -0.2571
 8811W        W24280  13.835  13.479   3.561  0.1582 -0.2534  0.1515
 8812W        W24281   5.397  14.443   3.110  0.0158 -0.1038  0.2574
 8813W        W24282   3.606   0.417  12.310 -0.0119 -0.1517  0.0003
 8814W        W24283  15.313   4.103  13.135 -0.1531  0.0819 -0.3205
 8815W        W24284   5.323   6.711   0.950 -0.0609  0.2498 -0.0638
 8816W        W24285   2.669  14.281  11.516  0.1116 -0.0049  0.0075
 8817W        W24286  13.741  11.863  15.015 -0.2366 -0.0229  0.0624
 8818W        W24287   1.450   8.277   4.676 -0.1544 -0.0410  0.0348
 8819W        W24288  11.775  15.543  11.538 -0.2731  0.1131  0.2548
 8820W        W24289  14.154   2.665   3.883  0.0389 -0.2608  0.2111
 8821W        W24290   0.128   4.167  14.586  0.0771  0.0827  0.0998
 8822W        W24291  11.435  10.382  15.216  0.1783 -0.1077  0.0434
 8823W        W24292   4.058   5.205   1.123 -0.3565 -0.4039  0.3059
 8824W        W24293   6.743  18.195   2.733 -0.1558 -0.1432 -0.0682
 8825W        W24294   6.023  13.595  11.095  0.0431 -0.2071 -0.1029
 8826W        W24295   4.602  16.569   3.677 -0.1551 -0.1652 -0.5961
 8827W        W24296   5.354  16.680   4.656 -0.2223 -0.2326 -0.2761
 8828W        W24297   7.725  16.948   1.157  0.3047 -0.0383 -0.1130
 8829W        W24298   7.088  10.658   0.141 -0.1033  0.1579  0.0690
 8830W        W24299   7.728   1.100  10.141  0.0808  0.1465  0.0924
 8831W        W24300   4.068  11.233   3.844  0.0280 -0.0639  0.0558
 8832W        W24301  13.413   1.697   0.325 -0.0747 -0.1311 -0.0887
 8833W        W24302  12.645   7.392   9.829 -0.1279 -0.0105  0.0765
 8834W        W24303   5.298  10.096  13.400 -0.0095 -0.3123 -0.1060
 8835W        W24304  16.732   6.518  15.056 -0.2377 -0.2412  0.1312
 8836W        W24305   2.467  10.876  12.832 -0.0537 -0.0199  0.1518
 8837W        W24306  11.099   9.501   6.076  0.1359  0.2263  0.1678
 8838W        W24307   2.435   7.418   1.920 -0.0263 -0.2291 -0.0936
 8839W        W24308   1.422   2.667   0.966  0.0238  0.1082 -0.1692
 8840W        W24309  16.638  17.459   0.529 -0.0109  0.0247  0.0699
 8841W        W24310   5.930   2.848  12.923  0.0302 -0.0031  0.0936
 8842W        W24311  13.783   5.811  11.430  0.1292 -0.1076 -0.0640
 8843W        W24312   4.811   2.919  13.726  0.0560  0.0719 -0.0963
 8844W        W24313   8.234   0.235  15.881  0.2122 -0.1126  0.1440
 8845W        W24314   3.414  12.322   1.593  0.1084  0.1714  0.1713
 8846W        W24315  11.365   3.597  12.844 -0.0081  0.1478 -0.0896
 8847W        W24316  15.374   5.842   4.526  0.1174 -0.0900 -0.0350
 8848W        W24317  12.174   8.604  10.947 -0.0499 -0.4436  0.0418
 8849W        W24318  11.516   8.736  13.458  0.0018  0.2341  0.0107
 8850W        W24319   4.797  15.011  14.629  0.3450  0.0064 -0.1321
 8851W        W24320   8.986   8.141   1.469  0.0681  0.2345 -0.1285
 8852W        W24321   6.790   9.227   2.251 -0.1007 -0.1891 -0.0213
 8853W        W24322  12.887  14.758  11.436 -0.1963 -0.1739 -0.0200
 8854W        W24323   3.715   9.289   3.963  0.1445  0.2503 -0.1440
 8855W        W24324   3.703  10.084   5.401  0.0060  0.0936  0.0603
 8856W        W24325   8.506  13.366  13.521 -0.0025  0.3837  0.1130
 8857W        W24326   1.255  13.557   3.515  0.1412  0.3224 -0.1936
 8858W        W24327   6.423  12.216  13.005  0.2556 -0.0333 -0.0140
 8859W        W24328   3.981   8.089  15.548 -0.1443  0.1789 -0.0288
 8860W        W24329  14.567   7.461   0.962 -0.3302 -0.3294  0.0617
 8861W        W24330   9.160   2.535  10.070  0.0099 -0.0795  0.2044
 8862W        W24331   5.567  12.307   1.945 -0.0492 -0.1917 -0.0670
 8863W        W24332  18.231   7.164   3.946  0.0491 -0.0093 -0.1279
 8864W        W24333  10.429  12.912  14.243 -0.0016 -0.2094 -0.1542
 8865W        W24334  16.750   3.253   5.021  0.4106  0.0596  0.1418
 8866W        W24335  10.653   7.299   0.688 -0.0891  0.1738  0.2286
 8867W        W24336   8.600   9.182  15.824  0.0780  0.4566 -0.2521
 8868W        W24337   9.466   3.533  12.428 -0.4125 -0.0298  0.2413
 8869W        W24338  15.015  10.590   3.403  0.0045 -0.1964 -0.2602
 8870W        W24339   2.470   3.075   1.452  0.0187 -0.0503  0.0715
 8871W        W24340  11.060   4.221   9.450 -0.1799 -0.1212  0.1952
 8872W        W24341  16.993  16.527  14.328  0.1487  0.0017 -0.0683
 8873W        W24342  11.114  18.224  13.475 -0.1395 -0.0160  0.0304
 8874W        W24343  18.144   0.512  11.241  0.2539  0.0097  0.1068
 8875W        W24344  14.400  14.166   1.028 -0.1872  0.0829 -0.0597
 8876W        W24345  12.793  10.645  11.755  0.4502  0.1506  0.4061
 8877W        W24346   4.114   6.568   4.383 -0.0621  0.3187 -0.1659
 8878W        W24347  14.649  11.746   2.635  0.1567  0.1876  0.0020
 8879W        W24348   4.955  11.959   3.419 -0.0677  0.2173 -0.0801
 8880W        W24349   3.475  10.245  11.728  0.2092  0.0330  0.1701
 8881W        W24350   5.843   2.459  14.063 -0.1403 -0.4152  0.1921
 8882W        W24351   0.838   9.543   0.617  0.0587  0.3425  0.0112
 8883W        W24352   8.540   8.452  12.810  0.2632  0.0373 -0.0204
 8884W        W24353   8.770   3.676  15.003  0.1890  0.1335  0.1375
 8885W        W24354   4.704   5.984   1.887 -0.3410 -0.0322  0.2291
 8886W        W24355   4.263   5.153  15.218 -0.2233 -0.3630  0.1542
 8887W        W24356   9.688   0.880   0.150 -0.1084 -0.0538  0.1320
 8888W        W24357  10.590   6.133  14.390 -0.3839 -0.2283  0.0685
 8889W        W24358  14.334  17.038  13.255 -0.0561 -0.2788 -0.0191
 8890W        W24359   7.840  10.258   5.123  0.1261 -0.1105 -0.1302
 8891W        W24360  16.420  14.409  12.643  0.1475 -0.1050 -0.3113
 8892W        W24361  18.424  16.225  11.917  0.0198  0.0673  0.1488
 8893W        W24362   4.513   1.622  15.017  0.1653 -0.0700 -0.0664
 8894W        W24363   6.251  13.381   2.439  0.1126  0.0149 -0.1210
 8895W        W24364   5.001  12.708   0.954  0.1237  0.4259  0.0226
 8896W        W24365   5.203   5.394  10.891  0.2635 -0.0329  0.0381
 8897W        W24366   7.669   3.237   0.089  0.1258  0.0918 -0.1045
 8898W        W24367   1.322   8.456   5.199 -0.1186  0.1447  0.0907
 8899W        W24368  15.919   4.905   0.562  0.0840 -0.3782  0.2148
 8900W        W24369   6.210   4.924  10.953 -0.0447 -0.1290 -0.0190
 8901W        W24370   3.716   8.628  10.867 -0.0443  0.0132 -0.0564
 8902W        W24371  18.458   2.103   3.396  0.1270  0.2826 -0.2519
 8903W        W24372   2.194   9.195  10.682  0.1138  0.2266  0.1204
 8904W        W24373   8.523  11.160   1.141  0.0438 -0.0575  0.1791
 8905W        W24374  11.087   4.098  12.303 -0.1148  0.0112  0.2654
 8906W        W24375   9.956   9.942   1.400  0.0835  0.0675  0.0131
 8907W        W24376  12.753  10.338  14.515  0.1404  0.2612  0.2088
 8908W        W24377  17.822   3.518   4.176  0.2073  0.3903  0.0766
 8909W        W24378  13.860   9.282   3.514  0.1239  0.1879  0.0715
 8910W        W24379  12.848  13.335   0.049 -0.0624 -0.0561 -0.0875
 8911W        W24380  14.845   3.555  10.700  0.2377  0.0411  0.1374
 8912W        W24381   0.248   3.711   1.773 -0.1168  0.2398  0.1569
 8913W        W24382  12.116   2.468  12.550  0.0002  0.0703 -0.4912
 8914W        W24383  13.360   5.155  15.468 -0.0150  0.0374  0.3046
 8915W        W24384  12.350   2.509   2.006 -0.0061 -0.1809  0.1612
 8916W        W24385  12.793   4.748  11.844  0.1948 -0.4052  0.0123
 8917W        W24386  18.303  12.647   3.760  0.0623 -0.2463 -0.1290
 8918W        W24387   1.454   9.643  12.791 -0.0249  0.1471 -0.3028
 8919W        W24388   3.711  17.798  14.909  0.3065 -0.1590  0.1113
 8920W        W24389   0.567   6.233  13.346 -0.0855  0.1380  0.2912
 8921W        W24390   6.839  18.228  14.764  0.1611 -0.0068  0.4391
 8922W        W24391   2.768  10.366   5.160  0.0869  0.3374  0.1117
 8923W        W24392   7.570   9.343   0.717 -0.2265 -0.0005  0.0658
 8924W        W24393   7.122  17.908   2.851  0.0086  0.0456 -0.0499
 8925W        W24394   0.159   6.273   4.658 -0.2705 -0.1658  0.0030
 8926W        W24395   8.699  17.193  15.871  0.0076 -0.1802  0.0391
 8927W        W24396   3.063   7.101  13.067 -0.1862 -0.0981 -0.1350
 8928W        W24397   7.670   8.027  13.728  0.1182  0.0467  0.1023
 8929W        W24398   8.753   7.887  12.063  0.2224  0.1209  0.0391
 8930W        W24399   4.352  15.428   3.893 -0.2582  0.2729 -0.0994
 8931W        W24400  10.087  10.742   2.256 -0.0732  0.1054 -0.2782
 8932W        W24401  10.104   1.723   4.049 -0.0553 -0.0375  0.1678
 8933W        W24402  17.239   5.970   3.655  0.1264  0.1332  0.0426
 8934W        W24403   7.766  11.365  14.337 -0.3141  0.1729  0.3083
 8935W        W24404   3.231   9.716  11.795 -0.0562  0.0605  0.1605
 8936W        W24405  17.199   9.568  13.819  0.0798 -0.0017 -0.0005
 8937W        W24406   3.333   2.171   3.705  0.5290 -0.2345 -0.2296
 8938W        W24407  16.028   3.033  12.945 -0.0948 -0.0333  0.0842
 8939W        W24408  14.022   4.980   3.764  0.1296  0.0467 -0.0455
 8940W        W24409  13.547  13.286   2.632 -0.1503  0.1629 -0.1627
 8941W        W24410   2.784  17.460   1.181  0.1260  0.1659 -0.1999
 8942W        W24411  10.713   6.707  13.363  0.0009 -0.3098  0.4081
 8943W        W24412   8.524   1.181  14.085  0.1620 -0.1756  0.1945
 8944W        W24413   7.836  11.154  13.495 -0.0889  0.1191  0.1519
 8945W        W24414  17.373  13.837   3.459 -0.0478 -0.0613  0.1139
 8946W        W24415   8.366  12.423  13.738 -0.1455  0.1366  0.2102
 8947W        W24416  10.503   6.860   1.858  0.0622  0.0461  0.0149
 8948W        W24417   0.791  16.601   1.885  0.1297 -0.0735  0.3040
 8949W        W24418   5.818  13.350  15.388  0.0932  0.1222  0.1140
 8950W        W24419  10.458   5.152  11.357  0.3203 -0.0022 -0.1324
 8951W        W24420  17.235  12.334   1.141 -0.0593  0.1819 -0.2190
 8952W        W24421   2.864   0.466   1.132  0.0508  0.0263 -0.0069
 8953W        W24422   4.846   5.034  10.987  0.0366 -0.3059  0.2160
 8954W        W24423   2.766   1.067   4.237 -0.2053  0.0301  0.2602
 8955W        W24424   4.188   2.801   4.834 -0.0015  0.1067 -0.1580
 8956W        W24425   3.340   1.793   0.376 -0.2186  0.1205 -0.3570
 8957W        W24426  14.250   8.952  12.685 -0.2104  0.0786 -0.1082
 8958W        W24427   3.458  11.089   1.960 -0.2307  0.1054  0.0689
 8959W        W24428   8.537  12.010  14.688 -0.3023  0.1375  0.4507
 8960W        W24429   0.174   8.770   2.228  0.0904  0.2170  0.0558
 8961W        W24430  11.087   6.368  13.247  0.1943 -0.0835  0.0487
 8962W        W24431  11.916   2.722  11.676 -0.1878  0.1801  0.3754
 8963W        W24432   8.452   7.675  10.022 -0.3259  0.0893  0.0109
 8964W        W24433   1.832   0.998   4.779  0.1138  0.0352  0.0866
 8965W        W24434  17.398  18.451   2.830 -0.2779  0.2118  0.0454
 8966W        W24435   1.156  13.935   3.839  0.0066 -0.0093  0.1731
 8967W        W24436  16.617   5.673  12.468 -0.4606  0.1022 -0.0859
 8968W        W24437   0.105   1.485  14.546 -0.0351 -0.0386 -0.1074
 8969W        W24438   0.189  13.088  11.447 -0.1829 -0.0144  0.1119
 8970W        W24439   2.574   4.380  14.084  0.0497  0.4878 -0.0877
 8971W        W24440  11.014   5.447   9.808 -0.2134 -0.1986  0.0825
 8972W        W24441   3.343  14.073   3.069  0.2179 -0.0212 -0.1239
 8973W        W24442   6.988  10.244   0.956 -0.0036  0.1872  0.0775
 8974W        W24443  16.511   8.487   2.730  0.0894  0.0233  0.0496
 8975W        W24444   2.771  12.271   1.865  0.1476 -0.1584  0.1146
 8976W        W24445  16.781   3.730   5.092 -0.1105 -0.0265 -0.0336
 8977W        W24446  11.928   5.173   3.358  0.1665 -0.1514  0.1221
 8978W        W24447   2.589   0.071   3.028 -0.0140 -0.0834  0.4465
 8979W        W24448  16.267   9.557   3.563 -0.0215 -0.1485 -0.2483
 8980W        W24449   1.078   4.147   5.649  0.1895  0.0321  0.0990
 8981W        W24450  10.093   5.162   3.754 -0.0414  0.3698  0.0719
 8982W        W24451  11.965   7.325  14.845  0.2400 -0.4657 -0.0881
 8983W        W24452   7.270   9.536   1.159  0.2071  0.1437  0.1143
 8984W        W24453  12.223   3.248  13.896  0.1442 -0.0531 -0.1242
 8985W        W24454   0.900   0.704   1.514 -0.0815  0.2395  0.2065
 8986W        W24455  12.655  15.278   4.154 -0.2120 -0.0762 -0.0753
 8987W        W24456  10.896   7.822  11.487  0.2363  0.2273  0.2574
 8988W        W24457   3.491  16.972   5.689 -0.2969  0.0752 -0.1144
 8989W        W24458  11.387  15.389   3.406 -0.0558 -0.1376  0.1580
 8990W        W24459  10.429   7.483  11.816 -0.2415 -0.2300 -0.2279
 8991W        W24460  15.816   6.519   2.175 -0.2157 -0.0457  0.1249
 8992W        W24461   9.350   5.584   3.739  0.0480  0.0625 -0.0133
 8993W        W24462   1.422  18.454   2.616  0.1382 -0.0658  0.1175
 8994W        W24463   1.479  14.988  14.202 -0.4121  0.0086  0.0930
 8995W        W24464   5.333   9.825   9.828  0.3031  0.0874 -0.2986
 8996W        W24465  15.860   5.292   0.060 -0.2297 -0.1067  0.2565
 8997W        W24466   4.381  12.291   2.118  0.2049 -0.0498 -0.0455
 8998W        W24467  14.856   4.501  15.153 -0.1002 -0.0253 -0.1445
 8999W        W24468  15.050   1.748  12.171  0.0011  0.1945 -0.3107
 9000W        W24469   0.484   9.384   0.970 -0.1579  0.3272 -0.0959
 9001W        W24470   0.536   0.525   3.835 -0.2333  0.1311 -0.1694
 9002W        W24471   1.773   7.594  15.511 -0.0261 -0.3662  0.2060
 9003W        W24472   4.318   0.510  15.554 -0.1604 -0.1408  0.0564
 9004W        W24473  14.796  14.547   2.649  0.1575  0.2092 -0.2431
 9005W        W24474   8.912   4.185   3.435 -0.3128  0.1786 -0.0342
 9006W        W24475  12.590   6.307   0.710  0.0316  0.1803  0.3434
 9007W        W24476   6.942   7.117  11.333 -0.0981 -0.2947  0.4061
 9008W        W24477   8.978  16.142   1.113  0.1147  0.3012 -0.1980
 9009W        W24478   2.504   9.912  11.302  0.1743  0.0070  0.1482
 9010W        W24479   8.024  15.626   1.932  0.1385  0.0131  0.2835
 9011W        W24480   4.622   3.932   1.353  0.0683 -0.0179  0.2111
 9012W        W24481  17.013  18.296  15.453 -0.0518 -0.3113  0.0671
 9013W        W24482   0.378   9.973  14.608 -0.3745 -0.1883 -0.0730
 9014W        W24483  16.562  18.205  13.070  0.5138  0.0070  0.0629
 9015W        W24484   4.078   1.251   0.485 -0.0894  0.2490  0.1393
 9016W        W24485  12.971   5.429   2.642 -0.0823  0.0972  0.2997
 9017W        W24486   5.798  14.434  14.247  0.0667 -0.4368 -0.0481
 9018W        W24487   5.269   3.647   3.701  0.1996  0.0427 -0.2254
 9019W        W24488  17.458   8.664   5.078 -0.0085  0.1908  0.3485
 9020W        W24489  12.489   0.122  13.156 -0.1037  0.2191 -0.1983
 9021W        W24490  14.668  16.588  14.603 -0.0044  0.1324  0.3270
 9022W        W24491  10.941   9.865  14.167  0.1388  0.0079  0.1709
 9023W        W24492  12.638   2.334   1.610 -0.1036  0.1562 -0.1860
 9024W        W24493   0.388  11.013   2.452  0.3355  0.1870 -0.3014
 9025W        W24494  17.469   1.813   3.602 -0.3025 -0.4805 -0.1219
 9026W        W24495   1.462  16.192   1.570 -0.3088  0.0519 -0.0531
 9027W        W24496   2.547  10.885  12.296  0.0994 -0.0422 -0.1971
 9028W        W24497  11.456  11.910  15.402  0.3828 -0.2628  0.1104
 9029W        W24498  15.960   1.324   0.442 -0.0363  0.0166  0.1650
 9030W        W24499  14.602  12.154   4.589  0.1780  0.0802  0.4382
 9031W        W24500  16.497  11.765   1.490 -0.0267  0.3361  0.0635
 9032W        W24501  10.007  17.971   0.068  0.1095  0.2877 -0.3624
 9033W        W24502  16.319   9.410   2.937  0.2266  0.4293  0.2162
 9034W        W24503   1.992   3.103  14.533  0.2535 -0.2063  0.2410
 9035W        W24504  11.759   5.424  14.818  0.2236 -0.0221 -0.1328
 9036W        W24505  10.164  18.323  13.296  0.0291  0.3964 -0.3946
 9037W        W24506   8.505   7.128  10.926  0.2962  0.2643  0.2257
 9038W        W24507   2.489   4.738   5.908  0.1367  0.1767  0.1882
 9039W        W24508   9.706   2.020   0.845 -0.2177 -0.2589 -0.1761
 9040W        W24509   1.383  16.815  11.766  0.0566  0.1295  0.0127
 9041W        W24510  17.747  17.514  11.266 -0.0390 -0.0106 -0.0364
 9042W        W24511   5.087   2.971  12.952 -0.0147  0.0676  0.1064
 9043W        W24512  16.393  10.001   0.270  0.0311  0.0550  0.0360
 9044W        W24513   9.595   8.539  14.327 -0.0122 -0.1042 -0.2565
 9045W        W24514  18.476   5.255   3.107 -0.0491  0.0980 -0.0198
 9046W        W24515  16.494  14.843  11.774  0.2883  0.3524  0.0569
 9047W        W24516   7.218   3.539  12.249  0.0057  0.1064 -0.2234
 9048W        W24517  17.490   0.718   4.005  0.1085  0.0222  0.3215
 9049W        W24518  15.699  14.545  11.445 -0.0117 -0.1814  0.1990
 9050W        W24519   9.354   9.003  14.387  0.0347  0.2430  0.1002
 9051W        W24520  15.140   5.172  15.685  0.2854  0.0193  0.0359
 9052W        W24521  15.026   5.074   0.592 -0.0569 -0.0473  0.0354
 9053W        W24522  16.821   7.773   2.503  0.0284  0.3700 -0.0525
 9054W        W24523   0.103  16.028   1.737  0.0739  0.1033 -0.2169
 9055W        W24524   6.397   9.022  14.428  0.1405  0.1861  0.1362
 9056W        W24525  11.561  10.681   2.697  0.0396 -0.1312 -0.1557
 9057W        W24526   6.205   7.647  12.286 -0.1224 -0.3402 -0.2580
 9058W        W24527   9.789  12.698  13.022  0.2071 -0.0472  0.1196
 9059W        W24528  10.125  15.125  14.162 -0.3309 -0.2354  0.1521
 9060W        W24529  11.082  14.256  13.035 -0.3228 -0.2416  0.4199
 9061W        W24530   1.017   2.696  14.237  0.1851 -0.0527 -0.0600
 9062W        W24531   4.074  18.050  11.218  0.2422 -0.0457  0.0288
 9063W        W24532   0.155  17.574  11.066 -0.0843  0.0840  0.2052
 9064W        W24533   1.756   0.511  15.269  0.0196  0.3177  0.1764
 9065W        W24534  11.098   8.084   4.583 -0.1168 -0.1612  0.2992
 9066W        W24535   2.204  10.019   0.307  0.2515 -0.1320 -0.1381
 9067W        W24536   1.052  15.678  15.277  0.0946 -0.0086 -0.2110
 9068W        W24537   2.747  13.119  14.876  0.4710 -0.1491 -0.2014
 9069W        W24538  16.345   9.021  11.672  0.0352  0.1245  0.1260
 9070W        W24539   3.298  14.399  15.715 -0.3886  0.0607  0.1943
 9071W        W24540   5.960   5.893   4.190  0.0245 -0.0146  0.1935
 9072W        W24541   7.659   6.747   1.307  0.2873 -0.0444  0.3356
 9073W        W24542  14.413  12.424   1.360  0.2190 -0.0913  0.0450
 9074W        W24543   1.686   9.134  10.710 -0.1790  0.2770  0.2723
 9075W        W24544   3.387  14.568  13.510  0.1554 -0.1102  0.0584
 9076W        W24545   8.164  17.667  10.915  0.0430  0.0953 -0.0549
 9077W        W24546   2.702  12.054  10.025 -0.2425  0.1437 -0.0561
 9078W        W24547   8.664  10.217  15.333  0.1252  0.3008 -0.0748
 9079W        W24548  14.158   0.683   0.368 -0.3079  0.3384  0.0924
 9080W        W24549   2.446  11.339   5.817 -0.0713  0.0147  0.0515
 9081W        W24550   7.011   5.344   2.692 -0.2833 -0.1643  0.1274
 9082W        W24551   3.950   9.309   2.102  0.0407  0.1727  0.1612
 9083W        W24552   7.584   6.529  11.348  0.0294 -0.0553  0.0604
 9084W        W24553  13.084   4.002  12.538 -0.1149 -0.2281 -0.0686
 9085W        W24554  15.140   5.403   3.556 -0.1635 -0.2316  0.2469
 9086W        W24555   4.681   8.541  15.762  0.0044  0.1705  0.0727
 9087W        W24556  11.629  14.478   2.226 -0.1568 -0.1460  0.1699
 9088W        W24557   0.292   4.901   2.868 -0.0582  0.0563  0.0407
 9089W        W24558   3.865  13.349  13.072  0.0889 -0.1865 -0.0066
 9090W        W24559   7.234  12.598  15.647  0.1148 -0.1972 -0.0141
 9091W        W24560   4.496   6.557   0.268  0.0603  0.2095 -0.1034
 9092W        W24561  14.588   3.269  14.599  0.0633 -0.1115 -0.2307
 9093W        W24562  10.056   7.431   3.592  0.0702  0.4176  0.2930
 9094W        W24563   4.457  16.887  15.618 -0.0281  0.1339 -0.3152
 9095W        W24564   9.602   0.361   2.786 -0.1049 -0.0147 -0.2261
 9096W        W24565   3.881  10.888   3.541  0.3760 -0.1074 -0.0111
 9097W        W24566   0.127   5.262  15.484 -0.2166 -0.0530  0.0624
 9098W        W24567  16.983   9.975  12.617 -0.1390 -0.0727  0.0166
 9099W        W24568  12.631   4.834   4.470 -0.0635  0.0405 -0.0367
 9100W        W24569   1.624   4.277  14.907  0.2660 -0.1103 -0.3268
 9101W        W24570   1.376  17.001  10.896  0.2252 -0.0225  0.0048
 9102W        W24571  13.372  12.476   4.533  0.0316 -0.0054 -0.2280
 9103W        W24572  15.001  17.908  13.817 -0.0488 -0.2368 -0.0872
 9104W        W24573   1.501  12.924  11.724  0.0478  0.0935 -0.2312
 9105W        W24574   4.329   4.844  13.689 -0.0317 -0.3217 -0.2922
 9106W        W24575  15.637  12.781   3.400 -0.2185 -0.0495  0.2063
 9107W        W24576   4.698   0.495   4.399 -0.1461 -0.0613  0.1436
 9108W        W24577  17.696   9.465  11.760 -0.1394  0.1228  0.0036
 9109W        W24578   5.808   6.123  11.127 -0.0192  0.1997  0.0703
 9110W        W24579  13.961   6.008  12.481 -0.1402  0.2858  0.0340
 9111W        W24580   4.963  12.788   6.042 -0.0300  0.1783  0.1562
 9112W        W24581   9.644  17.259  13.181  0.0697  0.1979 -0.3771
 9113W        W24582   2.853   6.618   4.689  0.0962  0.3465  0.0158
 9114W        W24583   3.150  10.896  14.939  0.1562 -0.0117  0.2525
 9115W        W24584   7.788   9.731   0.853  0.0659 -0.0976  0.3339
 9116W        W24585   6.552  10.168   4.268  0.2177 -0.0452 -0.1103
 9117W        W24586   8.667   0.155   2.872 -0.2836  0.0937 -0.3457
 9118W        W24587  17.559   9.074  12.585 -0.1387 -0.0182 -0.0631
 9119W        W24588  14.354   5.841  10.640  0.2496 -0.4662  0.1330
 9120W        W24589  10.536   4.784  14.882  0.1266  0.0773  0.0678
 9121W        W24590  16.527   4.187   1.713 -0.0588 -0.1229 -0.2367
 9122W        W24591   2.473  13.108  11.359  0.0534  0.0924  0.2375
 9123W        W24592  18.177   6.665  12.987  0.5282  0.2607  0.1150
 9124W        W24593  16.463  11.529   0.493 -0.2426  0.1439  0.2914
 9125W        W24594   3.980   0.099  11.438  0.1572  0.2184 -0.1736
 9126W        W24595   1.211   9.059  11.880  0.0319  0.0849  0.1696
 9127W        W24596   2.085   7.257  14.450 -0.0929 -0.1532 -0.0705
 9128W        W24597  12.903   1.266  11.748  0.0259  0.0617  0.1736
 9129W        W24598   4.953  18.277  13.931  0.0234  0.0519  0.1170
 9130W        W24599  12.366  13.292   2.076 -0.1337 -0.2698  0.2362
 9131W        W24600   5.355  17.268  12.614  0.2555 -0.0346  0.2313
 9132W        W24601   2.300   8.658   9.989 -0.0035  0.1809  0.1439
 9133W        W24602  13.693   0.361   2.701  0.3222 -0.0472  0.0219
 9134W        W24603   4.017  13.318  12.015 -0.2861  0.0107 -0.2091
 9135W        W24604   9.021  13.993   2.163 -0.0453 -0.1306 -0.0759
 9136W        W24605   4.149   1.876   2.119  0.0744  0.1236  0.0874
 9137W        W24606  11.802   4.393   2.959  0.0911  0.2819  0.1833
 9138W        W24607  11.598   4.932  13.245 -0.0456 -0.1451  0.1571
 9139W        W24608  16.838  11.153   0.629 -0.1966 -0.0744 -0.0894
 9140W        W24609   4.350   0.563   5.496 -0.0181  0.2020  0.4607
 9141W        W24610  12.793  10.714   4.280 -0.0520  0.0522 -0.2119
 9142W        W24611  18.125  13.194  15.726 -0.0676  0.1423  0.0131
 9143W        W24612  13.495  17.055   0.278  0.2728 -0.0864 -0.0702
 9144W        W24613  16.044  12.143   3.933 -0.1814 -0.0266  0.1141
 9145W        W24614  10.828   5.643   1.090 -0.1089 -0.3378 -0.0042
 9146W        W24615  15.672   4.278   3.276 -0.0265  0.2010  0.0149
 9147W        W24616   1.787  12.904  13.155  0.4625 -0.0640  0.0777
 9148W        W24617   6.147  10.246  11.789  0.2554  0.0751 -0.0804
 9149W        W24618  14.018   5.436  12.511 -0.4256 -0.0913 -0.1050
 9150W        W24619  15.595  12.020  12.470 -0.0108  0.0947  0.1817
 9151W        W24620  18.373   1.652   9.879  0.1837  0.1860  0.0611
 9152W        W24621  12.472   5.071   1.016 -0.1123  0.1125 -0.2295
 9153W        W24622   3.874  12.332   2.815 -0.1110  0.0190 -0.0498
 9154W        W24623   4.434   3.447   4.131 -0.3020  0.1917 -0.0297
 9155W        W24624   3.675   2.535   1.045  0.0509  0.2381 -0.0988
 9156W        W24625   4.594   1.920  15.485  0.1746 -0.0397  0.1053
 9157W        W24626   0.074  12.965  13.661  0.2781 -0.0599  0.2744
 9158W        W24627  12.227   8.590   2.840 -0.1136 -0.0496  0.1444
 9159W        W24628   4.303   5.461  15.717  0.3769  0.0997  0.0734
 9160W        W24629   9.861  12.241   4.910  0.0626  0.0914 -0.2283
 9161W        W24630  12.415   9.718  13.054 -0.0271 -0.3789 -0.1465
 9162W        W24631   7.855  10.775   3.984  0.4098  0.2398  0.0312
 9163W        W24632   3.545  17.342  13.288  0.1527  0.1324  0.0556
 9164W        W24633   0.261   9.539   3.479 -0.0268  0.1065  0.0675
 9165W        W24634   3.001  13.544  12.152 -0.2170  0.0038  0.0984
 9166W        W24635   2.896  12.817   4.502 -0.1054 -0.0355  0.0252
 9167W        W24636   0.344   2.027   0.418  0.1453  0.1203  0.1678
 9168W        W24637   8.985   9.853   4.488  0.2968 -0.0498 -0.1201
 9169W        W24638  15.823   4.826   2.792  0.2784  0.0741 -0.2162
 9170W        W24639   8.231   0.318  12.509 -0.0666 -0.2950  0.0454
 9171W        W24640   2.677  17.794  15.555 -0.0288 -0.1246 -0.1743
 9172W        W24641   6.141  12.586   1.079 -0.2025 -0.0297  0.0420
 9173W        W24642  15.918  14.908   3.052  0.1390 -0.1568  0.1922
 9174W        W24643   6.003   6.496  13.555 -0.0248  0.0300  0.0723
 9175W        W24644  14.930  16.572  13.718  0.0173 -0.0282 -0.0140
 9176W        W24645  15.556   0.825   1.422  0.1473  0.3069 -0.0052
 9177W        W24646   7.367   2.724   2.127 -0.0138 -0.3662 -0.1937
 9178W        W24647   5.352  13.967   1.906  0.1060 -0.2147 -0.0495
 9179W        W24648  10.049  12.160  13.089 -0.0460  0.2360 -0.0666
 9180W        W24649  13.832   7.543   3.281 -0.2480 -0.2348 -0.2139
 9181W        W24650   4.865   5.146  12.658  0.1133  0.0907  0.0855
 9182W        W24651   6.632  14.625   3.906 -0.2249  0.5131 -0.0401
 9183W        W24652   1.216   6.367  12.520 -0.2332  0.1415 -0.1214
 9184W        W24653   7.375   5.442  11.381 -0.2690 -0.0414 -0.1751
 9185W        W24654   9.322   5.489   3.264 -0.0282  0.0135 -0.1589
 9186W        W24655   3.080  14.715  12.231 -0.0287 -0.2333  0.3037
 9187W        W24656  15.321   3.602   5.185 -0.3891 -0.2591  0.0459
 9188W        W24657   0.158   4.571  12.787 -0.1534  0.1237  0.1621
 9189W        W24658   7.922   0.481   1.834 -0.0928 -0.0385 -0.2449
 9190W        W24659  17.225  17.981   1.245 -0.1707 -0.0209 -0.1207
 9191W        W24660   4.597  10.326   1.689  0.1685 -0.2265  0.4175
 9192W        W24661  15.917   5.857   4.701 -0.2116 -0.0042 -0.4493
 9193W        W24662  12.018  11.868  15.302 -0.0614 -0.5724  0.0712
 9194W        W24663  10.847   8.068   3.637 -0.1101 -0.2534 -0.2901
 9195W        W24664   8.801   3.679   4.685  0.0914  0.0762  0.3195
 9196W        W24665   4.784   4.667   2.748 -0.2232  0.0367  0.6569
 9197W        W24666  14.550   3.436  15.139  0.0413  0.3318  0.1360
 9198W        W24667  12.761  12.425  14.376 -0.1909  0.4002  0.1783
 9199W        W24668  10.350  16.073   2.680  0.0431  0.1128  0.1297
 9200W        W24669  11.758  10.943  11.166 -0.0826 -0.0345  0.3128
 9201W        W24670   2.025   2.472   5.550  0.4038  0.0344  0.0906
 9202W        W24671   5.230  17.918  11.429  0.1346 -0.2825 -0.0296
 9203W        W24672   3.825   7.076  15.423 -0.0411 -0.1875 -0.3496
 9204W        W24673  16.117   6.501  11.853  0.3134  0.3108  0.0661
 9205W        W24674  14.632  15.011   0.668  0.2052 -0.2049 -0.2044
 9206W        W24675   6.330  12.072  11.350  0.0014  0.3199  0.0155
 9207W        W24676   4.333   5.323  13.490  0.2012 -0.3149 -0.2117
 9208W        W24677  10.861   5.125   4.659 -0.0324  0.1045  0.2739
 9209W        W24678   9.425  14.252  13.750  0.1922 -0.3303  0.0448
 9210W        W24679   9.428   9.443  14.654 -0.0526  0.0131 -0.2515
 9211W        W24680   1.561  11.500  14.846 -0.2462 -0.0697 -0.0493
 9212W        W24681   8.925   4.082   6.029 -0.2508 -0.2436  0.0873
 9213W        W24682   2.760  16.354  11.671 -0.1593 -0.1505  0.2025
 9214W        W24683   8.617   2.474  13.214 -0.2410 -0.0995  0.0103
 9215W        W24684  13.266   8.055  12.860  0.0558  0.1337 -0.0690
 9216W        W24685   3.960   3.672  15.103  0.0536 -0.1502 -0.2449
 9217W        W24686   0.428  11.318   4.551 -0.0942 -0.1836 -0.2162
 9218W        W24687   1.353  13.301   5.337 -0.0548 -0.0719  0.1743
 9219W        W24688   5.914  14.647   2.445  0.1321 -0.2593  0.0246
 9220W        W24689  14.294   4.582   0.396 -0.0789  0.0135 -0.0671
 9221W        W24690  16.982   0.670  13.890  0.2022 -0.0144  0.3095
 9222W        W24691   6.161   7.789   4.623 -0.0575 -0.2501 -0.0115
 9223W        W24692  16.573  13.280  15.359  0.0375 -0.0152 -0.0283
 9224W        W24693  16.254   6.409   5.818 -0.0464  0.2803  0.1059
 9225W        W24694   7.926   3.160   0.943  0.1254 -0.0907  0.0683
 9226W        W24695  13.017  16.154  14.022 -0.1182 -0.3303  0.0333
 9227W        W24696  17.065   5.069  14.932  0.2160  0.0203 -0.2903
 9228W        W24697  18.185   7.853  15.600  0.0657  0.0347 -0.1214
 9229W        W24698   4.071  13.756   0.251 -0.0907  0.0570 -0.0550
 9230W        W24699   6.831   4.446   2.816 -0.3846 -0.2570  0.1381
 9231W        W24700   9.269  11.934   4.344  0.1892 -0.1932 -0.2769
 9232W        W24701  12.403  16.577   5.186  0.0261 -0.0349 -0.0248
 9233W        W24702  10.777   5.937  13.276 -0.5212  0.0777  0.0640
 9234W        W24703  14.908   3.602   4.713  0.1482 -0.0241 -0.1133
 9235W        W24704  17.457   8.937  12.055  0.2371  0.1299  0.2185
 9236W        W24705  10.875   4.530  12.043 -0.0477  0.2823  0.2618
 9237W        W24706  12.325  17.440   2.821  0.0662 -0.0350 -0.1989
 9238W        W24707  15.715   5.328   4.856 -0.0567  0.1103 -0.0125
 9239W        W24708   4.667   7.231  12.043 -0.0899 -0.0527 -0.2244
 9240W        W24709  13.405  10.709   3.383  0.3912  0.1326  0.2880
 9241W        W24710  15.795  13.163  10.123  0.1512 -0.3123  0.0774
 9242W        W24711   2.805  14.002   3.306 -0.0599  0.3254  0.0933
 9243W        W24712   1.799  12.520   3.901  0.0915 -0.1337  0.0242
 9244W        W24713  17.570   3.777  14.915  0.0615 -0.0589  0.0838
 9245W        W24714  16.729  17.182  12.936  0.2731 -0.2579 -0.2169
 9246W        W24715   4.548  10.358   1.169  0.0870  0.1315 -0.0655
 9247W        W24716   6.981   3.077  14.930 -0.3680 -0.5396  0.0722
 9248W        W24717  14.571  14.551   3.514 -0.3004  0.4103 -0.0259
 9249W        W24718   6.697  16.251   2.747  0.2373  0.0402 -0.0099
 9250W        W24719   7.062   5.719   2.115  0.0986 -0.1327  0.1379
 9251W        W24720   8.363  14.489  12.847 -0.1294  0.0915 -0.0161
 9252W        W24721   9.471   1.434   4.454  0.1306 -0.1538  0.1728
 9253W        W24722   9.842  12.675   0.905  0.1136  0.1600 -0.2135
 9254W        W24723  12.053  16.110   3.241 -0.3546 -0.0837 -0.1789
 9255W        W24724  10.447   8.911  12.438 -0.0695  0.3185  0.3343
 9256W        W24725   9.753  13.589   3.633 -0.1110 -0.1131  0.0131
 9257W        W24726  17.263   7.848   0.062  0.0065  0.2361  0.2807
 9258W        W24727   8.024   9.051   3.596  0.1418  0.3374  0.0025
 9259W        W24728   8.645   9.466  11.619 -0.1734 -0.0104 -0.2362
 9260W        W24729  10.725   5.670   4.246  0.1626 -0.0483 -0.4577
 9261W        W24730   6.368  16.857   3.143 -0.4603 -0.0488 -0.1657
 9262W        W24731  13.947  15.348   4.186  0.2474  0.2914  0.0810
 9263W        W24732  15.928  10.966   3.198  0.1797  0.3956  0.3015
 9264W        W24733  16.208  15.054  12.102 -0.1020 -0.2308 -0.0792
 9265W        W24734   6.743  11.530  15.421  0.1260  0.1818 -0.1832
 9266W        W24735   4.789   4.639   0.883  0.3526 -0.0914  0.3195
 9267W        W24736  15.031   9.261   5.208  0.0574  0.0845 -0.3047
 9268W        W24737  16.364   9.540  14.049  0.0645 -0.1117  0.0533
 9269W        W24738  12.257   1.832  13.509  0.3080  0.2302  0.2247
 9270W        W24739   9.391   7.497   2.116  0.0102 -0.0862  0.1188
 9271W        W24740  16.432  15.642  13.701 -0.0342  0.0587  0.1606
 9272W        W24741  13.712  14.871   5.083 -0.3869  0.2581 -0.1807
 9273W        W24742  16.647  13.173   2.351 -0.1361 -0.0710  0.0386
 9274W        W24743   1.612   9.440  15.259 -0.0735  0.0287  0.3003
 9275W        W24744   7.998   9.456  14.073 -0.0335  0.2728  0.0234
 9276W        W24745   2.053   3.396  11.261 -0.0458  0.0242  0.0671
 9277W        W24746  10.371  15.960  12.789  0.0343  0.0900 -0.1988
 9278W        W24747  13.418   6.058   9.729 -0.0436  0.0723 -0.0630
 9279W        W24748  18.297   5.824   0.502 -0.0591 -0.0253  0.0772
 9280W        W24749  11.043  12.033   4.474  0.0535  0.0373 -0.4527
 9281W        W24750   0.776  17.650  15.642  0.1862  0.4345 -0.0769
 9282W        W24751  15.854  17.825   2.244 -0.0377 -0.3608 -0.2386
 9283W        W24752  17.550  15.890   0.547  0.1461  0.0296 -0.1368
 9284W        W24753   3.929   2.525  14.070  0.4373  0.0247  0.0755
 9285W        W24754   1.065  17.724   1.683  0.1009 -0.1196 -0.2490
 9286W        W24755   0.913   1.605  14.169 -0.1334 -0.0991  0.1535
 9287W        W24756   7.406  13.406   3.474  0.2416  0.1562  0.2299
 9288W        W24757  13.732  17.951   0.663 -0.2115 -0.1953  0.1738
 9289W        W24758  16.704   7.780   0.244 -0.0999  0.3278 -0.0129
 9290W        W24759  16.999   2.315  13.444 -0.0055  0.0195  0.0940
 9291W        W24760   1.209   0.336   0.090  0.3451 -0.2242 -0.2102
 9292W        W24761  10.638   8.802   5.998 -0.1104 -0.2558 -0.0183
 9293W        W24762  10.752  14.790  13.528 -0.0769  0.2407  0.0891
 9294W        W24763   8.634   0.372   1.813  0.0589  0.0601 -0.1176
 9295W        W24764  10.183   8.141  11.282 -0.3410  0.1456  0.0720
 9296W        W24765   0.581   1.490   1.497  0.0430  0.0699  0.1746
 9297W        W24766  10.972   3.246  14.513 -0.2536 -0.1054 -0.1406
 9298W        W24767   1.749   1.245   0.134 -0.2011 -0.2942  0.2300
 9299W        W24768  11.586   6.562  13.970  0.1985  0.2860  0.3436
 9300W        W24769   2.712   5.740   1.456 -0.1386  0.2520 -0.1107
 9301W        W24770  14.883   2.650  11.827 -0.2066  0.3130 -0.0652
 9302W        W24771   0.470   6.766  11.641 -0.1696  0.0730  0.2891
 9303W        W24772  12.711   7.602  13.200 -0.2312 -0.1575 -0.0858
 9304W        W24773   2.024   7.807   1.076 -0.0248  0.1709  0.0970
 9305W        W24774  17.800   5.711  14.025  0.1307 -0.1569 -0.1949
 9306W        W24775   6.653  16.496   5.616 -0.2328 -0.0267 -0.0099
 9307W        W24776  17.221  17.396   4.575 -0.2435  0.0090  0.1025
 9308W        W24777   1.429   4.077  10.928  0.2121  0.0290 -0.0023
 9309W        W24778  13.922   0.036  13.619 -0.2947  0.1415  0.1119
 9310W        W24779   9.405   5.182   4.941 -0.2693 -0.0109  0.1098
 9311W        W24780  11.607   9.467   5.232 -0.2424  0.1729  0.1243
 9312W        W24781  16.840  15.265   5.218 -0.0358  0.0935 -0.3067
 9313W        W24782   8.286   0.396  14.227 -0.0972  0.0660 -0.2410
 9314W        W24783   8.633   2.999  12.818  0.0478  0.1987 -0.2364
 9315W        W24784   9.622   6.330   4.375 -0.1342 -0.2462 -0.0554
 9316W        W24785  11.783  13.995   3.114  0.0138 -0.3459  0.0761
 9317W        W24786   0.614  11.671  13.931  0.0860 -0.2818  0.1075
 9318W        W24787   3.167   6.049  11.421 -0.1890  0.0077  0.0296
 9319W        W24788   6.078   9.757   2.704 -0.2432 -0.1684 -0.1029
 9320W        W24789   7.566  12.018  13.560 -0.0370  0.0778  0.0392
 9321W        W24790   0.715  16.741  13.593 -0.1030 -0.2603 -0.0275
 9322W        W24791  10.181   5.735  11.794  0.0162 -0.0143  0.2265
 9323W        W24792   5.023  16.524  10.797  0.0293  0.1528  0.1759
 9324W        W24793  11.774   5.993  12.640 -0.3615 -0.2360 -0.1976
 9325W        W24794   9.402   6.933  15.322  0.2541 -0.2713 -0.0527
 9326W        W24795  12.950   8.454  12.666  0.1346  0.1374 -0.1401
 9327W        W24796   0.344  10.312   3.532 -0.2031 -0.0069  0.1658
 9328W        W24797   5.880   3.348   0.616 -0.1451  0.0854 -0.0261
 9329W        W24798  12.452   4.442  13.099 -0.1630 -0.1284 -0.0513
 9330W        W24799  10.174   4.307   1.055 -0.1574 -0.2147  0.0258
 9331W        W24800   3.369   3.077   0.949 -0.0873 -0.2872 -0.1104
 9332W        W24801  18.148  11.733  10.801 -0.1350  0.2143  0.1521
 9333W        W24802   5.306  12.323   5.466 -0.0750 -0.3790 -0.1412
 9334W        W24803   0.671   8.759  14.563  0.1349 -0.1076  0.2858
 9335W        W24804   1.477   9.220  14.621  0.0207 -0.0170  0.1806
 9336W        W24805  11.196  14.570  13.885 -0.3887 -0.0182  0.3718
 9337W        W24806   6.862   6.679   5.001 -0.2694 -0.2157 -0.0708
 9338W        W24807   1.571  11.752   2.939 -0.0929 -0.1406 -0.1592
 9339W        W24808   3.127  15.307   5.403 -0.2526 -0.2913 -0.2417
 9340W        W24809  12.811  16.711  11.039 -0.0221  0.2117  0.3444
 9341W        W24810  12.722   3.234   4.502  0.1263  0.0001  0.1587
 9342W        W24811   8.033   1.265  13.436 -0.0738  0.1122 -0.5292
 9343W        W24812  15.734  13.237  10.676  0.2450 -0.3037 -0.0911
 9344W        W24813  10.305  12.275   2.416  0.1444 -0.1173 -0.0406
 9345W        W24814   2.689   3.584   4.774  0.2572 -0.0146 -0.2082
 9346W        W24815  14.013   4.767  12.044 -0.1071  0.2468 -0.1733
 9347W        W24816  14.574   1.992   0.608  0.0039  0.1385 -0.0811
 9348W        W24817   2.413   4.544  14.538  0.1021 -0.0094 -0.3308
 9349W        W24818  16.335  18.438  12.237  0.1832 -0.1620 -0.3744
 9350W        W24819  15.480  17.654   3.433  0.2330 -0.2392  0.1713
 9351W        W24820   7.936   5.495  14.357 -0.0837 -0.0130 -0.0183
 9352W        W24821   3.625   6.912   2.429  0.2432 -0.1527  0.3387
 9353W        W24822   3.372   8.332  11.011  0.2223 -0.1670 -0.0568
 9354W        W24823  12.495   5.737   3.292  0.1482 -0.0792  0.1347
 9355W        W24824  16.774   7.892   3.878  0.1417 -0.0728  0.3595
 9356W        W24825  11.690  16.322   0.729  0.2419  0.0108  0.1396
 9357W        W24826   5.010   7.845   1.988 -0.4780  0.0577  0.0261
 9358W        W24827  18.019   5.031   2.313  0.2651 -0.3470 -0.1669
 9359W        W24828  16.064   9.347   1.946 -0.2101 -0.0269 -0.0519
 9360W        W24829  12.436  15.728   3.294 -0.2100 -0.4633  0.1274
 9361W        W24830  14.433   7.642   5.175 -0.2281  0.0966 -0.0851
 9362W        W24831  10.909   5.497  13.515  0.0297  0.0237  0.2699
 9363W        W24832   3.330  14.860   5.147 -0.1708 -0.0035 -0.2558
 9364W        W24833   2.228   5.528  14.354 -0.3871  0.1659  0.1998
 9365W        W24834   7.071  10.876   2.202 -0.0376 -0.2987  0.1714
 9366W        W24835  11.195   5.072   3.035 -0.0180 -0.0856  0.2023
 9367W        W24836  13.225  14.407   3.706 -0.0408  0.0802 -0.1705
 9368W        W24837   1.620  15.857  13.806  0.1861 -0.0417  0.0402
 9369W        W24838  16.697  10.310   3.832 -0.4303  0.0285 -0.1738
 9370W        W24839  17.382  18.039  12.179 -0.1753 -0.2910 -0.2372
 9371W        W24840   4.816   7.173   4.545 -0.2401 -0.0262 -0.0006
 9372W        W24841   5.637   9.464  15.575 -0.0058  0.0216 -0.3684
 9373W        W24842   8.898   9.577  13.957  0.5276  0.0665 -0.0778
 9374W        W24843   9.626  14.739   3.368 -0.2703 -0.2701 -0.1465
 9375W        W24844  16.566   0.651   0.639 -0.5299 -0.1978  0.0567
 9376W        W24845   9.760   8.744   3.399 -0.0778  0.0829 -0.1482
 9377W        W24846  18.477   2.194  15.664 -0.3858 -0.1106  0.5055
 9378W        W24847  13.247   2.704   3.869  0.2642 -0.0790  0.1869
 9379W        W24848   0.830   1.142  13.946 -0.3060 -0.1879 -0.1121
 9380W        W24849   2.663  17.032   5.175 -0.0502  0.0324 -0.1502
 9381W        W24850   2.419   7.034   0.719 -0.0431  0.2457  0.1318
 9382W        W24851  17.705  13.297   0.202 -0.0543  0.1225 -0.0899
 9383W        W24852   6.675   1.477   2.806  0.2805  0.1435  0.0178
 9384W        W24853   4.123  11.872   3.044 -0.2016 -0.0148  0.0344
 9385W        W24854   1.029  11.714   3.053 -0.1112  0.0729  0.0188
 9386W        W24855   5.636  10.161  12.541 -0.0950 -0.0685 -0.0923
 9387W        W24856   3.070   9.408   1.193  0.1110  0.1141 -0.2074
 9388W        W24857   4.199   6.399  14.929 -0.1552 -0.0073 -0.2059
 9389W        W24858  12.889   2.894   3.156 -0.0653  0.1670 -0.0332
 9390W        W24859  16.272  14.544   0.632  0.2134  0.0479  0.2403
 9391W        W24860  13.776   0.472   0.958 -0.0204  0.1053 -0.2021
 9392W        W24861  12.106   7.930   3.683  0.1905 -0.0521 -0.0695
 9393W        W24862  13.152  12.934   2.457 -0.0871 -0.0459 -0.1704
 9394W        W24863   6.622   8.170  15.789 -0.1474  0.2142 -0.2485
 9395W        W24864   7.886  13.517   1.995 -0.0035  0.3114  0.2913
 9396W        W24865  12.746   8.596   2.915 -0.2736 -0.1171  0.2137
 9397W        W24866  11.092   7.970   4.086 -0.0052  0.1453  0.0248
 9398W        W24867   8.734   8.670   3.670 -0.0275 -0.1206  0.0143
 9399W        W24868   2.450  17.137   0.928 -0.1020 -0.0651 -0.0941
 9400W        W24869   8.144   1.882  11.969 -0.0099  0.0760  0.2855
 9401W        W24870   7.657  11.180  11.940  0.1521 -0.3552  0.0266
 9402W        W24871  14.029  10.600   1.117  0.1399 -0.1141  0.0107
 9403W        W24872   0.112  12.955  15.543 -0.1796  0.1155  0.1072
 9404W        W24873  12.679  16.572   4.100  0.0578  0.1809 -0.0762
 9405W        W24874   9.617   4.763  13.809 -0.0326 -0.0509 -0.0586
 9406W        W24875   8.843   9.346   5.359  0.0513  0.3200  0.3999
 9407W        W24876   1.580  14.511   1.446  0.1252 -0.1744 -0.0663
 9408W        W24877   3.114  12.367   5.324 -0.0988 -0.0456 -0.1885
 9409W        W24878   0.489   8.094   4.940 -0.4642  0.0840  0.1278
 9410W        W24879   1.208   4.543  13.746 -0.0368  0.0141 -0.1953
 9411W        W24880  11.953   8.188   2.030  0.0606  0.0814 -0.0447
 9412W        W24881  12.434   5.999   2.362 -0.1289 -0.0372 -0.0678
 9413W        W24882   0.059   5.006  14.132  0.0275  0.0986 -0.2206
 9414W        W24883   2.158   5.080  14.935  0.1446  0.0037  0.2272
 9415W        W24884  13.696   9.107  11.483 -0.3567  0.0696  0.0947
 9416W        W24885  18.289   2.368  11.449  0.0112 -0.0851 -0.1773
 9417W        W24886  16.886  15.210   0.387  0.0838  0.0960 -0.0688
 9418W        W24887  11.545   8.208   4.761  0.0199 -0.1016 -0.3020
 9419W        W24888  12.968   5.815  15.269 -0.1141 -0.1173 -0.1263
 9420W        W24889  13.427  13.323  12.074 -0.2326  0.0787 -0.0088
 9421W        W24890   3.159   7.986  13.712  0.0345  0.1939 -0.1104
 9422W        W24891   0.345   3.730   9.793 -0.2964 -0.0982  0.0575
 9423W        W24892   7.478  10.144   4.711 -0.0905  0.2075  0.3619
 9424W        W24893   4.528  11.908  10.042 -0.1570 -0.2185 -0.0667
 9425W        W24894   6.147   8.767   4.593  0.0654 -0.2332  0.1721
 9426W        W24895  14.372  12.657   3.720  0.0387  0.1302  0.1342
 9427W        W24896  11.204   0.096   0.320  0.0005  0.0687  0.0317
 9428W        W24897  18.018  16.721  12.519  0.0759  0.2076 -0.0725
 9429W        W24898  13.560   9.419  14.129  0.1131  0.3574  0.0518
 9430W        W24899   7.808  14.895  10.756  0.0323 -0.5130 -0.1347
 9431W        W24900   9.743   8.803   1.072  0.2758 -0.1210 -0.0742
 9432W        W24901  13.891  16.806  13.053 -0.0766  0.2288 -0.1604
 9433W        W24902   8.920   5.747  12.811 -0.0223 -0.0950  0.4225
 9434W        W24903  18.367   7.142   3.484 -0.1020 -0.0485 -0.2480
 9435W        W24904   8.312   9.492   2.122  0.2646 -0.0321 -0.0035
 9436W        W24905   9.769   5.700  14.807  0.3191 -0.0933 -0.1077
 9437W        W24906  14.958  13.266  15.476 -0.0557 -0.3183 -0.1055
 9438W        W24907  12.637   1.441  13.737  0.0948  0.1363  0.1643
 9439W        W24908   2.405  16.068  15.640  0.2263 -0.0891 -0.0349
 9440W        W24909  17.892  13.757  13.847  0.1693 -0.1680  0.2554
 9441W        W24910   6.182  17.302  15.461  0.1513 -0.0127 -0.1285
 9442W        W24911   8.708  11.918  10.616 -0.1533  0.2124 -0.1015
 9443W        W24912   3.437   0.634  13.580  0.1057  0.1198  0.3904
 9444W        W24913  14.001  11.452  15.699  0.2443 -0.1243 -0.1221
 9445W        W24914   0.659   6.021  10.111  0.0374  0.0606  0.3697
 9446W        W24915  15.943   7.737  12.005 -0.2487  0.2497  0.2632
 9447W        W24916  12.423  17.426   4.839 -0.1579  0.0604  0.2996
 9448W        W24917   5.156   8.115  14.024 -0.0934 -0.0414  0.2936
 9449W        W24918   8.180  14.810  10.460  0.1236 -0.1087  0.1543
 9450W        W24919   0.789   0.525  12.159 -0.2971 -0.2169 -0.4420
 9451W        W24920   7.412  10.228  12.209 -0.0999 -0.0966  0.2565
 9452W        W24921   9.812   5.960   4.749 -0.1583 -0.0352  0.0337
 9453W        W24922  13.684   1.102  10.652  0.1668  0.4124 -0.0910
 9454W        W24923  11.233  11.193  15.365 -0.3208 -0.2589 -0.1304
 9455W        W24924   7.521   3.653   2.509 -0.1176 -0.0077  0.0736
 9456W        W24925  13.782   1.748  12.888 -0.4204  0.1700  0.3752
 9457W        W24926  15.865   6.686  15.547  0.0878 -0.2152 -0.0834
 9458W        W24927  12.252   5.164  12.531  0.0219 -0.1954 -0.4456
 9459W        W24928  12.333   1.983   0.592  0.0212  0.0598 -0.1297
 9460W        W24929   9.232  15.996   4.849 -0.0558  0.3065  0.2600
 9461W        W24930  16.377   7.860   1.782  0.1400  0.1419  0.0271
 9462W        W24931   4.378  18.166   3.362  0.1233 -0.1722 -0.0881
 9463W        W24932   6.941  13.279  12.814  0.1719 -0.1389 -0.0294
 9464W        W24933  16.715  10.575   0.963  0.0135 -0.0226 -0.2089
 9465W        W24934  16.537   5.583  12.939 -0.0933 -0.3255 -0.2026
 9466W        W24935   0.322  13.683  12.591  0.1192 -0.1494 -0.0799
 9467W        W24936  13.642   4.245  12.926  0.0819  0.0054 -0.0449
 9468W        W24937  11.065  10.835   0.719 -0.4704  0.3711 -0.0151
 9469W        W24938  11.956  11.495   2.910 -0.1122  0.1194 -0.0597
 9470W        W24939  11.879  16.883  12.653  0.0012  0.3543  0.2507
 9471W        W24940  13.705   2.172  15.151  0.1076 -0.4344  0.0802
 9472W        W24941   1.041   1.652   0.065 -0.2739 -0.0140 -0.0958
 9473W        W24942   1.407  17.120  15.793 -0.0254 -0.0529  0.3206
 9474W        W24943   6.079   7.785  15.134  0.0604 -0.0418  0.0735
 9475W        W24944   7.939  15.202   4.187 -0.1707  0.1818 -0.0001
 9476W        W24945  15.982  17.301   0.478  0.4719  0.3504  0.2441
 9477W        W24946   8.729  16.477  13.913 -0.0330 -0.3129  0.4305
 9478W        W24947   5.189   1.179  15.548  0.1011  0.0335  0.2099
 9479W        W24948  18.275   1.608   3.298  0.3777 -0.1528 -0.0389
 9480W        W24949   2.919   7.196   3.449  0.2598 -0.3053 -0.1115
 9481W        W24950  14.863  17.064   4.310  0.0479 -0.1622  0.2348
 9482W        W24951  10.329  16.115  13.922 -0.2950 -0.1402  0.1195
 9483W        W24952  12.515   4.971   2.583 -0.0248  0.1232 -0.1260
 9484W        W24953  10.473   1.050  12.822  0.1549  0.0678  0.3470
 9485W        W24954   7.649  13.269  13.021  0.2126 -0.1219  0.1067
 9486W        W24955   5.885   0.826   5.366 -0.0341  0.2456  0.0800
 9487W        W24956   6.439   5.649   1.387  0.1704 -0.3328 -0.0179
 9488W        W24957   0.558  12.675   5.085 -0.1102 -0.1693  0.1464
 9489W        W24958  13.250  10.831  11.812 -0.2067  0.2072 -0.2615
 9490W        W24959   4.937  17.668   4.010 -0.2503  0.1391  0.0583
 9491W        W24960  14.420  15.692   4.982  0.1365 -0.1595 -0.2371
 9492W        W24961  11.079   9.422  13.528 -0.0849  0.0495  0.1240
 9493W        W24962   4.919  10.737  12.630  0.1902  0.0569 -0.0807
 9494W        W24963   5.716   8.788   3.312  0.3024  0.0949 -0.2939
 9495W        W24964   2.463   5.636   5.561 -0.0261 -0.2627 -0.2479
 9496W        W24965  15.764  14.190  15.665  0.1264 -0.0621  0.0937
 9497W        W24966   4.449  15.491   5.624  0.0820  0.0150  0.0221
 9498W        W24967  10.091   3.976   2.358  0.1231  0.0640 -0.1819
 9499W        W24968  12.542   7.077   3.423 -0.2244 -0.3152 -0.2664
 9500W        W24969   8.701  18.167  13.167 -0.0989 -0.0453 -0.0213
 9501W        W24970  17.395   4.240  10.825  0.1126  0.3379  0.0538
 9502W        W24971  12.231   8.047   0.035 -0.0164  0.2232  0.3429
 9503W        W24972   9.988  10.594  15.012  0.0637 -0.0360  0.0057
 9504W        W24973   4.603  16.818  12.446  0.2683 -0.1374 -0.1700
 9505W        W24974   4.810  16.825   4.675  0.0987  0.0174  0.0487
 9506W        W24975   4.904   2.101   3.885 -0.3597 -0.0860 -0.1490
 9507W        W24976  14.304  16.357   1.710  0.4183 -0.0050  0.1032
 9508W        W24977  18.200   5.012  13.667  0.2394  0.3102  0.0470
 9509W        W24978   7.185  13.026   1.147  0.0339 -0.1884 -0.1704
 9510W        W24979  10.890  18.128   3.875 -0.2369  0.0649  0.2994
 9511W        W24980  14.747  10.990   3.243 -0.1863  0.0151  0.0567
 9512W        W24981  14.690  15.667  14.387 -0.1259 -0.3381  0.2863
 9513W        W24982  16.027  13.143   1.497  0.2950  0.3699 -0.0830
 9514W        W24983   7.996  10.061   4.592  0.0380 -0.3000  0.2540
 9515W        W24984  10.471  16.141   1.076 -0.2256 -0.0200  0.2579
 9516W        W24985  14.032   2.282   4.861  0.3883 -0.0020 -0.0699
 9517W        W24986  10.250  12.954   4.210 -0.3666 -0.1074  0.0883
 9518W        W24987   4.111  17.399   5.072 -0.1793 -0.1250 -0.0989
 9519W        W24988  18.308  10.553  13.653 -0.3518 -0.2283 -0.0972
 9520W        W24989   1.147  15.100   0.938 -0.2827  0.0661  0.1143
 9521W        W24990  17.766  16.641   1.586 -0.0325  0.0053  0.1605
 9522W        W24991  12.946  11.610   0.002  0.1069 -0.0819  0.2454
 9523W        W24992  11.245  13.368  12.601 -0.0864  0.0080 -0.0374
 9524W        W24993   2.410   0.667  12.469  0.0953 -0.2303 -0.2700
 9525W        W24994   7.777  18.001   2.973 -0.0616 -0.1056  0.0371
 9526W        W24995   3.887   5.250  11.782  0.0517  0.0542  0.0118
 9527W        W24996   5.594  17.152   4.711 -0.2435 -0.0634  0.0765
 9528W        W24997  16.258   4.867   9.683 -0.2074  0.0019  0.2957
 9529W        W24998  11.201  16.840   0.972  0.2038 -0.0669  0.0608
 9530W        W24999   9.545   9.067   3.864 -0.1258  0.0380 -0.2357
 9531W        W25000   1.899   9.264   2.000  0.1241 -0.0270  0.2419
 9532W        W25001  15.103  15.258   3.407 -0.0629 -0.0920 -0.0074
 9533W        W25002   4.677   9.442  14.440  0.3509  0.0222 -0.2494
 9534W        W25003   6.325  17.436   6.059 -0.0189 -0.1792 -0.0663
 9535W        W25004   6.916  16.721  10.260  0.0924  0.3462 -0.0656
 9536W        W25005  13.010   5.108  13.866  0.0254 -0.1501 -0.1112
 9537W        W25006  16.746   4.718  12.855  0.3611 -0.1272 -0.0880
 9538W        W25007  17.744  17.905  10.770  0.0057 -0.5195 -0.0682
 9539W        W25008   2.299   7.679   4.275  0.1273 -0.1577 -0.2105
 9540W        W25009   0.815  13.709  10.923  0.2651 -0.2684  0.4404
 9541W        W25010   1.317  17.740  12.371 -0.2344  0.1235 -0.3172
 9542W        W25011   7.960   2.131  15.334  0.3148 -0.0243  0.1056
 9543W        W25012   7.386  17.970  11.823 -0.1802  0.1076  0.2253
 9544W        W25013  15.555   9.407   1.517 -0.1232 -0.1109 -0.3930
 9545W        W25014  12.540  10.996   2.109  0.0299  0.0221 -0.0911
 9546W        W25015  13.474   7.561  11.534 -0.0607 -0.4314  0.0524
 9547W        W25016   7.915  10.533   0.564 -0.1792 -0.0454 -0.1139
 9548W        W25017  10.735   0.161  12.352  0.2032  0.0480 -0.2556
 9549W        W25018   5.273   7.533  12.765 -0.3536 -0.2678  0.0661
 9550W        W25019   6.341   1.776  15.385  0.0098  0.1441 -0.1670
 9551W        W25020  17.732   8.343   5.358 -0.0518 -0.2408 -0.0461
 9552W        W25021  10.020  13.766  15.383  0.0347 -0.0889 -0.0526
 9553W        W25022   2.151   5.423  15.338 -0.0260  0.0317  0.1696
 9554W        W25023   7.088  14.276  13.618  0.0932  0.0059  0.0106
 9555W        W25024  14.612  14.312  10.689 -0.0656  0.3127  0.1129
 9556W        W25025  17.901   5.234   3.811  0.0252 -0.2234  0.0816
 9557W        W25026   3.737  13.585   3.523 -0.1067  0.0587  0.0671
 9558W        W25027  18.365  17.746  13.084  0.0332 -0.1964  0.3551
 9559W        W25028   7.142   0.501   0.558 -0.1702  0.2025 -0.2649
 9560W        W25029   4.197  16.515   1.995 -0.0572  0.0253 -0.0410
 9561W        W25030  16.056  15.342  10.670  0.1616  0.1235  0.1257
 9562W        W25031   2.223   1.681   3.544 -0.0545  0.0844 -0.0787
 9563W        W25032   2.236  11.779  12.232  0.4018 -0.0970  0.2033
 9564W        W25033   3.371   4.105   2.098  0.1098 -0.3615  0.2520
 9565W        W25034  16.596   6.392   2.340 -0.0192 -0.3087  0.1049
 9566W        W25035  11.865  10.691   3.209 -0.0452  0.0407 -0.0291
 9567W        W25036  11.899  10.594   5.033 -0.2145  0.1953 -0.1134
 9568W        W25037   2.170  16.266   9.946 -0.0285  0.2344 -0.1357
 9569W        W25038  11.099  15.139  12.098  0.4378  0.3897 -0.1184
 9570W        W25039  15.514   4.529   4.814  0.3271  0.0840 -0.1159
 9571W        W25040   7.999  17.428   2.902 -0.0836 -0.1880 -0.1245
 9572W        W25041  15.358   6.052   4.068  0.0202  0.0189 -0.3357
 9573W        W25042   3.138   5.509   5.162  0.3193 -0.2564  0.2079
 9574W        W25043   0.002   0.022  12.640 -0.0518 -0.2072 -0.2377
 9575W        W25044  17.063   5.072   4.835 -0.2668  0.2081  0.0899
 9576W        W25045   3.877   7.140   1.226  0.1725 -0.2574  0.1584
 9577W        W25046   0.192  15.510  12.362 -0.1383  0.2099  0.4516
 9578W        W25047  13.488   8.667  11.696  0.0692  0.1032  0.0859
 9579W        W25048  14.807   9.861  13.655 -0.0172 -0.0220 -0.1925
 9580W        W25049   0.143   3.722   3.749  0.1618  0.0583 -0.2428
 9581W        W25050  12.834  15.260   2.552  0.0602  0.0809  0.2660
 9582W        W25051   9.397  13.671  13.041  0.0368 -0.1593 -0.0652
 9583W        W25052   9.496   8.942  12.475 -0.1213 -0.1037 -0.0299
 9584W        W25053  15.833  15.523  11.987 -0.3263 -0.1081 -0.1401
 9585W        W25054  10.146  16.465  12.504 -0.0864  0.0710  0.0279
 9586W        W25055  17.810   5.526   1.169 -0.3197  0.0178 -0.0156
 9587W        W25056  10.490  13.885   2.668 -0.2862  0.0669  0.0797
 9588W        W25057   7.233  13.962  11.494  0.2916 -0.1217 -0.0135
 9589W        W25058   9.619   0.967   4.493  0.0781  0.0817 -0.3639
 9590W        W25059   0.181  11.876   4.220  0.3137  0.1361 -0.4131
 9591W        W25060  15.850  16.738  13.607  0.0828 -0.1298 -0.2645
 9592W        W25061  11.397  14.031  14.739  0.0092 -0.1227  0.0726
 9593W        W25062  13.703  16.334  10.857 -0.0131 -0.2780  0.1620
 9594W        W25063   6.778   6.526   1.022 -0.0510 -0.0042  0.2290
 9595W        W25064   5.891  16.165  14.009  0.3834 -0.2306 -0.0233
 9596W        W25065  13.039   9.673  10.978 -0.1418 -0.1498  0.1121
 9597W        W25066  17.014   1.825   2.671  0.1396  0.0084 -0.2269
 9598W        W25067   1.566  15.708   0.770 -0.0637 -0.2845 -0.1468
 9599W        W25068   7.777  11.094  11.059 -0.2923  0.0035 -0.0307
 9600W        W25069   6.976   0.257   4.912  0.0300  0.3524  0.1550
 9601W        W25070   4.410   4.652  10.755 -0.0497  0.0557  0.2907
 9602W        W25071  13.404  13.031  10.827 -0.0563  0.1664  0.1210
 9603W        W25072  16.032   2.109   0.709 -0.1428  0.2789  0.2093
 9604W        W25073   0.644  14.098  13.757  0.1124 -0.2489  0.1098
 9605W        W25074   5.798   0.865  10.248 -0.3110 -0.1871 -0.3417
 9606W        W25075   1.152   0.893   1.914 -0.2159  0.3992  0.3778
 9607W        W25076   3.666   6.123  14.393 -0.1181  0.0327  0.1226
 9608W        W25077   1.929   8.719  12.237 -0.2192 -0.1028  0.0676
 9609W        W25078  12.214   1.382  13.331 -0.1363 -0.1726 -0.0451
 9610W        W25079   7.033  13.919   2.349 -0.0021  0.3496 -0.0624
 9611W        W25080   0.427  16.694  13.095  0.0419  0.0019 -0.1954
 9612W        W25081  17.279  10.105  12.144  0.0831  0.0882 -0.4426
 9613W        W25082   1.394   3.982  14.449  0.3105 -0.1127  0.0996
 9614W        W25083  14.148   1.919  13.187  0.0120  0.0550 -0.1403
 9615W        W25084   5.358   3.632   1.826  0.1995  0.0870  0.1355
 9616W        W25085   7.626   9.210   4.438  0.0189 -0.2873 -0.2079
 9617W        W25086  11.400   1.198   4.834  0.0410  0.2459  0.0769
 9618W        W25087   2.237   4.525   3.868  0.0116  0.0070 -0.2433
 9619W        W25088  16.884   0.456   1.042  0.0129 -0.0040  0.0399
 9620W        W25089  10.375  12.300  11.407 -0.0147  0.3250  0.2263
 9621W        W25090   3.523   1.810  12.290 -0.2068  0.0831  0.4529
 9622W        W25091   3.451   0.615   5.132 -0.0720  0.2546 -0.1236
 9623W        W25092   6.383   1.005   2.680  0.2330  0.3438  0.2196
 9624W        W25093  17.800   0.042   0.120 -0.0766 -0.1724  0.5905
 9625W        W25094   2.067  14.839   4.128 -0.3439  0.1165  0.2541
 9626W        W25095   1.351  13.742  15.590 -0.0686 -0.0358 -0.0271
 9627W        W25096  16.436  18.295   1.712 -0.0130  0.1132 -0.1409
 9628W        W25097  11.014  16.966  15.577  0.1108 -0.5263 -0.1789
 9629W        W25098  10.670   4.261   1.008  0.2311  0.1708  0.0381
 9630W        W25099  17.138   2.517  10.856 -0.1045  0.2061 -0.2532
 9631W        W25100   0.387   6.042  13.810  0.2805 -0.0822 -0.1184
 9632W        W25101  14.170   6.607  15.750  0.2466 -0.2708  0.3635
 9633W        W25102   6.001  18.320  14.072  0.1276  0.0739 -0.0519
 9634W        W25103  17.018   5.637  11.334  0.0178  0.1198 -0.3111
 9635W        W25104  10.605   3.935   5.393  0.1093 -0.3753  0.0535
 9636W        W25105   4.912  17.158  14.861 -0.0801 -0.5223  0.0862
 9637W        W25106  13.468  17.490  10.051  0.0770  0.2033  0.1843
 9638W        W25107  15.056   1.246   5.026  0.0778 -0.0267  0.3029
 9639W        W25108  16.600  16.426  14.715 -0.0491 -0.0967 -0.0566
 9640W        W25109  10.756   7.014  15.361 -0.3423 -0.1686 -0.1352
 9641W        W25110   7.218   5.666   0.682 -0.3644  0.1026 -0.0901
 9642W        W25111  12.761   8.398  12.194  0.0990 -0.2208  0.1879
 9643W        W25112  17.716  11.454   5.389 -0.0207 -0.3010 -0.1566
 9644W        W25113  18.291  12.746   1.516  0.3292  0.1361  0.1585
 9645W        W25114  13.845   6.460   2.639 -0.0416 -0.2351 -0.0911
 9646W        W25115   0.682  11.307   2.698 -0.2387  0.0791  0.0390
 9647W        W25116   0.810  13.690  12.546  0.3387 -0.0835 -0.0855
 9648W        W25117  15.462   6.236  13.674 -0.1300 -0.1201 -0.1289
 9649W        W25118  10.773   6.961   4.070 -0.1118  0.0399 -0.3430
 9650W        W25119  11.871   0.832  12.634  0.1022  0.0788  0.1457
 9651W        W25120   9.519  16.952  15.243 -0.3085  0.2879  0.1877
 9652W        W25121   5.911   0.902   4.294  0.0003  0.1762 -0.2963
 9653W        W25122  18.241  17.268   2.877 -0.0236  0.1956  0.1047
 9654W        W25123   5.893  14.513  15.157  0.2000  0.1260 -0.1596
 9655W        W25124   4.645   3.436   0.677  0.1091 -0.0741 -0.1138
 9656W        W25125  10.590   5.293   1.420  0.3250  0.0968 -0.0555
 9657W        W25126   6.930   8.659   0.494 -0.1811 -0.0421  0.1053
 9658W        W25127   2.239   5.224  13.438  0.3647  0.0993 -0.1452
 9659W        W25128  10.667  11.660  12.044 -0.3650 -0.0941 -0.0886
 9660W        W25129  14.567   3.254   0.588  0.1667 -0.1528  0.0965
 9661W        W25130   1.060   8.115  12.215  0.2153  0.3235  0.1761
 9662W        W25131   4.074  17.184  11.799  0.1216 -0.1926  0.0392
 9663W        W25132  18.153   1.553   1.502  0.2759 -0.0431  0.4185
 9664W        W25133   2.450   1.173  12.542 -0.2277  0.0880  0.0574
 9665W        W25134  17.554  17.970   3.045 -0.1138 -0.1190  0.3873
 9666W        W25135   3.325   5.349  10.464  0.1663  0.0650  0.0617
 9667W        W25136   0.854  16.998   1.501 -0.0802  0.2753 -0.0467
 9668W        W25137   8.458  11.674   0.623 -0.2158  0.4367 -0.0367
 9669W        W25138   0.859   3.632   4.319  0.4936  0.0700  0.2564
 9670W        W25139  13.005  18.459   2.653 -0.1786 -0.1937 -0.0048
 9671W        W25140   0.958   0.802  15.282 -0.1297  0.4690  0.2596
 9672W        W25141   2.384  11.851   1.315  0.1977  0.3097  0.0019
 9673W        W25142  12.750   3.991   4.621  0.2041 -0.1335 -0.2853
 9674W        W25143   5.136   6.034   1.576 -0.2657 -0.1380  0.3488
 9675W        W25144  11.521  14.341  13.610 -0.0217  0.0582  0.0728
 9676W        W25145   2.205   6.919   2.888 -0.1965  0.1579  0.2244
 9677W        W25146   0.602   8.133   2.083 -0.1503  0.0531  0.0465
 9678W        W25147   7.203   6.069   0.965  0.1553  0.0286 -0.1425
 9679W        W25148   6.768   5.173   4.870 -0.0727 -0.0363 -0.0105
 9680W        W25149   5.455  17.006  15.463 -0.0797  0.0593 -0.0253
 9681W        W25150   7.688   8.979   3.101 -0.1324 -0.2877 -0.3548
 9682W        W25151  10.265   1.224  11.946 -0.1933 -0.0255 -0.3154
 9683W        W25152   7.957  11.818   2.139  0.0576  0.0545 -0.1592
 9684W        W25153  13.471   9.806  13.265 -0.4025 -0.1365  0.0752
 9685W        W25154   2.279   9.124  12.259  0.0964  0.1148 -0.1739
 9686W        W25155   5.010   0.616  13.308 -0.1685  0.0205 -0.1949
 9687W        W25156  12.774   7.854   1.652  0.0734 -0.0436 -0.0848
 9688W        W25157   9.448  15.196   5.792 -0.0437  0.2593  0.0873
 9689W        W25158  15.866   7.926   1.758 -0.0746  0.1729 -0.0656
 9690W        W25159  13.310   7.249  13.981  0.2109 -0.0408 -0.1094
 9691W        W25160   7.816   2.589   3.474  0.5345 -0.1217 -0.0299
 9692W        W25161   2.500   4.266  11.140 -0.2342  0.1172 -0.1111
 9693W        W25162   2.849  12.311  12.669 -0.0392  0.2297  0.0500
 9694W        W25163   4.484  10.276  14.163  0.2223  0.2244  0.0925
 9695W        W25164  11.904  15.111   4.247  0.1092  0.0500  0.3036
 9696W        W25165  10.109  14.737   0.986  0.1738  0.1033  0.2718
 9697W        W25166  17.042  12.939  13.961 -0.3055  0.0140  0.0245
 9698W        W25167   7.707  12.961   1.347 -0.0941 -0.0758 -0.1803
 9699W        W25168  11.584  10.725   0.735  0.2327  0.0014  0.2833
 9700W        W25169  14.105   6.825   2.988  0.2331 -0.2627  0.2892
 9701W        W25170  10.585   4.118   4.900 -0.0169  0.2838  0.3236
 9702W        W25171   2.165   4.393   5.778 -0.1744  0.2352  0.2812
 9703W        W25172  10.861   8.548  12.319 -0.0683 -0.1235 -0.0306
 9704W        W25173   6.394  12.071  13.940  0.0678 -0.3224 -0.1074
 9705W        W25174  15.617   4.847   1.253  0.3171  0.1779 -0.1968
 9706W        W25175   9.685  16.598   4.222  0.1283  0.0958 -0.1833
 9707W        W25176  15.953  10.733  12.213  0.0349 -0.0305 -0.2779
 9708W        W25177  11.955  16.627   3.119 -0.0767 -0.0306 -0.0134
 9709W        W25178   5.562   8.560   0.308 -0.1215  0.2585  0.0658
 9710W        W25179  17.473   1.911   4.165  0.1448  0.0353  0.0106
 9711W        W25180   3.120   7.082  13.581  0.2144  0.0140  0.2354
 9712W        W25181  15.359   4.158   0.190  0.2629  0.1468 -0.0811
 9713W        W25182   4.116   5.628   5.673 -0.0674 -0.1295  0.2837
 9714W        W25183   9.385  16.275   2.381 -0.1047  0.0149  0.1364
 9715W        W25184   9.569   2.810  14.344  0.0054 -0.1907 -0.2474
 9716W        W25185   3.908  13.615   5.986 -0.2785 -0.1821 -0.1696
 9717W        W25186   0.259  17.923   3.839  0.0969 -0.0959 -0.2371
 9718W        W25187   1.649   7.087   4.741 -0.3281  0.0545 -0.3440
 9719W        W25188  13.910   8.810   0.167  0.3214  0.1219  0.0888
 9720W        W25189  14.689   8.812  11.389 -0.0175  0.1321 -0.0059
 9721W        W25190   9.044  10.465   3.064  0.1361 -0.0817  0.4411
 9722W        W25191   8.847   6.558   4.824  0.0809 -0.0378 -0.1913
 9723W        W25192  16.323   4.782   3.202 -0.1108 -0.0389 -0.1643
 9724W        W25193   0.255   3.584  12.921  0.1829 -0.0713  0.1504
 9725W        W25194  13.344   2.191  13.724  0.1278  0.2620  0.2144
 9726W        W25195   9.977   1.087   2.216  0.1726  0.0356 -0.5630
 9727W        W25196   9.891  15.832   6.333 -0.0589 -0.4810  0.0605
 9728W        W25197   7.980   7.104   4.123  0.0092 -0.1500 -0.2105
 9729W        W25198  12.700  13.593  13.597  0.2359  0.3158  0.0553
 9730W        W25199   6.922   9.205   3.669 -0.0352  0.0154 -0.1497
 9731W        W25200  18.215   8.444  10.754 -0.2880 -0.2325 -0.4225
 9732W        W25201   3.132   6.600  13.199  0.3373 -0.0490 -0.0543
 9733W        W25202   7.184   1.274  14.450  0.5103 -0.3097  0.1599
 9734W        W25203   4.873   1.618   0.480 -0.1325  0.0046  0.0379
 9735W        W25204  12.499   5.394   1.750 -0.0245  0.0114  0.2039
 9736W        W25205   3.613   1.055  15.296 -0.1488 -0.0344 -0.1629
 9737W        W25206   6.287   6.298   0.978  0.4335 -0.0806  0.0095
 9738W        W25207  13.274  15.207   4.979  0.0158  0.0272  0.0977
 9739W        W25208  15.829  16.041   1.281 -0.0486  0.2472  0.2645
 9740W        W25209  14.889   6.491   2.912  0.1634 -0.0608  0.0606
 9741W        W25210  12.640  10.581  11.269 -0.1080 -0.1645 -0.0608
 9742W        W25211   3.563   6.701  15.889  0.2288 -0.1479 -0.4012
 9743W        W25212  13.716   9.404   1.332 -0.0455  0.0292 -0.0019
 9744W        W25213  17.642   4.723   2.151 -0.1291  0.1694 -0.0926
 9745W        W25214  10.577   6.202   2.517 -0.2110 -0.0016 -0.3393
 9746W        W25215  13.186  11.354  13.947  0.0343 -0.2761  0.0557
 9747W        W25216  14.993   6.711  14.952 -0.1622 -0.0011 -0.0955
 9748W        W25217   6.412  10.675  15.675  0.0266 -0.0248  0.1493
 9749W        W25218   9.944  18.196  11.778  0.0639 -0.2624 -0.0390
 9750W        W25219   7.045   0.647  12.708  0.2169  0.0829 -0.1361
 9751W        W25220   8.491   0.555  12.875  0.0517  0.1437 -0.1230
 9752W        W25221   0.063   5.864   4.312 -0.1802 -0.1665 -0.0390
 9753W        W25222  16.911  13.574   4.906  0.1441 -0.0524  0.0091
 9754W        W25223  17.721   9.808  12.204 -0.1531 -0.1954  0.1162
 9755W        W25224   7.789   8.201  14.613  0.2574 -0.1359 -0.2830
 9756W        W25225   2.354   8.404  10.875  0.0281  0.2978 -0.1820
 9757W        W25226  17.158  13.443   0.028 -0.0256 -0.0499  0.1229
 9758W        W25227  11.026   2.868   0.286  0.0553  0.2297 -0.0705
 9759W        W25228  11.455   7.897  14.486 -0.0235 -0.3109  0.0054
 9760W        W25229  18.446  10.731   2.312  0.4061  0.0721 -0.1409
 9761W        W25230   1.736   3.881   1.954  0.1471 -0.2603  0.1247
 9762W        W25231  16.795   0.746  11.651 -0.2174 -0.2128 -0.2012
 9763W        W25232   9.439   8.061   1.689  0.1829 -0.0593  0.1329
 9764W        W25233   5.391  16.154  14.838 -0.1310 -0.1148  0.2425
 9765W        W25234  16.576  10.848   2.617 -0.1108 -0.2110 -0.1999
 9766W        W25235   9.489   2.709  13.682  0.2536 -0.1775  0.1056
 9767W        W25236   0.736  13.559  11.991 -0.2406  0.2095 -0.1636
 9768W        W25237   1.222   9.820  15.240  0.0128  0.3637  0.1352
 9769W        W25238   1.131  16.103  12.997 -0.0816 -0.3331 -0.0882
 9770W        W25239  18.148   8.421   3.030  0.0797 -0.1339 -0.1310
 9771W        W25240  13.744  12.491   2.010 -0.2931 -0.1467 -0.0232
 9772W        W25241   2.415   0.723   0.213 -0.1957  0.1377 -0.1438
 9773W        W25242  13.418  16.931  13.053  0.1467  0.0789 -0.0192
 9774W        W25243  10.590   7.672   3.779 -0.0491  0.0104 -0.3828
 9775W        W25244   9.212   9.113  13.793  0.1624  0.1830  0.1968
 9776W        W25245   1.211   8.276   4.185  0.0964  0.3375 -0.0916
 9777W        W25246   7.105   0.839   0.915 -0.0432  0.2497 -0.2346
 9778W        W25247   0.064   0.157   4.902  0.0616  0.0562  0.0027
 9779W        W25248  12.518   8.801   2.101  0.1975 -0.0241 -0.0873
 9780W        W25249   3.562   7.321   1.577 -0.2127 -0.0598 -0.1386
 9781W        W25250  13.760   6.232   1.683 -0.1666 -0.1221 -0.2263
 9782W        W25251   7.738  11.542  10.930  0.4109  0.1662  0.0939
 9783W        W25252  16.218   4.232  15.860  0.0674 -0.3357 -0.1371
 9784W        W25253  16.730   6.658  10.809 -0.0742  0.2581  0.2152
 9785W        W25254   0.826   7.707  11.738  0.3342  0.0415  0.0970
 9786W        W25255   1.605   1.668   1.383 -0.0241 -0.2308  0.0036
 9787W        W25256  10.936   1.349  11.944  0.1268  0.3630  0.0676
 9788W        W25257  14.376   3.514   4.778  0.2709  0.0260  0.1821
 9789W        W25258  18.358  16.669  12.170 -0.2248  0.1823  0.1047
 9790W        W25259   6.023   8.638  14.120  0.1119  0.2135  0.0339
 9791W        W25260  13.942  15.266   3.701 -0.0471 -0.0197 -0.1031
 9792W        W25261   3.523  11.137   3.732 -0.2586  0.1649  0.1908
 9793W        W25262   7.226   8.056  11.881  0.2590 -0.1499  0.0483
 9794W        W25263   8.204   3.338  12.872  0.1008 -0.1606  0.0493
 9795W        W25264   2.052  13.159   3.084  0.3459 -0.0187  0.0602
 9796W        W25265  17.884  14.639  11.077  0.0403  0.1485 -0.1385
 9797W        W25266   3.821  16.748   0.970  0.1227  0.3309  0.1742
 9798W        W25267   2.613   5.029   5.052 -0.0448 -0.0286 -0.0050
 9799W        W25268   8.320   6.344   0.449  0.0977 -0.2579 -0.0456
 9800W        W25269  17.487   6.099  14.113  0.0042 -0.0046  0.3423
 9801W        W25270  15.826   6.076   0.456 -0.0531  0.0130  0.1174
 9802W        W25271  12.633   3.868  11.141 -0.1223 -0.0915 -0.2311
 9803W        W25272   6.453   6.685   1.468 -0.0366 -0.1460 -0.5619
 9804W        W25273   2.731   2.989   2.015 -0.0270  0.0402 -0.1600
 9805W        W25274   6.368   7.580   5.012  0.3137  0.2070  0.0603
 9806W        W25275   9.219  14.372   5.083  0.1367  0.0033 -0.1402
 9807W        W25276  11.008   3.128  15.033 -0.0561 -0.1660 -0.0934
 9808W        W25277  18.336  17.960   3.436  0.0561  0.0749  0.0861
 9809W        W25278  16.847  11.744  13.519  0.1002 -0.0943 -0.1076
 9810W        W25279   9.649  10.916  11.447 -0.1399  0.0197 -0.0930
 9811W        W25280   3.555   4.713   3.956  0.2539 -0.2719 -0.0462
 9812W        W25281  15.471   1.912  12.316  0.1838 -0.0186  0.2010
 9813W        W25282  18.455   9.272  15.719 -0.0970 -0.0357  0.2066
 9814W        W25283  10.272   1.963   3.028  0.2662  0.0211 -0.1863
 9815W        W25284   9.191   0.423   0.925  0.2446 -0.1598 -0.0390
 9816W        W25285  10.359  16.919  12.786 -0.0451  0.1679 -0.3206
 9817W        W25286   9.444  12.068   3.405 -0.0881  0.0437  0.1840
 9818W        W25287   4.769   7.460   3.677 -0.0692 -0.1997  0.1269
 9819W        W25288  16.380   7.217  13.035  0.3428 -0.1673  0.0759
 9820W        W25289   5.080  17.528  14.594  0.2998 -0.2879  0.0502
 9821W        W25290   6.380   1.970  10.822 -0.1821 -0.1113  0.1704
 9822W        W25291  17.443   9.767  14.827  0.0516  0.0401 -0.2882
 9823W        W25292  16.187  17.453  11.153  0.1155 -0.0153  0.3556
 9824W        W25293   7.743  14.655  12.184 -0.0643 -0.3118 -0.0610
 9825W        W25294   2.425   5.489  10.583  0.0789 -0.0325  0.0405
 9826W        W25295  16.766   0.519  15.376  0.0624  0.0166  0.1327
 9827W        W25296  17.880  15.454  13.376  0.2467 -0.1336  0.1915
 9828W        W25297  10.883   9.408  11.021  0.0252 -0.2826  0.0817
 9829W        W25298   9.858  13.834   3.231 -0.0774  0.2013  0.5898
 9830W        W25299   7.839  12.941  13.957 -0.1715  0.1966 -0.0657
 9831W        W25300   6.187  14.533  12.056 -0.0504 -0.0350  0.1282
 9832W        W25301   7.391  12.587   1.216  0.2699  0.3103 -0.2275
 9833W        W25302   7.963  10.928   3.217  0.3319 -0.0989 -0.3088
 9834W        W25303   6.348   5.085  14.126 -0.1450  0.1474 -0.2373
 9835W        W25304  18.443   3.336   3.505 -0.1935 -0.3528 -0.2070
 9836W        W25305   7.848   7.551   4.994 -0.0809  0.0187  0.0020
 9837W        W25306   2.579   4.676   3.545 -0.1750 -0.1696  0.1386
 9838W        W25307  10.065  13.252   5.100 -0.2130 -0.1029 -0.1895
 9839W        W25308   3.517   3.352   2.203 -0.2264 -0.4047 -0.0998
 9840W        W25309   4.374   1.923  13.333  0.2156 -0.2522 -0.1752
 9841W        W25310   1.993  13.906  12.347 -0.1635  0.1910  0.0573
 9842W        W25311   1.352   4.316   3.968 -0.1021  0.1608 -0.2912
 9843W        W25312   9.690  13.512  11.919 -0.0251  0.0998 -0.1876
 9844W        W25313  12.120  10.992   1.495  0.1066  0.0026  0.3067
 9845W        W25314   0.651   9.423   3.736  0.1492 -0.2958 -0.2192
 9846W        W25315  10.956   2.306   4.551 -0.0890 -0.0137  0.1005
 9847W        W25316  12.208   0.447  12.881 -0.0636  0.2387 -0.1177
 9848W        W25317  13.219   5.381   5.005 -0.2102 -0.6231 -0.1224
 9849W        W25318   1.040  10.898   0.168  0.1814 -0.2082  0.0642
 9850W        W25319   4.215   8.609   1.912 -0.1536 -0.1702 -0.2197
 9851W        W25320  15.037   2.820  13.884 -0.2318 -0.3543  0.2238
 9852W        W25321  10.453   4.416  11.565 -0.0043  0.0858 -0.1522
 9853W        W25322  15.982   6.073   2.686 -0.1053  0.1994 -0.2195
 9854W        W25323   2.844  10.538   0.456  0.3537 -0.0182 -0.1768
 9855W        W25324   8.223   6.601  14.791 -0.0978  0.0304  0.0799
 9856W        W25325   2.312  12.823   1.265 -0.0588 -0.1360 -0.2324
 9857W        W25326  13.206  12.363   0.408 -0.1907 -0.0125  0.3727
 9858W        W25327   8.581   0.313  15.143 -0.0822 -0.0187 -0.1313
 9859W        W25328   0.987   8.280   4.805 -0.3023  0.1962 -0.0012
 9860W        W25329  17.956  18.467   1.251 -0.1039  0.1377  0.1719
 9861W        W25330   7.279  17.305  13.806  0.0494  0.0771  0.1565
 9862W        W25331   1.572   3.456   1.541 -0.1550  0.0309  0.3177
 9863W        W25332  16.930  12.872   1.591 -0.0922 -0.3584 -0.0271
 9864W        W25333   7.755   6.362   3.817  0.1190 -0.0290 -0.3112
 9865W        W25334  14.783  12.270   3.865 -0.1082  0.0648 -0.0927
 9866W        W25335   3.758  11.053   0.374 -0.1112 -0.1754  0.0644
 9867W        W25336   2.307   6.143  14.839 -0.0440  0.0096  0.0184
 9868W        W25337   7.355  10.581  11.830 -0.2353  0.1335  0.1846
 9869W        W25338  15.894  17.429   4.870 -0.2866 -0.1349 -0.3381
 9870W        W25339   2.859   9.186  15.734  0.0250 -0.4975 -0.0698
 9871W        W25340   8.481   2.229   2.988  0.1749  0.0239  0.0655
 9872W        W25341  14.207   1.547   9.780 -0.1434  0.1439  0.2537
 9873W        W25342   8.949  12.650  10.931  0.0560 -0.0458 -0.3247
 9874W        W25343   3.798  17.574  13.625 -0.0291 -0.1554  0.1935
 9875W        W25344   3.529   8.714   4.656  0.4194  0.0540 -0.1210
 9876W        W25345  12.550  14.143   3.857  0.2066 -0.1711  0.0836
 9877W        W25346   9.652   9.522   2.896 -0.0092 -0.0727  0.1953
 9878W        W25347  11.334   9.327  12.009 -0.0992  0.1755 -0.2060
 9879W        W25348   6.098  17.345   3.054 -0.0170  0.0954  0.0524
 9880W        W25349  17.555   8.957  10.240  0.0920  0.2341 -0.2132
 9881W        W25350  17.467   3.905   0.074  0.1404  0.0755  0.2076
 9882W        W25351  15.013  15.789  15.618  0.1730 -0.1831 -0.3682
 9883W        W25352   1.320  16.904   3.087  0.1233 -0.0765 -0.0863
 9884W        W25353   3.614   6.513   4.341  0.1573 -0.3330 -0.1128
 9885W        W25354   2.230  14.384   5.962 -0.2814 -0.1865  0.0538
 9886W        W25355  14.197   5.216   2.344 -0.1667 -0.0955 -0.3746
 9887W        W25356   2.773  12.426   3.194 -0.1082 -0.4790  0.0964
 9888W        W25357   7.038   5.647  14.372  0.1618  0.2240 -0.2102
 9889W        W25358   5.279  17.730   4.346 -0.0868  0.2511  0.2426
 9890W        W25359   7.657  12.639   5.042 -0.2337 -0.3274  0.4386
 9891W        W25360   6.284   4.769   1.652 -0.0021 -0.3678  0.3149
 9892W        W25361  17.574  14.534   0.273 -0.0285 -0.0256 -0.1477
 9893W        W25362   0.788   3.173  15.239 -0.1937 -0.1889  0.0891
 9894W        W25363   8.821   5.796  11.708 -0.1017 -0.0058 -0.3485
 9895W        W25364  10.239  11.739  11.433 -0.1194 -0.1090  0.1549
 9896W        W25365   2.395   5.569   0.349 -0.0446 -0.0914  0.3804
 9897W        W25366  17.036   4.933   3.843  0.1847  0.2970 -0.2654
 9898W        W25367  17.815   1.559   3.909  0.3959  0.1203 -0.0428
 9899W        W25368  10.268  16.552   1.901  0.1338  0.4412  0.0507
 9900W        W25369   1.851   1.494  13.450 -0.4331 -0.0847 -0.0472
 9901W        W25370   2.422   2.112  12.500  0.4054  0.1409  0.0236
 9902W        W25371   3.665  13.016  12.073 -0.2126 -0.0843  0.2833
 9903W        W25372   5.515   6.489   4.627  0.0624  0.1214  0.4980
 9904W        W25373   9.640  14.069   2.814  0.1974  0.1055 -0.3591
 9905W        W25374   1.797   7.520  11.878  0.1434  0.2780 -0.0822
 9906W        W25375  14.512   1.605  10.288  0.1297  0.0827  0.0318
 9907W        W25376   5.284   9.363   5.707  0.1508  0.0638  0.2775
 9908W        W25377  17.855  12.520   1.520 -0.3952 -0.0560 -0.0633
 9909W        W25378   2.879  12.074   2.812  0.1391 -0.2047  0.0576
 9910W        W25379  10.184  12.550   3.874 -0.4312 -0.0178 -0.2141
 9911W        W25380  16.413   6.926  14.276  0.2366 -0.0145  0.0048
 9912W        W25381  10.867  17.683   5.155 -0.1238 -0.0805  0.1261
 9913W        W25382  10.796  15.290   0.280 -0.1782  0.1081 -0.0271
 9914W        W25383   2.378  10.450  12.579  0.2243 -0.2905 -0.0700
 9915W        W25384  14.130  14.558   0.793 -0.0281 -0.1107  0.1201
 9916W        W25385  14.572  13.739   0.791 -0.0234  0.0687  0.0619
 9917W        W25386   1.642   9.875  14.396  0.0587  0.4113  0.0896
 9918W        W25387   6.814   8.225   0.996  0.2263 -0.2601 -0.1046
 9919W        W25388  12.174  12.994   0.022  0.0104  0.0720  0.4137
 9920W        W25389   2.530   2.060   2.022  0.0481 -0.1802  0.3837
 9921W        W25390  13.968   8.019   3.202 -0.1846  0.0755 -0.2480
 9922W        W25391   2.535   6.247   5.575 -0.2823  0.0733 -0.1998
 9923W        W25392  18.260   4.193  13.094 -0.0862  0.1401 -0.0779
 9924W        W25393  11.205  17.449  11.518 -0.2141 -0.1453 -0.0269
 9925W        W25394  17.174   5.406   1.835 -0.0040 -0.0809  0.2169
 9926W        W25395   4.972   6.958   3.187 -0.1967  0.0426 -0.1372
 9927W        W25396  12.610  16.670  11.524 -0.0764 -0.0734  0.1518
 9928W        W25397   4.773  17.842   3.048 -0.2361  0.1313  0.0046
 9929W        W25398   5.383   4.567  10.940  0.2974  0.2337  0.1373
 9930W        W25399   0.075   8.791   5.520 -0.3086  0.1629  0.1514
 9931W        W25400  11.806  13.569  13.526 -0.3003  0.0455 -0.1358
 9932W        W25401   3.072   5.093  14.313 -0.1907  0.0840  0.4166
 9933W        W25402  13.624  18.380   2.968 -0.0716  0.0879  0.0004
 9934W        W25403  16.727   4.075   2.177  0.1297  0.0814  0.0091
 9935W        W25404   0.333  13.887   0.637  0.3413 -0.1140  0.2155
 9936W        W25405  10.692   3.217   0.399 -0.0297  0.0016  0.0306
 9937W        W25406  17.912   7.575   5.591 -0.0729 -0.1109  0.1708
 9938W        W25407   9.446  14.142   3.287  0.0496  0.0444 -0.2760
 9939W        W25408  15.780  16.411   2.989 -0.0279 -0.1252  0.1290
 9940W        W25409   0.041  14.714   4.762 -0.0715  0.2240  0.0409
 9941W        W25410   6.265   3.975  13.997 -0.0865 -0.1927 -0.0921
 9942W        W25411   3.890   5.504   2.110 -0.0595 -0.1277 -0.3968
 9943W        W25412   6.866  17.485   4.953 -0.1550 -0.0389 -0.1536
 9944W        W25413   9.985  15.204   5.815  0.1844  0.0529  0.3543
 9945W        W25414   0.591  15.896   1.690 -0.0881  0.1466  0.2906
 9946W        W25415   4.226  16.115  12.543  0.1786 -0.2782 -0.1795
 9947W        W25416   8.899   7.974  15.804 -0.0848  0.0588  0.3287
 9948W        W25417   3.872   2.946   0.803 -0.1326 -0.1347 -0.1655
 9949W        W25418   4.911  14.891   4.406 -0.0299 -0.1607  0.0741
 9950W        W25419  11.092   3.955  13.960  0.3012 -0.0268  0.1036
 9951W        W25420  17.743   2.532   3.060 -0.1256 -0.4020 -0.0906
 9952W        W25421  10.592   3.105  11.450  0.0673  0.2221  0.2098
 9953W        W25422   3.060  14.683  14.394 -0.2376 -0.1144  0.3031
 9954W        W25423   3.523   0.603   6.085 -0.2355 -0.0868 -0.0266
 9955W        W25424  11.981   2.256  13.022 -0.1431  0.3223 -0.0393
 9956W        W25425   4.243  15.953   4.033 -0.2803  0.0587 -0.1448
 9957W        W25426  10.086   2.507   2.963  0.0083 -0.0956 -0.2316
 9958W        W25427   8.893  17.271   4.977  0.2593 -0.2371 -0.0735
 9959W        W25428   8.129   9.797  13.334 -0.0651  0.0666  0.4945
 9960W        W25429   3.159  12.262   2.399 -0.0863  0.0358 -0.1148
 9961W        W25430   2.458   7.717   1.412  0.3425 -0.0180  0.2203
 9962W        W25431   9.485  13.064  12.795  0.1656  0.1087 -0.1960
 9963W        W25432  17.543   7.065  10.688  0.2544 -0.0896 -0.2299
 9964W        W25433  14.254   3.590  11.342  0.0726 -0.1880  0.0804
 9965W        W25434  13.423   1.368  14.221 -0.1746  0.0788 -0.2676
 9966W        W25435  13.330   4.092   4.690 -0.1650 -0.1562  0.3290
 9967W        W25436   8.789  13.241   5.036 -0.1631  0.2085 -0.0505
 9968W        W25437   8.596  10.388   2.637  0.0062  0.2289 -0.1970
 9969W        W25438  18.142   4.023   2.507 -0.0956 -0.1424 -0.1417
 9970W        W25439   0.278  16.011  13.197  0.0401 -0.1893 -0.5270
 9971W        W25440  12.186   5.592   5.364 -0.2793  0.0306 -0.0466
 9972W        W25441   9.409   9.142  13.240  0.2462 -0.0292  0.0736
 9973W        W25442   8.306   0.897   4.845 -0.1193  0.1410  0.4191
 9974W        W25443   6.183  14.758   4.190  0.1034 -0.0789  0.1605
 9975W        W25444   7.182  10.749   4.632  0.1147  0.0680  0.1100
 9976W        W25445   5.681   3.460   3.956  0.2063  0.1834  0.2739
 9977W        W25446   2.076   5.827   2.739  0.1124  0.2964  0.0473
 9978W        W25447   9.130   7.615  11.468 -0.4341  0.1084 -0.0558
 9979W        W25448   9.110  13.647   0.760  0.2729  0.0123 -0.0571
 9980W        W25449  15.489  10.434   0.521 -0.1835 -0.0387  0.1822
 9981W        W25450   3.221   5.692   1.013 -0.2530  0.0386  0.1285
 9982W        W25451  13.349  12.439   2.971  0.1222  0.0124 -0.0486
 9983W        W25452   3.545  18.151   3.894 -0.1872  0.1612  0.1047
 9984W        W25453   8.512   8.849   2.945 -0.1269 -0.2044 -0.1449
 9985W        W25454   0.832  14.461  15.181  0.0807  0.0325  0.4525
 9986W        W25455   3.880   6.195  15.245  0.1876  0.1732  0.0338
 9987W        W25456   6.066   1.525   0.565 -0.4461  0.1588  0.0865
 9988W        W25457  13.747  10.258  10.267 -0.4483  0.0660 -0.1113
 9989W        W25458  10.780  16.240  11.364  0.0203 -0.0580  0.4328
 9990W        W25459   0.881  13.297   4.229  0.1165 -0.2118  0.2067
 9991W        W25460   1.083   4.974   2.291 -0.1936 -0.2010  0.2969
 9992W        W25461   4.469   0.842   0.126  0.1105  0.0380  0.0312
 9993W        W25462  15.123   4.282   3.481 -0.1616 -0.1432 -0.0305
 9994W        W25463   4.226   8.544   2.424 -0.2665 -0.0791 -0.2757
 9995W        W25464   2.077   8.868   4.641 -0.2146 -0.2477  0.0286
 9996W        W25465  12.524   5.896   0.429 -0.0245  0.0434 -0.0148
 9997W        W25466   6.807   8.661  15.547 -0.3324 -0.4050 -0.1488
 9998W        W25467   9.330  12.719   0.405  0.1389 -0.0551  0.2776
 9999W        W25468  18.092  14.753   5.846  0.2208  0.1506  0.0738
10000W        W25469   2.871   6.609   6.023  0.1209 -0.0926 -0.0217
10001W        W25470   2.653   1.650  12.725 -0.0163  0.0725 -0.1462
10002W        W25471  10.321  17.054  13.804  0.2770 -0.0052 -0.0654
10003W        W25472  13.081  13.199   3.462  0.0435 -0.1017 -0.1385
10004W        W25473  14.232   1.182   1.077 -0.2498  0.0007 -0.1055
10005W        W25474  11.318  17.991   5.394  0.1140  0.2657  0.1804
10006W        W25475  16.631  15.836   4.421 -0.1124  0.0770 -0.0810
10007W        W25476  13.801  16.017  14.186  0.0579  0.2865  0.1031
10008W        W25477  12.338   3.062  12.032 -0.3372  0.3567  0.0184
10009W        W25478  12.343   6.264  13.722  0.0540  0.0066  0.2151
10010W        W25479   2.289  15.300   1.092 -0.2055  0.3990 -0.1441
10011W        W25480  18.386   4.982   2.003  0.0438  0.0037 -0.0175
10012W        W25481  14.833   8.960   2.748  0.5719 -0.2769 -0.1718
10013W        W25482   2.714  18.420   4.133  0.0550 -0.2278  0.1704
10014W        W25483  17.230  10.246   2.295  0.1776 -0.0996 -0.3372
10015W        W25484   3.886   8.765  13.498 -0.1969 -0.0410  0.1759
10016W        W25485   0.913   4.044  15.710 -0.2283  0.1914 -0.1967
10017W        W25486   9.475  14.452  15.352 -0.3413 -0.2631  0.1029
10018W        W25487  12.735  15.653  15.243  0.0739 -0.0701 -0.2749
10019W        W25488   7.924   1.449  11.950 -0.0299 -0.1167  0.1601
10020W        W25489  17.779   4.987   1.228  0.2038  0.0573 -0.1166
10021W        W25490  14.864   3.128  15.405 -0.2727  0.0953  0.3081
10022W        W25491   8.938  11.827   0.889 -0.2701 -0.3371 -0.1466
10023W        W25492  10.709  12.803   5.117 -0.1957 -0.0535  0.3118
10024W        W25493   0.011  10.139   4.698  0.0674  0.0113 -0.1721
10025W        W25494  14.370   2.979  15.423  0.3151  0.1050 -0.1551
10026W        W25495   5.680  10.681  13.860  0.0858  0.1161 -0.2159
10027W        W25496  16.355  15.095   0.521 -0.2161  0.3694  0.0843
10028W        W25497   9.898  13.949   0.298 -0.3763 -0.2607 -0.0915
10029W        W25498   8.531   7.780   5.262  0.3382  0.0926  0.2006
10030W        W25499   1.653   0.252   5.666 -0.0663  0.1249 -0.1595
10031W        W25500   1.556  18.441  15.718  0.1791  0.0188 -0.0036
10032W        W25501   7.735  11.676  15.276 -0.1116 -0.2490  0.1631
10033W        W25502  18.019  16.050   0.696 -0.2012  0.2670  0.0626
10034W        W25503   6.505  12.265   1.234 -0.0067 -0.3332  0.1595
10035W        W25504   4.655   1.061  13.787  0.3324 -0.2721  0.3697
10036W        W25505  10.070  12.603  11.564  0.0293  0.0452 -0.1131
10037W        W25506  14.648  13.860   0.153 -0.2089 -0.1368  0.0793
10038W        W25507   0.620   7.629   2.870 -0.1836  0.0283 -0.0412
10039W        W25508   9.294  12.461  10.663 -0.1715 -0.1705 -0.0509
10040W        W25509   2.498  12.622  12.370  0.0241  0.1280  0.0418
10041W        W25510  16.042  15.056   3.651 -0.0657 -0.1299 -0.0012
10042W        W25511   2.985  13.480  13.545 -0.3845 -0.0023  0.0088
10043W        W25512  16.530  16.990  14.004  0.0876 -0.3289 -0.2837
10044W        W25513  15.844  18.446   4.503  0.0140  0.1993  0.1979
10045W        W25514   3.123   1.164  15.489  0.0974 -0.2132  0.1392
10046W        W25515   4.560  16.779   0.585  0.1108  0.1447  0.0080
10047W        W25516  11.475  11.030   1.980 -0.0857  0.1130 -0.1293
10048W        W25517  13.900   9.373   1.904 -0.1419 -0.1763 -0.1827
10049W        W25518   3.926   5.698   4.592 -0.0613 -0.0374 -0.2137
10050W        W25519  16.536   1.931   2.679  0.1593  0.0607  0.1230
10051W        W25520  17.846  14.578  15.799 -0.1528 -0.0643  0.1537
10052W        W25521   5.920   1.514   1.927 -0.0988 -0.0759 -0.1989
10053W        W25522  14.900   7.957  12.164 -0.1769  0.2622  0.0168
10054W        W25523  14.188  15.878  11.826 -0.5137 -0.1258 -0.0059
10055W        W25524  16.357   0.623  15.630 -0.2060 -0.0981 -0.1109
10056W        W25525  11.585  17.419   5.555  0.0749  0.1454  0.0684
10057W        W25526  16.032  10.140  15.884  0.2695  0.1616  0.0369
10058W        W25527   4.083   0.831   5.818  0.2316  0.0057 -0.4975
10059W        W25528  18.424   7.094  15.789  0.1042 -0.0908  0.1744
10060W        W25529  12.790  11.088   5.665  0.1100  0.0077  0.0709
10061W        W25530  14.491  11.054   5.127  0.2774 -0.1568  0.1231
10062W        W25531  10.152   4.086   4.648  0.0039  0.1853  0.1850
10063W        W25532   3.622  17.114   5.130 -0.1682  0.1507 -0.1598
10064W        W25533   7.566   4.846   1.761 -0.1849  0.0644  0.2245
10065W        W25534  12.314  10.715   4.042  0.0618  0.2089 -0.1353
10066W        W25535   7.471  15.874   4.664 -0.0464 -0.0160 -0.0958
10067W        W25536  11.628   0.463   1.319 -0.0177  0.0013 -0.1100
10068W        W25537  11.115  17.211   0.630 -0.2576 -0.1759  0.1891
10069W        W25538   6.593  17.520  11.840 -0.2646  0.1025 -0.0709
10070W        W25539  16.538   3.187   2.091  0.1777  0.3009  0.1931
10071W        W25540  17.622   3.907   1.844  0.2041 -0.0226 -0.1999
10072W        W25541   5.078   5.953  11.777  0.0556 -0.1220 -0.1673
10073W        W25542   6.176   7.419  13.337 -0.1691  0.4034 -0.2156
10074W        W25543   6.338  10.586   4.406 -0.2075 -0.3367  0.0294
10075W        W25544  18.004  16.787   5.041 -0.4593 -0.1416  0.3139
10076W        W25545  13.512   5.582   0.321  0.1176 -0.1729 -0.1647
10077W        W25546   0.958   5.909   1.834 -0.2351 -0.4614 -0.0153
10078W        W25547  14.882   1.561   2.189 -0.0452  0.0819 -0.0612
10079W        W25548   7.675  13.704  11.564 -0.3279 -0.2566  0.1405
10080W        W25549  10.640  16.836  15.874 -0.0915  0.3106 -0.1854
10081W        W25550  13.756  12.560  12.456  0.0139 -0.2353 -0.3258
10082W        W25551   9.805   7.417   2.321  0.1181  0.0328  0.0532
10083W        W25552  10.110   8.360  13.563 -0.0197  0.0238 -0.0990
10084W        W25553  13.831   5.923  13.582  0.0541 -0.0848  0.0276
10085W        W25554   7.643   6.555  15.619 -0.1402 -0.0962 -0.0092
10086W        W25555  14.432   0.087  13.828 -0.1106  0.2217  0.0640
10087W        W25556   6.360   3.255   2.875  0.2279 -0.1376 -0.4270
10088W        W25557  16.197   3.200   5.275 -0.4186 -0.1528 -0.0601
10089W        W25558   6.909   0.758   5.177  0.0499 -0.0318  0.0546
10090W        W25559   8.700   8.242   5.200  0.0913 -0.1535  0.0815
10091W        W25560   5.632  11.437  10.819  0.0578  0.1284  0.1642
10092W        W25561   6.817   0.154   1.426 -0.1556  0.1822 -0.0355
10093W        W25562  11.693   1.195  15.050 -0.1581 -0.1339  0.0924
10094W        W25563   2.477   3.359  13.704  0.1140  0.1287 -0.0446
10095W        W25564   5.572   4.959   1.382  0.0375  0.0128  0.0814
10096W        W25565   1.426   1.885   0.552  0.0776  0.2567 -0.1836
10097W        W25566   1.986   5.603   1.787  0.1069 -0.0819  0.1780
10098W        W25567  18.393  14.366   2.035  0.0226 -0.0012 -0.0064
10099W        W25568   4.721   5.018   5.472 -0.2182 -0.1399 -0.0868
10100W        W25569   3.808   1.678  13.251  0.6105 -0.0417  0.2687
10101W        W25570  15.300  17.877   4.606 -0.0842  0.0638 -0.1332
10102W        W25571   9.231   2.221   5.150 -0.0863  0.1969  0.0442
10103W        W25572   8.377   0.715  12.246 -0.1128 -0.0047  0.0959
10104W        W25573  12.093   0.921  14.905  0.0747 -0.0605 -0.1766
10105W        W25574   4.599   0.476   3.913 -0.2043  0.0145  0.1167
10106W        W25575  14.016   3.639  14.309  0.1278  0.0831  0.1685
10107W        W25576   9.848   1.535  10.432  0.0088 -0.0313  0.3498
10108W        W25577   8.431   6.340  11.116  0.0866  0.0334 -0.0368
10109W        W25578   0.472   8.303  15.374 -0.1512 -0.0800 -0.0633
10110W        W25579  14.750   5.963   2.895  0.1439 -0.1043 -0.1041
10111W        W25580   8.971   6.798  13.004 -0.1046  0.1325  0.0817
10112W        W25581   0.597  17.095   2.808  0.0322 -0.1111 -0.4280
10113W        W25582   5.508  13.991  14.075 -0.0801 -0.1319  0.1963
10114W        W25583   5.722  10.772  14.760 -0.1301 -0.0137 -0.1328
10115W        W25584   2.226   4.374  11.610  0.1196  0.0560  0.2243
10116W        W25585   2.253   7.544  15.273  0.2447 -0.2236  0.0486
10117W        W25586   5.483  10.942  15.244 -0.0725  0.2518 -0.0011
10118W        W25587   6.786   9.262  11.417 -0.0510 -0.1731  0.1077
10119W        W25588   7.885   9.832  13.743  0.2010 -0.0915 -0.1004
10120W        W25589  13.523  14.059  13.307 -0.2186 -0.0868  0.0829
10121W        W25590   4.015  12.106   5.645  0.2722 -0.2306  0.0013
10122W        W25591   7.459   7.554   0.096 -0.1845  0.2652 -0.1683
10123W        W25592  11.132  15.077  13.629  0.1316 -0.2660 -0.2093
10124W        W25593   1.619  13.721   1.801  0.2353  0.1099 -0.0690
10125W        W25594   7.717  15.868  14.295 -0.2495  0.0649 -0.0776
10126W        W25595   0.834  10.141  14.874 -0.1109 -0.3244  0.1137
10127W        W25596   7.333  16.368  11.195  0.0289  0.1597 -0.0011
10128W        W25597   1.358   1.941  11.988 -0.0967 -0.1611  0.0881
10129W        W25598   2.934   2.076  14.831  0.2596 -0.2705 -0.1416
10130W        W25599  10.033   2.595  12.125  0.0704  0.0447  0.0771
10131W        W25600  16.883  13.664  13.556  0.3047 -0.1418  0.2430
10132W        W25601   0.581  12.159  11.278 -0.0218  0.1759 -0.0717
10133W        W25602  13.943  14.956  13.329 -0.1754  0.1167 -0.0073
10134W        W25603  12.605   8.633  14.449 -0.1549  0.0385 -0.2695
10135W        W25604  11.844  10.564   4.094 -0.1740 -0.1488 -0.2265
10136W        W25605  14.967  11.515   3.469 -0.0288 -0.1311 -0.0022
10137W        W25606   9.514  15.823  12.499 -0.3340 -0.0377 -0.1983
10138W        W25607  14.770   8.889  14.401 -0.2373  0.2141  0.0900
10139W        W25608  17.388  15.575  15.630 -0.0427  0.0957 -0.2308
10140W        W25609   1.241  18.267  12.453 -0.0783 -0.0932 -0.1236
10141W        W25610  18.475   2.602   3.643 -0.0125  0.0937 -0.1709
10142W        W25611  15.384  18.014   0.359  0.3167  0.0181 -0.1553
10143W        W25612  14.135   7.908  13.869  0.1341  0.0085 -0.0989
10144W        W25613  14.082   1.617   2.521 -0.1945  0.2730 -0.0159
10145W        W25614   7.574   4.030   1.233  0.1196  0.2938  0.0501
10146W        W25615   4.628  16.860  10.802  0.0703 -0.0910  0.1565
10147W        W25616  12.667  10.175  11.665 -0.2813  0.2321  0.3681
10148W        W25617  17.503   3.303   2.606 -0.0083  0.0450  0.2524
10149W        W25618   2.593  10.936  13.919  0.3725  0.1503  0.1142
10150W        W25619  13.951  14.598  11.483 -0.0498  0.2422  0.0829
10151W        W25620  10.127  11.548   2.619 -0.0516 -0.1733  0.5159
10152W        W25621  17.656  16.874   0.362 -0.2940 -0.3201  0.1457
10153W        W25622  12.874  13.091  10.993  0.0677 -0.0743  0.1579
10154W        W25623  14.808   0.941  12.584  0.1248 -0.1593 -0.0671
10155W        W25624   1.116   2.414   2.994 -0.4343 -0.0973 -0.1832
10156W        W25625  12.794  15.555  12.488 -0.0723  0.0157 -0.1946
10157W        W25626   5.875   1.899  15.722 -0.1906 -0.0905 -0.2903
10158W        W25627  17.007   4.841   3.328 -0.1365 -0.0422  0.0158
10159W        W25628  15.985   4.378  10.799 -0.2171 -0.0587 -0.0327
10160W        W25629   7.847  10.710   2.707  0.0211 -0.0169  0.1532
10161W        W25630   0.128   5.988  12.614 -0.1928 -0.1148 -0.1055
10162W        W25631   8.683  11.440   4.610 -0.3493 -0.2122 -0.0479
10163W        W25632  18.107   4.463   0.257  0.1457 -0.0329  0.0934
10164W        W25633   9.373   6.449  15.482  0.1105  0.1666 -0.3377
10165W        W25634   9.099  12.900  14.582 -0.2548  0.1983 -0.1652
10166W        W25635   3.367   1.444  13.193 -0.2501  0.0639 -0.1617
10167W        W25636  11.118  12.129  11.014  0.0880 -0.6769  0.2221
10168W        W25637  17.641  14.773  15.349 -0.0358 -0.3274 -0.0015
10169W        W25638  11.062   3.745  11.411  0.0070 -0.2807  0.2545
10170W        W25639  17.900   9.892   1.269 -0.1360  0.1644  0.0369
10171W        W25640   8.521  14.902  12.596 -0.3686  0.1242  0.0789
10172W        W25641   3.888  17.978   1.670  0.2960  0.0026  0.3219
10173W        W25642  16.183   1.949  15.061 -0.0453  0.1294  0.0594
10174W        W25643   8.997  14.452   0.647  0.0643  0.1778 -0.0153
10175W        W25644   4.933   1.985  14.157  0.1335  0.0123  0.0891
10176W        W25645  13.889  14.284   0.383 -0.0225  0.1276  0.0388
10177W        W25646   6.288   3.222   2.355  0.1331 -0.2306  0.0745
10178W        W25647  10.436  10.489   3.546  0.2676 -0.1985  0.2575
10179W        W25648  16.316  17.424   1.397 -0.3257  0.0846 -0.1332
10180W        W25649   7.631   5.106   3.995  0.0179  0.1995  0.0485
10181W        W25650  17.425   3.482   1.084 -0.0058 -0.2027  0.1947
10182W        W25651   3.491   3.743   0.713  0.3850 -0.0889  0.1818
10183W        W25652   5.451   3.794  11.373 -0.2219  0.0620 -0.0757
10184W        W25653   3.250   1.857   3.301 -0.0887  0.4853 -0.2003
10185W        W25654   6.078   0.379   3.066  0.0582  0.2421  0.0221
10186W        W25655  17.239   2.341  14.837  0.0538 -0.0402  0.3362
10187W        W25656  18.386   5.202   2.652 -0.0509  0.1499 -0.1400
10188W        W25657   1.052   7.928  13.652  0.1823 -0.0216  0.1457
10189W        W25658   3.579  13.704   0.118  0.0647 -0.0543 -0.1873
10190W        W25659   5.272  10.191  15.425 -0.1730 -0.0595 -0.2020
10191W        W25660   3.321  14.179   3.669  0.0825  0.1840  0.2350
10192W        W25661   5.142  12.741   2.946  0.0414  0.0378  0.1466
10193W        W25662  12.554   1.015   2.136 -0.0226 -0.2781  0.2851
10194W        W25663   9.665   7.677  12.024 -0.0729  0.0806 -0.3997
10195W        W25664   9.921  14.967   0.180  0.2306  0.0286  0.0978
10196W        W25665   5.121   8.651   1.272 -0.2376 -0.0929 -0.2720
10197W        W25666  12.905   8.900  13.013  0.1591 -0.1666 -0.2323
10198W        W25667  10.401   3.560  12.675  0.2662  0.0485  0.1778
10199W        W25668  12.995  17.314   4.973 -0.0726 -0.0539 -0.0568
10200W        W25669   6.071  15.635  11.529 -0.4442 -0.2987  0.2393
10201W        W25670   7.828   5.674   4.699  0.0560  0.0918  0.0395
10202W        W25671   0.236  10.352   4.326 -0.2984  0.1860  0.0511
10203W        W25672  16.519   5.627   4.199 -0.2770  0.2136 -0.1686
10204W        W25673   9.883   7.673   1.819 -0.0996  0.2689 -0.4123
10205W        W25674   7.148  11.223   1.714  0.2721  0.3150  0.2132
10206W        W25675   1.498  13.478   4.744 -0.0561 -0.1379 -0.0818
10207W        W25676   4.756  13.194  12.007 -0.1181 -0.4242 -0.2182
10208W        W25677  14.263   7.111   0.042 -0.0534  0.0308 -0.0139
10209W        W25678   4.564   7.128   4.087  0.2776 -0.0978 -0.3576
10210W        W25679   4.044   9.054   1.630 -0.2493  0.2758 -0.0522
10211W        W25680   8.852   7.144   1.431 -0.2125 -0.2570  0.1644
10212W        W25681   5.388   1.646  11.330  0.0918 -0.2769 -0.1509
10213W        W25682   5.739  14.829   3.438 -0.1190 -0.3560 -0.2675
10214W        W25683   1.823  15.897   1.345 -0.0085 -0.2821  0.1299
10215W        W25684  13.779   6.358   0.563 -0.1245  0.1565  0.1950
10216W        W25685   8.282   4.566  10.863  0.0072  0.3581 -0.2780
10217W        W25686  15.388   6.983  15.026  0.0736  0.2339 -0.3292
10218W        W25687  12.604  18.176  14.392  0.1272  0.3016 -0.3111
10219W        W25688   7.989   6.890  15.478 -0.0428  0.0818  0.0944
10220W        W25689   1.318   4.070   6.067 -0.1833 -0.0145  0.2100
10221W        W25690   9.352   4.758   2.016 -0.1042 -0.0761 -0.2738
10222W        W25691   5.108  12.185  11.696 -0.1606 -0.2446  0.0217
10223W        W25692   5.132   8.502  11.080 -0.2533 -0.2783 -0.2968
10224W        W25693  15.189   8.882   0.237  0.1533 -0.2809 -0.1954
10225W        W25694   3.551  15.000  14.270  0.2084 -0.1161  0.3005
10226W        W25695  13.783  18.010   5.559  0.0121 -0.5457  0.2150
10227W        W25696  14.005  11.886  15.515 -0.0893 -0.1815 -0.0226
10228W        W25697   3.074   4.168   4.902  0.0603 -0.1510 -0.0686
10229W        W25698   0.343   0.373  13.549 -0.0927  0.0790  0.2138
10230W        W25699   5.581  10.967  15.839 -0.2317 -0.0448  0.2656
10231W        W25700   2.616  14.742   3.456  0.0759 -0.2547 -0.1168
10232W        W25701   5.352  14.217  12.564 -0.0579 -0.1224  0.0359
10233W        W25702  13.044   9.494   2.213  0.2109 -0.0535  0.1170
10234W        W25703   9.635  12.338   0.448 -0.0025  0.1433 -0.0337
10235W        W25704   2.841  17.770  13.598 -0.2272  0.1734 -0.0807
10236W        W25705  13.234   0.603   3.428  0.1114  0.1783  0.3179
10237W        W25706  16.437  14.433  13.626 -0.2107  0.0631 -0.3717
10238W        W25707   3.340   3.997   1.084  0.2162 -0.1558 -0.2259
10239W        W25708   2.335   9.693  14.235  0.0855 -0.1223  0.0659
10240W        W25709   4.174   8.751   0.289  0.1260  0.1229 -0.0702
10241W        W25710   1.955  10.924   3.901  0.5313 -0.2428 -0.1252
10242W        W25711  13.582   3.422   0.973 -0.2321 -0.0552 -0.1067
10243W        W25712   2.895   4.350  15.552  0.0566  0.0789  0.1386
10244W        W25713   7.602   5.587  15.215 -0.0579 -0.0273  0.1449
10245W        W25714   4.769  17.902  14.449 -0.3124  0.0367 -0.0879
10246W        W25715   5.225  13.226   2.931  0.1255 -0.0249 -0.2129
10247W        W25716  15.932  13.440   0.701  0.1819  0.0013  0.0580
10248W        W25717   3.909  16.373   6.255  0.0514  0.0176 -0.0219
10249W        W25718  10.212  13.655  13.696 -0.3227 -0.1761  0.0970
10250W        W25719  15.901   1.510  13.664 -0.0632  0.0965  0.0319
10251W        W25720  10.973   2.795   1.188 -0.3095 -0.0448  0.0993
10252W        W25721   4.296   3.928  15.544 -0.2919  0.3179  0.0751
10253W        W25722  10.845  18.233  14.521 -0.2719  0.1895  0.0786
10254W        W25723  16.919   2.938  12.916  0.0563 -0.0465 -0.2868
10255W        W25724   8.306  13.271  15.267  0.1954  0.1066  0.0375
10256W        W25725   3.337  13.922  12.028  0.2638  0.1890 -0.0318
10257W        W25726  11.213   7.088  12.467  0.0577 -0.1066 -0.1115
10258W        W25727  11.171   6.143  11.563 -0.1854  0.0611 -0.0401
10259W        W25728  14.327   1.446  13.475 -0.3666 -0.1537  0.2217
10260W        W25729  14.484   8.921  15.449  0.0716  0.0367  0.1943
10261W        W25730  11.119  16.583  15.884 -0.1687 -0.0729 -0.0249
10262W        W25731  10.637   2.160  13.974  0.0054  0.0116 -0.0499
10263W        W25732   8.996  10.191  12.592  0.1301  0.0089  0.1534
10264W        W25733   7.385   9.816  15.396 -0.0975 -0.2523 -0.2468
10265W        W25734   3.684  13.279  10.688 -0.1294 -0.0438 -0.0193
10266W        W25735  16.821   1.152  14.883 -0.1084 -0.1530  0.0420
10267W        W25736  11.193   2.193   0.026  0.3475 -0.1145 -0.1614
10268W        W25737   4.811   6.957  14.484 -0.1704  0.0432  0.0133
10269W        W25738  14.139  12.890  12.260  0.1100 -0.2826  0.1108
10270W        W25739   3.568  18.200  15.213 -0.3028  0.2794 -0.0718
10271W        W25740  10.458   1.763   1.383 -0.0445 -0.1899 -0.0914
10272W        W25741   0.201  13.238  14.124  0.1248 -0.0186  0.2158
10273W        W25742   3.285   1.855  13.433 -0.1400  0.3305 -0.1395
10274W        W25743   5.952   9.739  11.778  0.3007  0.0126 -0.1444
10275W        W25744  12.528  11.513  14.282 -0.3319 -0.0375 -0.0405
10276W        W25745  15.060   7.715  15.614 -0.0682 -0.2525  0.1423
10277W        W25746   8.300  14.167  15.381  0.2662  0.1281  0.0141
10278W        W25747  16.049  10.749   1.766 -0.2351  0.0273  0.0212
10279W        W25748   4.442  11.882   5.446  0.0153 -0.3632 -0.0743
10280W        W25749  16.583  16.508   5.268 -0.1873  0.0770 -0.0922
10281W        W25750  13.771   8.381  15.468 -0.0893  0.0931  0.0757
10282W        W25751   2.851  13.835  12.633  0.0950 -0.2569  0.2418
10283W        W25752   2.006  16.103  11.061  0.1104 -0.0668  0.0229
10284W        W25753   9.148  12.349  13.283 -0.1504 -0.0648  0.5055
10285W        W25754   3.092  13.868  15.829 -0.1758  0.1822  0.0976
10286W        W25755  17.282   6.175  15.665  0.2301  0.0250  0.1514
10287W        W25756   3.006  16.440   4.170  0.2397  0.1331  0.0045
10288W        W25757   1.513   8.231   9.499  0.1504  0.2590  0.0168
10289W        W25758  10.844   1.866  15.216 -0.0245 -0.2947 -0.0805
10290W        W25759   1.557   2.182   3.169  0.3403 -0.0773 -0.1571
10291W        W25760  11.306   0.580   0.591 -0.0239  0.0496  0.0993
10292W        W25761  11.301   2.787  12.356  0.1057 -0.1940 -0.0915
10293W        W25762   1.790  16.463  11.501 -0.0563 -0.1170  0.2244
10294W        W25763  13.227  16.554   2.378  0.2164 -0.2105 -0.2311
10295W        W25764   1.241   6.077  12.943 -0.0250 -0.0743  0.0390
10296W        W25765   5.445  17.267  10.974 -0.1395 -0.0264  0.2750
10297W        W25766  12.720   3.934   5.174  0.0633  0.0587 -0.0159
10298W        W25767   1.878  14.524  11.654  0.2071  0.2145 -0.1897
10299W        W25768   4.079  14.605   3.295  0.3085 -0.2183 -0.3134
10300W        W25769  16.304   2.920   2.921  0.0748  0.1436 -0.2525
10301W        W25770   1.897   2.536  15.281 -0.0926  0.0585 -0.0859
10302W        W25771  17.822  15.457  12.327  0.1144 -0.2212 -0.1073
10303W        W25772   0.379   1.456   5.575  0.2241  0.2290 -0.0178
10304W        W25773   1.234   8.407   1.156 -0.4166  0.2421 -0.0049
10305W        W25774  10.882   3.725  12.701 -0.0363  0.1745  0.0398
10306W        W25775  17.440   9.047   4.542  0.2930 -0.0510 -0.1466
10307W        W25776   1.187   2.182  15.872  0.1488 -0.4012  0.1360
10308W        W25777   0.350  14.530   3.908 -0.0642 -0.1089  0.2257
10309W        W25778   0.619  10.829  12.148  0.0397  0.0804  0.0837
10310W        W25779  17.267   0.428   5.431 -0.1232 -0.1441  0.0595
10311W        W25780   3.460   3.690  11.244  0.0375 -0.4831 -0.0162
10312W        W25781  11.745   1.903   3.107 -0.0622  0.2853 -0.0152
10313W        W25782  16.089  14.057   2.252  0.0020 -0.1891 -0.1660
10314W        W25783  18.431  10.671  11.768  0.2859  0.2292 -0.1047
10315W        W25784  10.347  12.749   0.115 -0.3972  0.1184 -0.2690
10316W        W25785   1.255   3.590   0.202  0.0970  0.3472 -0.2275
10317W        W25786  12.420   5.266   3.445  0.2644  0.0854 -0.1652
10318W        W25787   4.480  11.245  11.053  0.0243  0.2297 -0.0450
10319W        W25788   1.641   5.813  14.293 -0.1644 -0.3132 -0.3996
10320W        W25789   5.900  17.692   5.997 -0.2523 -0.2992 -0.1468
10321W        W25790   1.870  17.256  14.643  0.4047  0.0133 -0.2160
10322W        W25791  15.815   0.325   1.244 -0.0744  0.2016  0.5146
10323W        W25792   6.440   6.378   1.942  0.3435 -0.0710  0.2082
10324W        W25793   2.391   1.388   3.943 -0.2386 -0.0607  0.1386
10325W        W25794   7.074  17.378   2.836 -0.0264  0.1046  0.0844
10326W        W25795  14.376   9.329   9.602  0.1489  0.0795  0.0764
10327W        W25796  16.044  16.946  14.046 -0.0364 -0.1576  0.0677
10328W        W25797   0.616  14.027  12.900  0.0522 -0.0841  0.1324
10329W        W25798   0.534   9.387  12.577  0.0095  0.2052  0.0500
10330W        W25799   5.085  12.205   0.342  0.0026 -0.3619 -0.2264
10331W        W25800  16.896   6.074  12.876  0.1998  0.1651  0.1912
10332W        W25801  14.501   4.211  12.748  0.1502 -0.2083 -0.1962
10333W        W25802   7.396   3.013  10.036  0.0026  0.1145 -0.1445
10334W        W25803  11.837   6.080   0.721 -0.2024 -0.1931  0.1189
10335W        W25804   5.864  17.479  11.797 -0.0433 -0.2137 -0.1615
10336W        W25805  13.719   5.904  15.741 -0.0470  0.0327  0.0446
10337W        W25806   5.329  11.491   2.650  0.1200  0.0460  0.0427
10338W        W25807   9.598   4.251  15.302 -0.1198 -0.2884  0.0097
10339W        W25808   2.318  13.777  12.749 -0.0587  0.1343 -0.2678
10340W        W25809   2.621   1.591  10.805  0.2280  0.0073 -0.1518
10341W        W25810   7.551   0.383   1.057 -0.0644  0.0845 -0.0550
10342W        W25811  13.737   4.447   1.699  0.0406 -0.2744 -0.2512
10343W        W25812   5.056  15.015   0.442 -0.1958  0.1536 -0.1982
10344W        W25813  15.176   3.742  13.476 -0.2344 -0.1571  0.0656
10345W        W25814   9.197   9.988  15.300 -0.2403 -0.0899 -0.0672
10346W        W25815   1.842   6.647  13.821  0.2396  0.1275 -0.3798
10347W        W25816   5.353  15.699   2.834  0.0241  0.1184 -0.0115
10348W        W25817  16.305  11.719   2.756  0.2064  0.1351 -0.1162
10349W        W25818  14.665   6.524   1.235  0.2133 -0.1602 -0.1482
10350W        W25819  14.895  10.989   1.834 -0.2663 -0.2462  0.0653
10351W        W25820   5.992  10.661   0.035 -0.0437 -0.0617  0.0519
10352W        W25821   5.299   1.794   0.259 -0.0047 -0.3891  0.0331
10353W        W25822  10.892   5.574  10.723  0.0811 -0.0094  0.0883
10354W        W25823  12.152  13.092   2.561 -0.0391  0.2313 -0.2658
10355W        W25824  14.223  15.812   1.608  0.0423 -0.0897 -0.0738
10356W        W25825  11.891   9.047  13.279 -0.0715  0.1854 -0.1946
10357W        W25826  18.397  15.188   1.754 -0.0774 -0.1548  0.0274
10358W        W25827   6.295  15.591   5.592  0.3895  0.1856  0.3804
10359W        W25828   1.078  11.233   2.207 -0.0086 -0.0604  0.3478
10360W        W25829  11.561  16.077  14.372  0.1391  0.2472 -0.1081
10361W        W25830   1.853   2.446   0.665  0.1396 -0.0025  0.2161
10362W        W25831  11.466  15.863  15.842 -0.1138  0.1401 -0.0632
10363W        W25832   6.362   1.861   2.960 -0.0525  0.1206  0.0876
10364W        W25833   1.173  15.699   1.971  0.2729 -0.0345 -0.0554
10365W        W25834  12.378   0.183   3.386 -0.0511  0.1426 -0.1779
10366W        W25835  17.813   6.652  14.483 -0.0234  0.0392 -0.2239
10367W        W25836   6.038  11.863   3.713 -0.0654  0.0126  0.1716
10368W        W25837   2.674   1.681  13.235  0.0107  0.3609 -0.1899
10369W        W25838   9.315   5.366   1.962 -0.2087  0.3963  0.4269
10370W        W25839   5.144   4.270  15.210 -0.0354  0.1665 -0.2226
10371W        W25840   4.672  15.934  14.256 -0.1721 -0.0715  0.1824
10372W        W25841  11.491  12.023   0.840  0.0168  0.3238 -0.1404
10373W        W25842   6.937   2.722  14.380 -0.2389  0.2982 -0.2356
10374W        W25843  14.114  14.584   4.639 -0.0269  0.1590 -0.2313
10375W        W25844  17.912   6.878   3.110 -0.2894  0.2327 -0.0353
10376W        W25845  17.340   0.179  15.885  0.0241 -0.2011 -0.1382
10377W        W25846  10.362   9.508   0.689 -0.1652  0.0001 -0.0767
10378W        W25847  11.208  18.021   0.494 -0.4001 -0.1895  0.1002
10379W        W25848  17.901  15.758   4.370 -0.0524  0.0933 -0.2850
10380W        W25849  15.748  13.006   1.923  0.0762 -0.1671  0.4031
10381W        W25850   6.224   3.370   6.044 -0.1814  0.1938 -0.1003
10382W        W25851  13.915  12.103  11.616  0.0483 -0.4836  0.0072
10383W        W25852  13.462  16.475  13.169 -0.1575  0.0547 -0.0505
10384W        W25853   7.257   9.423   4.099  0.3201  0.2104  0.0018
10385W        W25854   7.139   4.543   4.352 -0.0293  0.0418  0.1053
10386W        W25855  15.950  13.331   5.222  0.0523 -0.0421  0.0567
10387W        W25856  10.372  11.795  13.161  0.0810 -0.5936 -0.2062
10388W        W25857  17.515  12.015  15.824  0.0829 -0.0836  0.2206
10389W        W25858  14.697  15.982   1.601  0.1487  0.1451 -0.1543
10390W        W25859   7.980   8.415  11.541  0.4151  0.1920  0.4614
10391W        W25860  16.382   7.645  11.731 -0.0927  0.2607  0.1481
10392W        W25861  12.142   2.234   2.945  0.1129 -0.1082 -0.1024
10393W        W25862   8.961   8.815   4.568 -0.2606  0.1933  0.0513
10394W        W25863  12.581   0.188  11.161 -0.0078 -0.0831  0.0243
10395W        W25864   4.162  12.093  11.366 -0.1725  0.1230 -0.1533
10396W        W25865   6.709  14.418   2.852 -0.0995  0.1738  0.0022
10397W        W25866   6.346  16.540  15.166 -0.5051 -0.2437 -0.0612
10398W        W25867  12.686   8.557  15.028  0.2002  0.1967 -0.0951
10399W        W25868   8.397   4.865   0.085  0.1446  0.1614  0.0682
10400W        W25869   0.547   4.291  12.507  0.2101 -0.3144  0.0556
10401W        W25870  12.488   6.463   1.603 -0.1817  0.1492 -0.1393
10402W        W25871   5.879   4.357   3.659 -0.1151  0.0746  0.0812
10403W        W25872   9.837  11.825  11.736 -0.2314 -0.0515  0.2135
10404W        W25873  15.799  16.409   1.621  0.0682 -0.1104  0.0763
10405W        W25874   2.707   3.781   5.586 -0.2586  0.0336 -0.2812
10406W        W25875   7.077   2.490   4.602 -0.0170  0.0827  0.2460
10407W        W25876   6.407  11.580  12.251  0.1546  0.2408  0.0634
10408W        W25877  17.301  12.082   4.748 -0.2225 -0.0120  0.0685
10409W        W25878  14.488   7.043  13.475 -0.0902  0.0015  0.4124
10410W        W25879  16.647  17.777   0.115 -0.1181  0.0593  0.3484
10411W        W25880  11.128   6.700  10.584  0.1132  0.0217 -0.1125
10412W        W25881  18.193   5.326  15.206 -0.2889 -0.0793  0.1155
10413W        W25882   0.201  10.722   0.582  0.4026  0.1609 -0.0767
10414W        W25883   8.500   4.855  12.844 -0.3279 -0.1236  0.1944
10415W        W25884  16.145   4.821   1.162  0.3415  0.0341  0.2485
10416W        W25885  12.737   0.652  10.963  0.0068  0.3261  0.0111
10417W        W25886  15.508  10.619  10.462 -0.2767 -0.2942 -0.1612
10418W        W25887   9.692  14.035  12.732 -0.2709 -0.1284  0.1202
10419W        W25888   5.773  13.141  12.365 -0.0013 -0.1991 -0.0648
10420W        W25889   4.881   3.013  15.111 -0.2220  0.0049 -0.3859
10421W        W25890   8.109   7.939   3.078 -0.3594 -0.0122  0.0157
10422W        W25891   4.333  17.194  12.315 -0.0969 -0.0036 -0.3266
10423W        W25892   5.334   2.170  14.345  0.1009  0.0768  0.1112
10424W        W25893  10.384  16.604   6.099 -0.3317 -0.0753 -0.0387
10425W        W25894   5.056  15.688  14.326  0.2422  0.2279  0.1974
10426W        W25895  15.757   0.455  13.005  0.0647 -0.2082  0.1629
10427W        W25896   0.636  12.303   1.349 -0.2829 -0.2087  0.2445
10428W        W25897  14.247   2.388   1.099  0.1476  0.1296  0.1680
10429W        W25898  17.043   9.474  14.852 -0.0845  0.0038  0.2192
10430W        W25899  16.213   8.168  13.892 -0.3144 -0.1138  0.1082
10431W        W25900   2.191  17.134   4.952  0.0028  0.0977  0.1067
10432W        W25901   8.308   5.584  11.806  0.0579 -0.2442  0.1433
10433W        W25902  14.449  14.816  12.945 -0.1143 -0.1598  0.0543
10434W        W25903  12.556  12.175  14.008 -0.0242 -0.2591  0.2248
10435W        W25904   8.844   2.005  13.523  0.0290 -0.4230 -0.0245
10436W        W25905   6.990  10.948   1.350 -0.3471  0.0408  0.1524
10437W        W25906   4.224   6.378   0.684 -0.3501  0.1832  0.0079
10438W        W25907   6.665   4.356   4.301 -0.2296  0.0821 -0.1460
10439W        W25908   7.976  12.885   4.686  0.2979 -0.0892  0.0716
10440W        W25909  12.251   6.799  12.674 -0.0383 -0.1228 -0.3143
10441W        W25910   0.839   9.805   5.449  0.0154  0.2369 -0.2081
10442W        W25911  18.270   4.947   3.955  0.2543 -0.0816 -0.3774
10443W        W25912  11.361   2.753  15.772  0.0750 -0.0678  0.2469
10444W        W25913   7.687   7.096  12.794  0.2096  0.1056  0.2270
10445W        W25914   4.780  13.280   3.111  0.2541  0.0428 -0.0786
10446W        W25915   9.224   1.717  12.111 -0.0289  0.2219 -0.1230
10447W        W25916   3.978  17.270  15.554  0.0061  0.1832 -0.0414
10448W        W25917   8.725  12.938   1.081 -0.1896  0.2127 -0.0611
10449W        W25918   4.354   1.037   2.768 -0.3033  0.2331 -0.5116
10450W        W25919   8.774   9.119   1.351 -0.0522 -0.0386 -0.0043
10451W        W25920   7.525  12.510   0.201  0.0323  0.2950  0.0036
10452W        W25921   1.332  17.775  11.171 -0.2680 -0.3850  0.1288
10453W        W25922  16.525  15.312   4.349  0.1236 -0.3475  0.1465
10454W        W25923  13.748   3.169   5.453 -0.1554 -0.2198 -0.0214
10455W        W25924  14.876   9.828   0.036 -0.0126  0.1336 -0.3521
10456W        W25925  11.616  11.088  15.073 -0.0004  0.0588  0.2196
10457W        W25926  17.824  12.699   3.430 -0.0741 -0.0902  0.4532
10458W        W25927  14.493   6.454   5.754 -0.2843  0.2057  0.2609
10459W        W25928  14.713   6.140  14.957 -0.1971  0.0818  0.1378
10460W        W25929   2.632  11.565   4.893 -0.0751 -0.4354  0.0527
10461W        W25930   7.660   9.645   4.685  0.1556  0.0131 -0.1206
10462W        W25931   0.198  12.464   1.766  0.1679 -0.1991  0.2521
10463W        W25932   2.143   9.774   9.841 -0.1798  0.0112  0.1837
10464W        W25933   1.612   7.194   2.336 -0.1253 -0.2445  0.1130
10465W        W25934   4.379   0.001   1.101  0.1477 -0.2021 -0.1936
10466W        W25935   8.547   3.181  11.540 -0.0563  0.2732 -0.1720
10467W        W25936  12.225  10.916  11.910 -0.0262 -0.2663 -0.1016
10468W        W25937   9.293   0.384  13.358 -0.2969 -0.1891 -0.3242
10469W        W25938   0.122  18.066  13.975 -0.0438 -0.0439  0.0447
10470W        W25939   9.464  11.466  13.241  0.1915 -0.0248 -0.6366
10471W        W25940  11.525   5.872   4.723  0.1687 -0.1491 -0.3047
10472W        W25941  14.395   0.525   1.460  0.1821 -0.2790  0.0538
10473W        W25942   0.610   8.681   1.919 -0.0555 -0.0853  0.0585
10474W        W25943   7.893   7.442   1.718  0.0426 -0.1816  0.0799
10475W        W25944  14.608   7.958  15.667 -0.4236  0.2700  0.2770
10476W        W25945  13.658  17.031  11.332 -0.0156  0.0454  0.1272
10477W        W25946  17.232  12.383   0.507  0.3517  0.0162 -0.1835
10478W        W25947   4.703  10.753  10.904  0.1739  0.3658  0.3433
10479W        W25948  17.528   5.315   1.498  0.0875  0.2193  0.0595
10480W        W25949  15.791  15.126  13.200 -0.2412 -0.3810 -0.0351
10481W        W25950   3.575  15.290   1.938  0.2040  0.2502  0.0342
10482W        W25951   1.131   7.591  12.406  0.0053 -0.0254 -0.1767
10483W        W25952  17.070  17.384  13.323 -0.0150 -0.2636  0.1747
10484W        W25953   7.107  16.752   1.911  0.3037  0.1062  0.0982
10485W        W25954   0.814   5.818  12.842 -0.2798  0.1873 -0.1776
10486W        W25955  10.509   7.789  14.762 -0.1508 -0.0642 -0.3140
10487W        W25956   8.446  17.705   0.193  0.0907  0.1122 -0.0807
10488W        W25957  14.110  12.111   1.976  0.3893 -0.2270 -0.0259
10489W        W25958   2.887   7.068  12.056  0.1571 -0.2410  0.1896
10490W        W25959  15.947  11.740   1.324 -0.0944 -0.1693 -0.1738
10491W        W25960  14.885   2.888   2.579  0.0408  0.0359  0.0994
10492W        W25961  11.391  16.204  15.084 -0.1973  0.2993 -0.0098
10493W        W25962   2.726   0.290  12.849 -0.2156  0.3537  0.0370
10494W        W25963   2.266   5.050   1.230  0.0810 -0.0241 -0.2784
10495W        W25964   6.443   8.128  14.910 -0.1884 -0.0177 -0.3219
10496W        W25965  15.706  17.939   4.912  0.1513  0.1247  0.0666
10497W        W25966  12.994   9.700   0.285 -0.1785 -0.0007 -0.1082
10498W        W25967   0.793   1.656   5.346 -0.0278  0.0629  0.0140
10499W        W25968   7.005  16.395  13.938  0.0055 -0.0412  0.0799
10500W        W25969  16.312   6.809   3.425 -0.1784 -0.2315 -0.2801
10501W        W25970  13.976  13.834   4.977 -0.0273 -0.0338  0.0228
10502W        W25971   3.070   1.466   5.018 -0.0072 -0.0168 -0.1617
10503W        W25972   8.365   5.923  15.851  0.4256 -0.0250  0.1095
10504W        W25973  10.118  12.050  12.578  0.3293 -0.0175  0.1349
10505W        W25974   0.419   7.139   3.803 -0.0805 -0.3113 -0.0011
10506W        W25975   7.911  14.602   1.460 -0.0657 -0.1416 -0.0068
10507W        W25976   6.319   7.554   4.255 -0.1599 -0.4124  0.1582
10508W        W25977   0.354  14.980   2.604 -0.0486 -0.2162 -0.1961
10509W        W25978   7.373   0.651  15.310  0.0968  0.2599 -0.3085
10510W        W25979   0.197  11.553   3.380  0.2867  0.1328  0.1605
10511W        W25980  17.360   7.960   5.086  0.1664 -0.0072 -0.2720
10512W        W25981  12.342   6.817   2.481  0.0060  0.0750  0.0681
10513W        W25982  13.382  12.318  12.697 -0.1386  0.0528  0.0724
10514W        W25983  13.437   6.434  10.775  0.1269 -0.1250  0.0749
10515W        W25984   5.440  10.346   4.931 -0.3108 -0.1741  0.2473
10516W        W25985  12.048  10.158  10.575 -0.2160 -0.0274  0.0959
10517W        W25986  11.133   8.124  12.277  0.0283  0.1049 -0.0413
10518W        W25987  12.922  16.960  14.160 -0.1156 -0.2114  0.2739
10519W        W25988  13.956  17.507  11.345  0.2288 -0.1253  0.1025
10520W        W25989   9.815  15.862   4.186 -0.1986 -0.2519 -0.1874
10521W        W25990   4.078   1.244   1.000  0.3190  0.0144  0.0675
10522W        W25991  18.242   7.261  11.137 -0.1323 -0.0080  0.2009
10523W        W25992   9.615   0.572  13.032  0.0754  0.0532 -0.1597
10524W        W25993   3.804  14.916  11.960  0.0945  0.0054 -0.1052
10525W        W25994   1.557  10.700  12.535  0.2921 -0.4874  0.0889
10526W        W25995   7.842   0.458  15.617  0.0410 -0.2514 -0.2471
10527W        W25996   3.239  14.281  12.364  0.2645 -0.1779  0.2227
10528W        W25997  14.625   5.827  11.655  0.3791 -0.0852  0.2989
10529W        W25998  16.718   3.464  11.906 -0.0551  0.0560 -0.0230
10530W        W25999   1.724   9.459   4.229  0.0403 -0.0481 -0.1056
10531W        W26000   4.518   6.482  10.757  0.1985  0.1219 -0.1005
10532W        W26001  10.557  15.084   3.025 -0.2539  0.3509  0.1782
10533W        W26002  10.034   2.148   2.526  0.1936  0.1242 -0.1644
10534W        W26003  15.748  12.720  11.454  0.0029  0.1380  0.0141
10535W        W26004   8.694  16.832  11.541  0.0477 -0.1043 -0.1061
10536W        W26005   7.913   0.908  15.869  0.1028  0.1549 -0.2669
10537W        W26006   0.321   7.981  13.019  0.4976  0.0374  0.1804
10538W        W26007   1.808   0.461   3.346  0.2262 -0.1268  0.3264
10539W        W26008  10.626   6.989   2.354  0.2567 -0.2802 -0.1661
10540W        W26009  14.272   2.549  14.862 -0.1173 -0.1119  0.0379
10541W        W26010   9.836   6.579   3.949 -0.2545 -0.0482 -0.1203
10542W        W26011   2.828   9.087  14.683 -0.0264 -0.2568  0.0604
10543W        W26012   1.029   6.342  11.631 -0.2034 -0.0567  0.0978
10544W        W26013  16.643  15.847  14.829  0.0418 -0.4732 -0.0149
10545W        W26014  11.100   1.772  14.060  0.4540  0.3368 -0.1686
10546W        W26015   6.972   0.548  13.550  0.4116  0.2568 -0.0718
10547W        W26016   6.919   7.092   3.914  0.0561  0.0658 -0.2843
10548W        W26017  15.197   8.135   0.005  0.0499 -0.3254  0.0722
10549W        W26018   3.801  13.632  13.933  0.2306 -0.1652 -0.0395
10550W        W26019  13.224   0.437   2.528  0.0463 -0.2880 -0.0608
10551W        W26020   7.230  13.944   3.176  0.3051 -0.1410 -0.1741
10552W        W26021   6.276  10.644  12.493 -0.0237 -0.0838 -0.1359
10553W        W26022   7.973   4.721   1.531  0.0530 -0.1773 -0.0180
10554W        W26023  17.785  10.342   0.561 -0.4301  0.1437 -0.2503
10555W        W26024   2.774  13.453   0.684  0.0097  0.3036  0.1345
10556W        W26025   5.048  11.211  10.975 -0.1052 -0.3175  0.0059
10557W        W26026  12.315   5.820   5.773 -0.0704  0.5544  0.1987
10558W        W26027  15.856  12.567   1.702 -0.5518 -0.0127  0.0113
10559W        W26028  14.796  17.651   1.800 -0.0911 -0.0393 -0.3445
10560W        W26029   1.183  17.402   2.427 -0.3739 -0.0215 -0.0760
10561W        W26030  13.819   9.085  14.434  0.2110 -0.1181 -0.1322
10562W        W26031  12.380   0.330   2.440 -0.2130 -0.0816 -0.1032
10563W        W26032  17.142   1.798  14.575  0.0784 -0.0756 -0.1049
10564W        W26033   9.283   4.480   3.250 -0.0920 -0.1095  0.2724
10565W        W26034   5.467   8.918   1.930  0.1080  0.2591 -0.1556
10566W        W26035   3.665  16.880  11.700 -0.1279  0.2991  0.0599
10567W        W26036  16.573   5.509   0.002 -0.0235 -0.3420  0.0786
10568W        W26037  12.131  17.975   0.594  0.0988 -0.0802  0.2534
10569W        W26038   7.931  14.167  11.335 -0.1554 -0.0580  0.3636
10570W        W26039   4.242   3.197  13.453  0.0482 -0.1805 -0.0611
10571W        W26040   6.087  17.145   0.308  0.2099 -0.0346 -0.0101
10572W        W26041  15.517  11.040  10.892  0.0124  0.1866 -0.0473
10573W        W26042   9.498   6.514   3.332 -0.2753  0.3121 -0.0111
10574W        W26043   9.165  16.770  14.765 -0.0586 -0.2956  0.1357
10575W        W26044  11.091  10.853  11.104 -0.0812  0.0522  0.0666
10576W        W26045  15.539  12.039  15.859 -0.2322  0.0322  0.0046
10577W        W26046   1.955  17.601  12.539  0.0076  0.2616 -0.0157
10578W        W26047   5.221  11.257   3.979 -0.0477  0.1489 -0.3378
10579W        W26048  11.566   1.513  11.544 -0.1589  0.0837  0.2985
10580W        W26049   9.725   5.829  11.672 -0.1099 -0.2221 -0.1210
10581W        W26050  12.176   4.168   3.146 -0.4082  0.0598 -0.0085
10582W        W26051  16.154  16.011  11.278  0.2049 -0.3699  0.0801
10583W        W26052  11.251   3.716   1.444 -0.3066 -0.2562  0.2100
10584W        W26053  12.741  17.353  14.432 -0.4265 -0.0540  0.1044
10585W        W26054  13.209  12.728   3.408  0.4770 -0.0200  0.1256
10586W        W26055   4.417  13.287  12.926 -0.1488 -0.0303 -0.3301
10587W        W26056  15.985   2.677   1.875 -0.0346  0.0478 -0.0928
10588W        W26057  13.736   4.751  12.941 -0.0402  0.1451  0.3370
10589W        W26058  14.179  13.202  13.446 -0.0550  0.1731 -0.4141
10590W        W26059  16.588   1.410  10.896  0.1623 -0.4635 -0.1724
10591W        W26060   6.325   4.782  14.597  0.0299  0.2538 -0.2264
10592W        W26061  16.878  10.573   2.064  0.0932  0.1004  0.1380
10593W        W26062  13.313   0.303  14.436 -0.1656 -0.1297 -0.0844
10594W        W26063  15.596  13.116   2.397  0.0473  0.2678  0.1568
10595W        W26064  15.718  12.444  14.507  0.1098 -0.4276  0.2877
10596W        W26065   9.820   6.935  13.525  0.1383 -0.1369 -0.2902
10597W        W26066  18.007   4.089  14.924  0.0338  0.0560 -0.2809
10598W        W26067  15.852  12.789   5.217 -0.4028  0.1527  0.3057
10599W        W26068   9.163  13.574  10.824 -0.1952  0.1713 -0.0604
10600W        W26069  13.147  11.855   0.424  0.2965  0.1545  0.3795
10601W        W26070  10.795   5.663  14.490  0.2560  0.0679 -0.1926
10602W        W26071   2.470   3.610   0.236 -0.0903  0.1290 -0.0086
10603W        W26072   4.166  17.072   0.710 -0.2031 -0.3227 -0.0610
10604W        W26073  15.003   1.938  14.436  0.0860  0.0832 -0.1084
10605W        W26074   3.725   7.304   3.810  0.0591  0.0865  0.1221
10606W        W26075  11.767   4.418  14.353  0.0980  0.2980  0.0458
10607W        W26076  17.476  15.725  13.056 -0.1987 -0.0139  0.0592
10608W        W26077  17.703   8.255   3.336  0.0977  0.1245  0.1442
10609W        W26078   2.741   6.045   1.813  0.0220  0.0449 -0.0606
10610W        W26079   3.733  17.761   1.246 -0.1280  0.0160 -0.0925
10611W        W26080  14.010   5.564   4.528  0.0393 -0.1836  0.0470
10612W        W26081   5.921   7.317  11.843 -0.3453  0.1213 -0.0547
10613W        W26082  15.542   6.250  14.334  0.0970  0.1428  0.0593
10614W        W26083  11.522  18.438   3.116 -0.0420 -0.0572 -0.0193
10615W        W26084  11.639  15.401  12.955 -0.2106 -0.0353 -0.0830
10616W        W26085  10.059   6.493   1.855  0.0250 -0.3913 -0.0747
10617W        W26086  17.470   0.870   0.770  0.2543 -0.1631  0.1470
10618W        W26087  10.979  10.841  11.900 -0.1986 -0.0204 -0.1538
10619W        W26088  15.041   3.418   1.147  0.1146 -0.0469  0.1206
10620W        W26089   9.300   7.146  11.194 -0.3542 -0.3020  0.0110
10621W        W26090   2.801   3.188  11.833  0.0547 -0.1068  0.1449
10622W        W26091  12.378   0.610   3.103 -0.2468  0.1057 -0.2322
10623W        W26092   1.393   7.543   3.610 -0.0177  0.0507 -0.2312
10624W        W26093   3.414  10.406   4.658  0.3000 -0.0703  0.2901
10625W        W26094  10.323   1.549  15.137  0.2226 -0.1318 -0.2723
10626W        W26095  15.878  13.518  14.961  0.1424  0.0005 -0.0204
10627W        W26096  10.486  15.828  11.435  0.0746  0.2063 -0.3547
10628W        W26097   5.375   7.648   1.683 -0.2528 -0.0921  0.0495
10629W        W26098  10.483   8.053  15.573  0.0377 -0.1478 -0.0212
10630W        W26099  16.221   2.245   1.835  0.1289  0.0752  0.1206
10631W        W26100  10.467   2.646   1.028  0.0214 -0.0129  0.1879
10632W        W26101   9.585   0.995   5.376 -0.0654 -0.2314 -0.2419
10633W        W26102   0.795   1.334   3.594  0.1342 -0.1149 -0.0413
10634W        W26103   5.438  12.499   4.166  0.2384  0.2027 -0.3724
10635W        W26104  16.197   6.133   2.174 -0.2253  0.0270 -0.1894
10636W        W26105   5.538   8.990  14.047  0.0374  0.2865 -0.0076
10637W        W26106   6.014  13.491  12.656  0.0099 -0.2374 -0.2181
10638W        W26107  13.053  17.930  12.095  0.1834  0.0169 -0.0788
10639W        W26108   3.269   0.860   2.065 -0.0724 -0.1581 -0.1607
10640W        W26109  15.285  10.574   4.762 -0.1130 -0.1122 -0.2676
10641W        W26110   6.414   3.073  14.875 -0.0980 -0.0904 -0.1162
10642W        W26111  17.588  14.737  12.485 -0.0515 -0.3381 -0.2301
10643W        W26112   9.106  18.203  10.280  0.1730  0.0582  0.1638
10644W        W26113   7.049   4.126   4.098  0.0720 -0.0303  0.0862
10645W        W26114   0.037  10.074  13.842 -0.2831 -0.0379 -0.1739
10646W        W26115  16.311  14.928   6.020 -0.0614  0.1000  0.1936
10647W        W26116  14.667  16.840   0.570 -0.0403 -0.0408 -0.2208
10648W        W26117  10.267   5.785   2.541  0.1282  0.3033  0.0098
10649W        W26118  11.626   7.369   0.943  0.0075 -0.1714  0.2518
10650W        W26119  17.006   3.482  13.397 -0.0943  0.0569 -0.0640
10651W        W26120  14.613   6.521  14.696 -0.0293 -0.0969  0.2317
10652W        W26121   2.868  13.308  12.684 -0.0563  0.1954 -0.1409
10653W        W26122   4.247  10.940  12.708  0.0705 -0.1040 -0.0058
10654W        W26123  17.321   5.228  12.853 -0.0067  0.0563 -0.0319
10655W        W26124  12.221  12.707   3.274 -0.1958  0.0582 -0.1564
10656W        W26125   4.422  17.898   2.602 -0.2582 -0.0253 -0.0342
10657W        W26126  15.227   0.630  12.737 -0.0647 -0.0316 -0.2270
10658W        W26127  15.059  11.661  11.326  0.1138 -0.2276  0.1943
10659W        W26128  11.220  16.622   5.304 -0.1303 -0.0692 -0.0098
10660W        W26129  16.542   3.747   0.917  0.1106 -0.1195  0.3895
10661W        W26130   0.132   6.499   9.746  0.0480  0.0735 -0.0426
10662W        W26131  17.327   4.938  10.126 -0.1166 -0.0492  0.0805
10663W        W26132   5.523  10.795   4.715  0.0471  0.0486  0.3296
10664W        W26133  11.801  18.118   5.573  0.2175  0.0313  0.0305
10665W        W26134  10.966  10.120  13.145  0.2025 -0.1680  0.2798
10666W        W26135   2.817   2.493  15.661 -0.0728  0.0444 -0.6085
10667W        W26136   9.716  13.541  12.698  0.2374  0.3716  0.3290
10668W        W26137   1.605   3.261   1.088 -0.1165 -0.1144  0.3793
10669W        W26138   7.564  10.045   2.160  0.0509 -0.1873 -0.4243
10670W        W26139   4.014   1.991  11.882  0.0413  0.1957 -0.1004
10671W        W26140   8.729  11.730  11.956 -0.2271  0.1917  0.0522
10672W        W26141  14.095   9.819   5.351  0.1165  0.2895  0.0373
10673W        W26142   8.608   9.730   4.897  0.1045  0.2189 -0.1151
10674W        W26143  12.161   4.647  14.946 -0.0762  0.1780 -0.3039
10675W        W26144   7.211  16.830  14.042 -0.2367  0.1160 -0.1257
10676W        W26145  14.640  14.414   2.210  0.1191  0.4083  0.1226
10677W        W26146  14.121  11.829  12.934 -0.0423 -0.4305 -0.1906
10678W        W26147   9.049  14.609   1.159 -0.0204 -0.0923  0.0175
10679W        W26148   5.383  12.683   1.372  0.0431 -0.3511  0.1456
10680W        W26149  16.497  15.576  11.210 -0.0010 -0.0435 -0.2179
10681W        W26150  10.288  14.628  14.062  0.0106  0.1130 -0.2069
10682W        W26151   3.093  11.746   0.195 -0.1188 -0.0369  0.1223
10683W        W26152  12.859  11.100   0.721  0.2493  0.0688 -0.0008
10684W        W26153   8.208   4.579  14.094  0.0858 -0.1862 -0.1082
10685W        W26154  11.218   0.552   1.136 -0.4224 -0.1238 -0.3172
10686W        W26155   4.054  14.385   0.961  0.1891  0.0145 -0.0300
10687W        W26156   1.550   0.135  14.333 -0.3190 -0.2465 -0.0936
10688W        W26157  15.003  12.574   2.652 -0.3088  0.2949  0.3142
10689W        W26158   6.312   5.507   5.566 -0.0631 -0.2033  0.1942
10690W        W26159  14.237   0.813   4.110 -0.2578 -0.2818 -0.2238
10691W        W26160  10.425  14.187   2.206  0.0577  0.0750  0.1956
10692W        W26161   3.127   1.770  12.891 -0.0833 -0.0852 -0.1994
10693W        W26162  18.064   6.422   4.976 -0.3153 -0.2106  0.1220
10694W        W26163   3.661   8.440  14.682  0.2955 -0.1967 -0.2740
10695W        W26164  10.062   9.529   2.074 -0.0608 -0.2642 -0.2855
10696W        W26165  10.302   3.642   0.496  0.2440  0.2080 -0.3489
10697W        W26166  10.950   3.231   4.334  0.1752 -0.2189 -0.1540
10698W        W26167  13.842  14.815  12.647  0.0934 -0.0880  0.1392
10699W        W26168  14.731  10.242  14.020  0.1998  0.2611  0.2855
10700W        W26169   2.058   7.204  15.641  0.0527 -0.3385  0.3529
10701W        W26170   7.798  16.498   0.689 -0.1100 -0.0892  0.2847
10702W        W26171   6.056  13.098   5.516  0.1768  0.0723 -0.1159
10703W        W26172  13.969  13.240  12.523 -0.0584  0.0524 -0.2061
10704W        W26173   1.686  12.693   5.908 -0.0911  0.1424  0.0271
10705W        W26174   0.687  14.708  10.426  0.1528 -0.1161  0.0252
10706W        W26175   3.588   1.933  12.762 -0.1205 -0.0627  0.1882
10707W        W26176  16.374  14.024   1.807 -0.0870 -0.1723  0.1408
10708W        W26177  16.578   4.330  12.499  0.0264 -0.1059 -0.0741
10709W        W26178   1.610   2.708  13.037  0.4140 -0.0953 -0.2005
10710W        W26179   3.386  13.324   2.521  0.0883  0.2211 -0.2857
10711W        W26180  14.035   3.193  13.734 -0.4029 -0.0262  0.2570
10712W        W26181  12.728  17.917  15.680  0.0127 -0.0483  0.1692
10713W        W26182   3.901   2.919   0.298 -0.1125  0.1781 -0.0015
10714W        W26183  15.697   5.727  15.897  0.0135 -0.1298 -0.0853
10715W        W26184   6.437   7.257  11.924  0.0198 -0.2868 -0.2664
10716W        W26185  14.368   4.352  15.358 -0.1037 -0.2087 -0.0534
10717W        W26186  11.078  10.457   3.006  0.1945  0.1148  0.3867
10718W        W26187   6.535   8.309   1.837 -0.0922  0.0958  0.1964
10719W        W26188   0.148   6.247  13.114 -0.1047 -0.1267  0.1748
10720W        W26189   0.623  12.446  13.005 -0.3750  0.0579 -0.2388
10721W        W26190   9.481   5.508  13.467  0.2427 -0.0765  0.0293
10722W        W26191   7.347   8.285  14.993  0.2112  0.3411  0.1759
10723W        W26192  14.259   1.597  10.685  0.1141 -0.0012 -0.0059
10724W        W26193   0.179   8.438   5.097  0.1942  0.0192 -0.2417
10725W        W26194   1.203   8.789  14.909 -0.1739 -0.2342 -0.2895
10726W        W26195   0.390  10.401  13.786  0.0157 -0.3077  0.0090
10727W        W26196   8.928  14.425  14.625 -0.0882 -0.0396 -0.0213
10728W        W26197  16.784  10.762  13.273  0.0721 -0.0992 -0.1201
10729W        W26198  12.182  16.985  11.544  0.1468  0.0176 -0.3862
10730W        W26199  10.980   3.649  14.827 -0.2920  0.0176 -0.1845
10731W        W26200   0.985  13.905  15.183 -0.2536  0.2461 -0.2841
10732W        W26201  10.765   5.131  13.181  0.1966  0.0233 -0.0431
10733W        W26202   3.710  17.725  15.403  0.0045 -0.0512  0.0008
10734W        W26203  12.586  10.801  14.617 -0.0331 -0.0957 -0.1413
10735W        W26204   9.876  11.152  14.846  0.3125 -0.0980 -0.2201
10736W        W26205  12.267   1.528   3.543  0.0676  0.1857 -0.0418
10737W        W26206  17.148  14.992   2.031 -0.1420  0.1809  0.2258
10738W        W26207   7.197   7.547  12.160  0.0220  0.2331 -0.0977
10739W        W26208   8.625   2.546  14.670 -0.0449 -0.3313  0.0174
10740W        W26209   8.805   9.519   0.157  0.0474  0.2263  0.2092
10741W        W26210   5.981  14.430   3.206  0.4219 -0.3542 -0.0216
10742W        W26211  12.329  14.201  10.079 -0.0801  0.0611 -0.0391
10743W        W26212  18.330   5.271   0.428 -0.0047  0.0441 -0.5670
10744W        W26213  12.070   8.869  15.692  0.1483  0.0720 -0.0693
10745W        W26214   4.236   5.418   2.934  0.1147 -0.1435  0.4781
10746W        W26215   5.242  17.353   3.705 -0.3572 -0.0499 -0.0558
10747W        W26216  12.722   2.596  11.745  0.3367 -0.1095 -0.2817
10748W        W26217  16.171  17.660  12.671  0.2013  0.1174  0.1354
10749W        W26218  13.425   6.061   1.361 -0.0433 -0.1631  0.1820
10750W        W26219   0.391  13.960  11.937 -0.1716 -0.0480  0.0352
10751W        W26220  17.659   1.312  11.300  0.0382  0.1261 -0.0993
10752W        W26221  17.309  17.387  15.886 -0.3183 -0.1395  0.0143
10753W        W26222   5.046   4.455   3.542 -0.1294 -0.1225 -0.0246
10754W        W26223   3.870   2.269   2.429 -0.3149 -0.0247  0.1996
10755W        W26224   8.623  13.731  14.434 -0.0976 -0.0116 -0.1961
10756W        W26225   1.516   9.720   6.138  0.2205  0.1708 -0.0585
10757W        W26226  12.696   7.341  15.851 -0.1151  0.1978  0.0582
10758W        W26227   0.329   5.557   1.125  0.1123 -0.0655  0.0934
10759W        W26228   3.276  17.958  12.971  0.0801  0.0189  0.2214
10760W        W26229   7.244   5.285   1.862  0.0415 -0.0765 -0.0249
10761W        W26230   3.561  18.144  15.722  0.1219  0.1944  0.0209
10762W        W26231  11.839   1.060   4.561  0.0642  0.1367 -0.1778
10763W        W26232   0.185  13.071   1.672 -0.0449  0.0115 -0.0970
10764W        W26233   5.775   2.273   4.171  0.2331 -0.1885  0.3272
10765W        W26234   1.625   0.961   1.892  0.1975 -0.1727 -0.2349
10766W        W26235  11.637   9.926   4.804  0.3216  0.3018 -0.1023
10767W        W26236   8.839   0.238  12.665 -0.0686  0.0844  0.4568
10768W        W26237   6.541  14.413   4.376  0.1129  0.0790  0.2224
10769W        W26238   4.758  14.148   2.954  0.0138 -0.1121  0.1068
10770W        W26239  14.894   2.638   4.685  0.0297  0.1320  0.0829
10771W        W26240  14.630   6.902   3.726  0.1114  0.1342 -0.0513
10772W        W26241  17.480   8.199  12.725 -0.0522 -0.1556 -0.0776
10773W        W26242  16.556   7.001  13.780  0.0512  0.1014  0.0380
10774W        W26243  14.285  10.508  15.740  0.0293 -0.0236 -0.3063
10775W        W26244  10.967  12.002  12.709 -0.1002  0.4472  0.1223
10776W        W26245   1.150  11.739   9.589  0.2496 -0.1341  0.1768
10777W        W26246   6.048   8.761   0.269  0.1937  0.1941  0.0839
10778W        W26247  15.529  14.351  10.968  0.2066  0.1098 -0.1793
10779W        W26248   0.752  13.919   5.369  0.0225  0.2104  0.0735
10780W        W26249   3.779   9.673  14.281  0.3385 -0.0562 -0.0093
10781W        W26250   1.717   2.629  13.532 -0.3025  0.2373 -0.0573
10782W        W26251   3.437   3.432  12.913 -0.2529  0.1628  0.0892
10783W        W26252  16.546   0.964   3.700 -0.0486 -0.3434  0.2832
10784W        W26253  16.605   4.434   2.993  0.1184 -0.3201  0.3602
10785W        W26254  14.162   7.534   3.674  0.1738  0.0110 -0.1799
10786W        W26255   3.964   5.597   4.077  0.1585  0.0434  0.1657
10787W        W26256   3.999  16.246   1.024 -0.1271  0.0549  0.0282
10788W        W26257  15.829  14.198  11.864 -0.1992  0.2096 -0.6164
10789W        W26258   1.455   9.905  10.912  0.1731  0.0438 -0.0282
10790W        W26259  16.659  16.775   3.404  0.0244 -0.2175  0.2523
10791W        W26260   4.207  14.155   5.243  0.2099  0.3591  0.1463
10792W        W26261   0.342   1.841  10.719  0.0194 -0.1700  0.0096
10793W        W26262   8.397   0.031  12.862 -0.0271 -0.1667  0.4107
10794W        W26263   6.920  13.027  11.164  0.0194  0.1920  0.1972
10795W        W26264   4.696   6.201  13.853  0.3283 -0.2520  0.0629
10796W        W26265  12.109   7.182  13.709  0.0895  0.0416  0.3385
10797W        W26266   8.493   6.586   0.878 -0.4075 -0.1823  0.1066
10798W        W26267  15.871   8.142   3.961 -0.0445  0.1520 -0.1972
10799W        W26268   7.289  11.633   1.470  0.0166  0.0248 -0.0249
10800W        W26269  10.306   6.989  13.353 -0.1824  0.0934 -0.2278
10801W        W26270   4.452  11.874  11.810 -0.0311 -0.0017 -0.1028
10802W        W26271  16.533  13.562  12.027 -0.2710 -0.1863 -0.2232
10803W        W26272  15.900  17.454  11.571  0.2539  0.2337 -0.2391
10804W        W26273  16.558   2.681   5.772  0.2152 -0.3924 -0.0235
10805W        W26274  15.038   0.707   1.480  0.0727  0.0877  0.1621
10806W        W26275  16.927  11.654   0.550  0.0570 -0.0035  0.3732
10807W        W26276   9.908   4.021   0.748  0.1162  0.4141 -0.0528
10808W        W26277  12.697  11.524  11.491 -0.1164  0.1009  0.3346
10809W        W26278  12.534   0.126  12.539  0.0767 -0.1106  0.0378
10810W        W26279   4.891   0.507  14.693 -0.2992 -0.2061  0.2119
10811W        W26280   0.897  10.747  15.622  0.2097 -0.1829 -0.1646
10812W        W26281  14.636  13.709  15.521 -0.0764 -0.0439 -0.2336
10813W        W26282   4.174   9.937   4.906 -0.1079  0.0073 -0.0200
10814W        W26283  14.364   2.843  11.853  0.1961  0.1873  0.0505
10815W        W26284  11.995   1.440  13.734 -0.1291 -0.0399  0.0096
10816W        W26285   3.076  11.609  10.059  0.1217  0.2638  0.0302
10817W        W26286  15.729   1.056  13.637  0.3350 -0.0832  0.2083
10818W        W26287   2.267  15.756  11.766  0.2098  0.2497 -0.0760
10819W        W26288  12.614   6.998  15.223 -0.0866 -0.0848  0.3164
10820W        W26289  12.458  15.235   0.818  0.3012  0.1328 -0.0813
10821W        W26290   4.930   3.774  12.764 -0.2033 -0.2923  0.0444
10822W        W26291  16.976  11.203  10.555 -0.0800  0.0406 -0.1450
10823W        W26292  17.886   6.325   1.304  0.1965  0.0624 -0.3573
10824W        W26293  16.352  10.547  14.301 -0.2090  0.1075 -0.1653
10825W        W26294  12.300   4.546   2.833 -0.0674  0.0133  0.1577
10826W        W26295   4.333   1.137   3.288  0.1922  0.2202  0.0755
10827W        W26296   8.566  10.459   1.203 -0.4793 -0.0635 -0.2815
10828W        W26297   8.926  10.021   2.733 -0.0816  0.0995  0.0446
10829W        W26298   3.613   6.640  15.362 -0.0173 -0.1482  0.2474
10830W        W26299   3.512  16.239   0.869  0.0899 -0.1535 -0.2275
10831W        W26300  16.643   1.819  15.371  0.0683  0.0811 -0.3363
10832W        W26301  18.141   0.910  15.850  0.1677 -0.2373  0.1299
10833W        W26302  13.403  15.026   0.953 -0.2591 -0.2125 -0.2897
10834W        W26303  17.018   1.174  13.879 -0.0113  0.2049  0.3123
10835W        W26304  10.879   1.794   0.196 -0.0885  0.0832 -0.0120
10836W        W26305  16.082  10.120  15.330 -0.0459  0.0536 -0.3270
10837W        W26306   8.204  16.303   3.088 -0.1631  0.0559  0.0434
10838W        W26307   9.511   5.518   2.345  0.0757 -0.1426  0.0802
10839W        W26308  16.238   1.249   3.957  0.3563  0.2405 -0.1587
10840W        W26309  11.980  16.354   1.426  0.2502 -0.2476  0.1059
10841W        W26310   8.426   8.682  11.762  0.1464  0.0442  0.0748
10842W        W26311   1.083  10.570   2.963  0.3937  0.0689  0.0799
10843W        W26312  16.802   3.073  15.234  0.0866  0.2813 -0.3297
10844W        W26313  14.591   3.334   3.899  0.0472 -0.1642  0.0046
10845W        W26314  15.474   7.380  10.931 -0.1674  0.0250  0.0124
10846W        W26315   2.902  12.722  14.501  0.1675 -0.0978  0.1724
10847W        W26316   1.251   6.928   1.946 -0.1415  0.0698  0.0009
10848W        W26317  14.695   6.199  10.528  0.3804  0.1046  0.2522
10849W        W26318   7.874   8.498   2.221 -0.3001 -0.1140 -0.3776
10850W        W26319  11.300  11.567   2.745  0.2474 -0.2841  0.4323
10851W        W26320  12.140   8.016  11.122 -0.1394 -0.1849 -0.2756
10852W        W26321   3.667  16.911  13.760 -0.1602 -0.1277  0.0411
10853W        W26322   5.820   4.866  15.743  0.2476  0.0314 -0.0059
10854W        W26323   5.112  14.139  15.057  0.1597 -0.1322  0.0910
10855W        W26324  15.911   9.725  13.280 -0.2899  0.0878 -0.1905
10856W        W26325   2.625  18.105  14.844 -0.3108 -0.1911 -0.1610
10857W        W26326   3.997   7.321   5.544 -0.1524 -0.0822  0.3222
10858W        W26327   1.250  11.141   5.206 -0.1242 -0.0426 -0.3765
10859W        W26328  12.913  10.189  11.160  0.0892  0.0404  0.0640
10860W        W26329   3.124   7.492   0.168 -0.0239 -0.0726  0.2787
10861W        W26330   8.074   9.926   1.883  0.4000  0.0751 -0.0075
10862W        W26331  12.834  11.898  14.295 -0.1257 -0.1331 -0.2126
10863W        W26332   8.645  11.778  15.415 -0.0266  0.2690 -0.1389
10864W        W26333   0.917   4.184  11.114  0.1109 -0.1195 -0.0356
10865W        W26334  14.366  13.003   4.522 -0.2080 -0.1750  0.1554
10866W        W26335  17.604   2.350   4.997  0.0081 -0.1156  0.0992
10867W        W26336  17.030  15.244   2.439 -0.2250 -0.2229 -0.1232
10868W        W26337   9.465  10.645  14.123 -0.0856  0.4567 -0.0656
10869W        W26338   6.743   2.516  15.840  0.0240 -0.0960  0.0029
10870W        W26339  11.637   7.801  14.970 -0.1552  0.0850 -0.0174
10871W        W26340  17.985   9.695   0.277  0.3341 -0.0774  0.0693
10872W        W26341   5.354  14.822   1.320 -0.0375  0.3578 -0.0717
10873W        W26342  10.649   0.819  15.766 -0.1134 -0.2768  0.1706
10874W        W26343   0.871  18.393   5.223  0.1992  0.0911  0.1173
10875W        W26344  17.608  13.664   3.026  0.0323  0.3810  0.1288
10876W        W26345  17.266  17.937   1.877 -0.1867  0.0310 -0.0003
10877W        W26346   9.332   9.625   3.357  0.2311 -0.1382 -0.2871
10878W        W26347  16.542  17.999   2.936  0.1050 -0.1386 -0.0968
10879W        W26348   3.201  13.807   0.422 -0.3532 -0.0249 -0.0701
10880W        W26349  13.407  14.561  10.245 -0.0583 -0.1436 -0.0808
10881W        W26350  14.678   3.711  11.170 -0.4053 -0.1275  0.0991
10882W        W26351  17.513  16.666  13.101  0.3777 -0.1636 -0.3103
10883W        W26352  11.985   3.182   0.271 -0.1595  0.1570 -0.4105
10884W        W26353   2.811  14.591   4.441  0.1590 -0.0542 -0.0372
10885W        W26354   0.767  15.455   1.283 -0.3529 -0.0750 -0.1967
10886W        W26355   5.913  12.854  15.245  0.0735 -0.2487 -0.2222
10887W        W26356   7.509  12.194  14.515 -0.1654  0.0944  0.2365
10888W        W26357  10.717   6.292  13.698  0.1951 -0.1757  0.0738
10889W        W26358  18.132  10.415   0.866  0.1146 -0.1405  0.1035
10890W        W26359  16.429   7.576  12.635  0.0799  0.1107 -0.2761
10891W        W26360  14.418   0.048   4.527 -0.1717  0.0238  0.1868
10892W        W26361  18.025   8.476   0.967  0.1156  0.0853 -0.0018
10893W        W26362   3.548  16.500   3.197 -0.1882 -0.0587  0.0851
10894W        W26363   7.420   0.838  12.302  0.1731  0.0733 -0.0991
10895W        W26364  13.048   2.457   3.405 -0.0580  0.1090 -0.3946
10896W        W26365   3.299   0.553  11.485 -0.0444 -0.0751  0.1910
10897W        W26366  16.098   7.443  13.433 -0.1751  0.1287 -0.2610
10898W        W26367   1.735  11.581  12.072  0.0092 -0.2197 -0.2939
10899W        W26368   7.782   8.689  11.157 -0.5209  0.0619  0.1924
10900W        W26369   9.196  13.560  12.044 -0.0225  0.1465 -0.0541
10901W        W26370   3.472   0.634   0.279  0.0274 -0.3504 -0.1294
10902W        W26371  17.881  10.092   0.009 -0.0996 -0.0102  0.4601
10903W        W26372   9.367   9.955  13.291  0.0904  0.0200 -0.4281
10904W        W26373  13.903  14.211  12.213 -0.1109 -0.2937 -0.0433
10905W        W26374  12.111  13.033  14.115 -0.1411  0.0384 -0.1835
10906W        W26375  13.375  10.238  12.999  0.2460 -0.0771 -0.0452
10907W        W26376  10.486   1.817   2.495  0.2558  0.1862 -0.0540
10908W        W26377   6.842  13.837   3.590  0.0723 -0.0890  0.3489
10909W        W26378   3.417   4.399   3.146  0.0543 -0.0273  0.0214
10910W        W26379   1.186  18.373  13.298 -0.0018 -0.1021  0.1561
10911W        W26380  12.526  17.613  11.358  0.1460 -0.1854 -0.0931
10912W        W26381   5.546  12.319  10.797 -0.1296  0.0169  0.1378
10913W        W26382   3.793  16.394  13.813 -0.2012 -0.0520  0.1522
10914W        W26383   9.927   1.016  14.305  0.1104  0.3134  0.2356
10915W        W26384  11.181   0.731  14.823  0.1318 -0.0085  0.0992
10916W        W26385   7.900  12.653   4.117  0.0523  0.1788 -0.0916
10917W        W26386   5.992  14.950  12.323 -0.1232 -0.3125  0.0321
10918W        W26387  15.904  10.228   5.285 -0.0328 -0.1038 -0.2349
10919W        W26388   9.711   3.632  13.549 -0.4014  0.1967  0.1881
10920W        W26389   8.476   9.130   3.456  0.2257  0.3020 -0.0657
10921W        W26390  14.035  10.805  11.450  0.1779  0.2433  0.2924
10922W        W26391  11.622  11.292   3.812 -0.7199  0.0155  0.0780
10923W        W26392   5.982   5.965   3.395  0.2671  0.1070  0.0764
10924W        W26393   6.296   8.576  12.446 -0.2275 -0.1404 -0.2987
10925W        W26394   8.142   5.412   1.622 -0.0069 -0.0637 -0.0719
10926W        W26395  12.517  17.995  13.769  0.2084  0.1091 -0.1328
10927W        W26396   0.822  17.415   1.924  0.0031  0.3477  0.3115
10928W        W26397  13.561   9.548  12.378  0.0840  0.1810 -0.2600
10929W        W26398   0.134  17.904   1.559  0.3164  0.1419 -0.3503
10930W        W26399   1.548  17.367   0.964 -0.0447  0.0644 -0.0022
10931W        W26400   1.763   6.944   0.566  0.1453 -0.1329  0.0671
10932W        W26401   7.228  13.107  15.564 -0.0822 -0.2077  0.2156
10933W        W26402   7.623   7.645  10.209  0.0919 -0.0794 -0.1213
10934W        W26403   8.957  11.531   2.070  0.0665 -0.1549  0.2337
10935W        W26404   8.970  12.162  11.697  0.1737 -0.0730 -0.2837
10936W        W26405   7.509  13.846   3.710 -0.1601 -0.0566 -0.0471
10937W        W26406   5.209  10.704  10.965 -0.0644  0.0755 -0.1509
10938W        W26407   8.682   4.065   4.996  0.2320 -0.1494  0.2610
10939W        W26408  10.211   7.203   2.060  0.2742 -0.7415  0.1555
10940W        W26409  16.903  14.633  12.842  0.2523 -0.0595  0.1110
10941W        W26410  10.732   1.902  14.351 -0.2224 -0.0215 -0.0487
10942W        W26411   4.592  10.592  15.037  0.1477  0.1810 -0.1372
10943W        W26412  12.930   3.453  11.042 -0.0368  0.2376 -0.0649
10944W        W26413   2.951   5.103   5.942  0.0905  0.2426 -0.0624
10945W        W26414   9.710   0.086   3.841 -0.1452 -0.0460  0.1056
10946W        W26415   3.902  11.984  13.367 -0.2104 -0.0902  0.0864
10947W        W26416   2.441   5.785   4.195  0.0831 -0.1267  0.1924
10948W        W26417  16.041   0.619   4.452 -0.1933  0.3619 -0.0394
10949W        W26418  11.691  18.191  10.954 -0.0548 -0.0062  0.0977
10950W        W26419  17.429  11.846   4.003 -0.2898  0.2408  0.0898
10951W        W26420  10.329  13.399   2.949 -0.1046  0.2579 -0.0148
10952W        W26421   5.731  16.496   2.717 -0.0793  0.5930  0.1289
10953W        W26422   8.594  15.508  12.895 -0.1478 -0.5064  0.1067
10954W        W26423   1.999  17.580  14.230  0.1880  0.1991  0.0723
10955W        W26424  18.153  11.173  13.261  0.0727 -0.2680 -0.1356
10956W        W26425   5.327   7.969  11.836 -0.2113  0.0575 -0.1712
10957W        W26426  14.374  14.479  15.286 -0.0685  0.0837  0.0153
10958W        W26427   7.243  14.866   0.882 -0.2095  0.0180 -0.1094
10959W        W26428  14.707  11.054  10.948 -0.1570 -0.0606 -0.0739
10960W        W26429   1.118  14.180   5.135  0.0638 -0.1986 -0.3613
10961W        W26430   6.571   9.466   0.622  0.0439 -0.1163 -0.1333
10962W        W26431   5.753   7.080   0.137  0.1801  0.2837 -0.0104
10963W        W26432  12.184   5.605   2.918 -0.0991 -0.1463 -0.1215
10964W        W26433  17.465  13.154  12.658  0.1575 -0.0290  0.0689
10965W        W26434   7.970  15.063   0.606 -0.0638  0.2107  0.0585
10966W        W26435  18.336  18.253   3.818 -0.2604  0.0166  0.2569
10967W        W26436  14.476  17.254   1.895  0.4148 -0.5009 -0.2386
10968W        W26437   2.040  16.180   2.247  0.1049  0.0417  0.0016
10969W        W26438   5.444   1.205  13.158  0.0928 -0.1044  0.0290
10970W        W26439   4.087   5.475   0.653  0.0813  0.1753  0.1196
10971W        W26440   5.056  13.244   5.428 -0.0802 -0.0679  0.0390
10972W        W26441  17.900   9.167   4.368  0.2890 -0.3435  0.0873
10973W        W26442  10.249  10.126   3.853 -0.1248  0.0099 -0.1013
10974W        W26443   9.209  10.208   4.163  0.1169 -0.3611 -0.1047
10975W        W26444  16.663  12.560  11.103 -0.1121  0.0533 -0.1838
10976W        W26445  13.534   2.382   2.345 -0.0880 -0.2069 -0.2637
10977W        W26446   6.943   8.331   4.520  0.0695  0.0773  0.1895
10978W        W26447   5.774  17.872  15.629  0.1442  0.4325  0.1369
10979W        W26448  14.979  17.582   4.312 -0.2854  0.2139 -0.1994
10980W        W26449  15.835   0.187   0.270  0.1043 -0.0777 -0.0177
10981W        W26450  11.150  14.412   0.696 -0.1534 -0.2223  0.3440
10982W        W26451   3.504  10.710   2.269  0.0123 -0.0010 -0.0357
10983W        W26452  12.746   1.312   2.657  0.0100  0.0405  0.0706
10984W        W26453   3.372   1.894   4.075  0.2699 -0.4464 -0.1707
10985W        W26454   5.037   7.384   9.945 -0.0871  0.3965 -0.0199
10986W        W26455  18.250  17.617   1.372  0.0962  0.0065  0.0067
10987W        W26456   8.976   3.787  13.196 -0.0956  0.1949 -0.0260
10988W        W26457   5.006  12.309  15.767  0.1561 -0.1617 -0.2924
10989W        W26458   8.525  14.599  14.986 -0.1355  0.1651 -0.2961
10990W        W26459  13.563  10.774  14.783  0.1910  0.1312 -0.0995
10991W        W26460   4.812   5.863   0.947  0.0199 -0.1114 -0.0057
10992W        W26461   0.089   9.205  11.163  0.1205 -0.2235 -0.0243
10993W        W26462  13.084   4.716   0.291 -0.2636 -0.3567  0.3791
10994W        W26463   1.773   3.069  11.675  0.2641  0.0628 -0.2543
10995W        W26464   7.427   4.384  13.597 -0.0926  0.4359 -0.3010
10996W        W26465   3.029  17.618  14.083  0.3275 -0.1903 -0.3298
10997W        W26466  13.095   3.015  11.314  0.1920 -0.3589  0.1370
10998W        W26467   5.262  13.300  13.593 -0.0159 -0.0811 -0.1244
10999W        W26468   9.961   9.141  12.191 -0.1477 -0.1032 -0.1795
11000W        W26469  13.613   5.485  13.852 -0.1721  0.3286  0.2389
11001W        W26470  17.228   9.079   1.398 -0.1606  0.0689  0.2456
11002W        W26471   2.803   4.798   1.326  0.3213  0.1575 -0.1540
11003W        W26472   0.023  13.668   0.923  0.3237  0.3039 -0.3517
11004W        W26473   7.657   9.936  15.782 -0.0175 -0.1849 -0.0109
11005W        W26474  11.359   5.249  13.802  0.0553 -0.2036  0.1018
11006W        W26475   5.738  12.230   4.443 -0.1097  0.1789 -0.3974
11007W        W26476   3.390   6.114   5.204  0.2035  0.2458 -0.2191
11008W        W26477   3.558  15.113   4.194  0.1300 -0.3667 -0.3006
11009W        W26478   1.971   9.580  12.172  0.1609  0.1651 -0.1906
11010W        W26479   7.926  17.440   4.638 -0.1401  0.0835 -0.1113
11011W        W26480  16.958   8.029   4.652  0.0102  0.1451 -0.2586
11012W        W26481  10.199  11.646   0.179  0.3297 -0.1312 -0.1045
11013W        W26482   8.665  13.079  14.440 -0.0081  0.1023  0.0850
11014W        W26483  18.225  13.524   3.761  0.1421 -0.1161  0.0082
11015W        W26484  16.473  13.022  12.035  0.1514  0.0541 -0.4126
11016W        W26485   6.299   4.951   3.994 -0.2883  0.1314 -0.2324
11017W        W26486   9.004   4.280  12.721 -0.2723  0.0848  0.3015
11018W        W26487  12.684  13.677  12.084  0.1457  0.2491  0.3835
11019W        W26488  16.901  17.122   4.252  0.1960  0.1150 -0.0596
11020W        W26489   4.377  15.710  15.065 -0.2437 -0.2310 -0.2797
11021W        W26490   7.511  13.819  10.589  0.0005  0.3218  0.1965
11022W        W26491  11.357  10.167  12.360 -0.0592  0.0418 -0.0529
11023W        W26492   1.960   8.577   1.536  0.0833 -0.0957  0.0299
11024W        W26493  18.377  16.550  15.781  0.1216 -0.2400 -0.1569
11025W        W26494  17.755   3.779   1.373 -0.0493 -0.0233 -0.1049
11026W        W26495   8.623   4.802  15.479  0.0923  0.0399 -0.2343
11027W        W26496   5.368   8.505  15.310 -0.0320 -0.1126 -0.0219
11028W        W26497   7.790   3.142   2.659  0.0025  0.0541 -0.2385
11029W        W26498   5.495   3.412  12.236  0.3677 -0.0080  0.2057
11030W        W26499   8.868  18.254  11.432 -0.3433 -0.0992  0.0872
11031W        W26500  13.377  12.016   2.623 -0.0919  0.2581  0.0563
11032W        W26501  15.410   5.202   0.170  0.1651  0.0385 -0.0262
11033W        W26502   0.129   8.263  11.651  0.3081 -0.1284 -0.0278
11034W        W26503   2.651  12.548   4.055  0.0692  0.1533 -0.3801
11035W        W26504  15.558   0.859   4.380 -0.3168 -0.0918  0.1271
11036W        W26505   9.371   2.877  15.264 -0.2341  0.0335 -0.1167
11037W        W26506   7.403   6.307  10.950  0.0527  0.1872 -0.0843
11038W        W26507  16.784  16.347   1.612  0.0969 -0.2750  0.0963
11039W        W26508  10.580  14.228  11.785 -0.0024 -0.2096 -0.0093
11040W        W26509  17.796  15.086   1.474  0.0694  0.1394  0.0646
11041W        W26510  18.358   5.904  11.743 -0.3411 -0.0399  0.0960
11042W        W26511  13.166   4.401   0.735 -0.0286 -0.0664  0.1197
11043W        W26512   5.952  11.438   0.859  0.0223  0.4168  0.2012
11044W        W26513  11.120  10.799  12.412  0.0484 -0.0187  0.2086
11045W        W26514  16.318   0.147  11.158 -0.3257  0.0780 -0.3375
11046W        W26515   0.742   8.571  10.703  0.0888 -0.2434 -0.0337
11047W        W26516   1.188  15.673   6.151  0.2551  0.0009  0.4013
11048W        W26517   6.697  10.188   2.804  0.1008 -0.1504 -0.1280
11049W        W26518  14.216  11.620   2.336  0.2259 -0.1058 -0.0278
11050W        W26519  15.060   4.718   1.055 -0.0873  0.0763  0.1754
11051W        W26520   3.785   8.840  14.930 -0.2620  0.1155 -0.1902
11052W        W26521  10.071   7.519   3.058  0.1673  0.0494  0.4418
11053W        W26522  12.763   3.090  15.776 -0.0735 -0.1651  0.3402
11054W        W26523   8.470  14.599  11.878  0.0848 -0.1645 -0.0965
11055W        W26524   4.901  11.330   4.381 -0.4512  0.1631  0.1218
11056W        W26525   8.380  17.568  11.335 -0.1772  0.2018 -0.0328
11057W        W26526   2.983   7.444   5.276  0.2256  0.1197  0.1369
11058W        W26527   2.685  11.286  13.064  0.0772  0.1015 -0.1143
11059W        W26528   2.974   8.872   2.524 -0.1619  0.0507 -0.1456
11060W        W26529   1.905  13.003   2.557  0.2017  0.0981 -0.2567
11061W        W26530  12.641  11.114   3.955 -0.1301  0.0450  0.1419
11062W        W26531  10.336   2.044  15.344 -0.1688 -0.0211  0.0298
11063W        W26532  17.334  14.917  13.990 -0.2998 -0.0595  0.0901
11064W        W26533   4.390   1.896   5.140  0.3799  0.0780 -0.0302
11065W        W26534  12.755   3.612  14.771  0.1364  0.1774 -0.0873
11066W        W26535  10.647   8.170   5.305  0.0354  0.2394  0.0261
11067W        W26536  17.093  14.274   2.512  0.0934  0.1567 -0.1394
11068W        W26537  10.199   8.552   4.166 -0.1140  0.1236  0.0117
11069W        W26538  17.405   3.688  11.489 -0.2255  0.1406  0.0864
11070W        W26539   0.099  12.044   2.597  0.0702  0.4672  0.2426
11071W        W26540   6.274  12.315   3.077 -0.2731 -0.0481  0.0862
11072W        W26541  15.334  12.401   1.354 -0.1648  0.0938  0.3872
11073W        W26542   0.515  11.574  14.903  0.0682 -0.0321 -0.0335
11074W        W26543   5.213  11.679   3.730 -0.1820 -0.0723  0.0734
11075W        W26544   2.070  16.588   3.925 -0.2917 -0.2761 -0.0889
11076W        W26545   4.834  10.621  14.015 -0.2238  0.5201 -0.0217
11077W        W26546   4.630   8.728  12.157 -0.0183 -0.0127  0.0290
11078W        W26547   4.612  17.148   0.970 -0.2702 -0.3021  0.0457
11079W        W26548   5.726   4.045   0.308  0.2174  0.2689  0.2550
11080W        W26549   4.447  10.583  11.291 -0.2625 -0.2078 -0.2570
11081W        W26550   2.872   4.492   2.825  0.2620 -0.0045 -0.0237
11082W        W26551  17.383  13.198   9.984  0.0825 -0.1065 -0.0069
11083W        W26552  16.336   7.198   1.718 -0.2647 -0.1844  0.0197
11084W        W26553  15.419  15.676  12.422 -0.0427  0.0607 -0.0153
11085W        W26554   6.683  10.089   1.731  0.0024  0.1256 -0.1740
11086W        W26555   1.270  16.735  13.701  0.1884 -0.1291 -0.1641
11087W        W26556  17.238   0.829  10.523  0.3811 -0.1670 -0.0265
11088W        W26557   8.748   5.739   4.687  0.0382 -0.1897  0.1539
11089W        W26558  11.514   8.353   2.294  0.1180 -0.2616 -0.1113
11090W        W26559   8.694   2.878   2.396  0.1419  0.2335  0.1292
11091W        W26560  13.957  15.131  10.791 -0.1328 -0.0936  0.0312
11092W        W26561   4.214  11.799  13.765 -0.1204  0.0803 -0.2869
11093W        W26562   6.008   5.997  11.580 -0.1607  0.0045  0.0793
11094W        W26563  11.382  10.099  12.884 -0.0640 -0.1142  0.0404
11095W        W26564  14.926  12.926  11.806 -0.1356  0.1446 -0.1739
11096W        W26565   1.524  18.322  14.742 -0.2014 -0.0651 -0.0554
11097W        W26566  16.173  13.016  12.701  0.2087 -0.0318 -0.0390
11098W        W26567  15.071  16.744  15.049  0.2267 -0.2840 -0.0622
11099W        W26568  14.380   9.781   2.557  0.0333  0.0554  0.1746
11100W        W26569   1.168  13.591  10.560  0.3828  0.1277 -0.0221
11101W        W26570   8.551   3.094   4.127 -0.0911 -0.2831 -0.0833
11102W        W26571   9.608   2.481  11.241 -0.0446  0.0139  0.0494
11103W        W26572   7.902  13.073   2.300 -0.2548 -0.2578  0.0703
11104W        W26573  12.076   0.740   2.663 -0.0058 -0.0303 -0.1885
11105W        W26574  15.158  13.275   0.086 -0.0171  0.1399 -0.1492
11106W        W26575  15.228   5.589  14.326 -0.0670  0.1559 -0.0899
11107W        W26576   4.933  14.986   3.413 -0.0872 -0.1385 -0.1870
11108W        W26577   0.051   4.217  12.287  0.3371 -0.0983 -0.1791
11109W        W26578  15.691  13.939   2.688 -0.1319  0.2739 -0.0429
11110W        W26579   9.892  10.392   3.450 -0.0017  0.0429 -0.1859
11111W        W26580   2.574  10.973   1.202  0.1908  0.2962 -0.2173
11112W        W26581   7.799   8.789   1.345 -0.1660 -0.0617  0.0432
11113W        W26582  13.399   2.797   2.023 -0.1355  0.0457 -0.1206
11114W        W26583   2.383  12.989  12.017 -0.1047  0.0805  0.1470
11115W        W26584  13.905   2.289  13.410 -0.1144  0.2858  0.0481
11116W        W26585  11.324   6.872   4.366 -0.2595 -0.0714  0.0350
11117W        W26586  10.200  11.755  14.457 -0.0174 -0.0034  0.2383
11118W        W26587   2.181  10.376  13.078  0.0243  0.0535 -0.0107
11119W        W26588  15.489  10.357   4.047 -0.0994 -0.1282  0.1362
11120W        W26589  11.683   2.434   5.193  0.2611  0.1538  0.2579
11121W        W26590   6.586   0.170   3.089  0.1287 -0.0633  0.2463
11122W        W26591  11.448   8.956  15.259 -0.1067  0.5576 -0.2379
11123W        W26592   7.964   8.089   4.952 -0.1947 -0.2697  0.0256
11124W        W26593  18.385   9.850  14.297  0.0493 -0.1983  0.0231
11125W        W26594   7.198  11.245   4.670 -0.2880  0.0414 -0.0171
11126W        W26595  11.418   7.307  14.686  0.0625 -0.0824 -0.2102
11127W        W26596  12.745   7.307  14.100  0.2480  0.0024  0.3317
11128W        W26597  11.707  15.472   1.161  0.0335  0.2798 -0.0684
11129W        W26598   3.960   8.498   1.122  0.1758 -0.1066 -0.1081
11130W        W26599  16.950   5.667   0.390 -0.3005  0.2699  0.1928
11131W        W26600  10.507  15.779   1.991  0.1053  0.0710  0.0870
11132W        W26601  14.535   5.231   1.480 -0.0643 -0.1342 -0.0408
11133W        W26602  14.629  17.730  11.482  0.2740  0.0127 -0.2410
11134W        W26603  14.423   5.769  12.456  0.1503  0.1570 -0.1252
11135W        W26604  15.401   2.669   5.725  0.1153  0.0742 -0.2511
11136W        W26605  13.507   5.015   0.255 -0.2029  0.3628 -0.1654
11137W        W26606  13.363  11.246  12.088  0.6417  0.3160  0.2690
11138W        W26607   2.202  16.290   2.915  0.0020 -0.1011  0.2296
11139W        W26608   3.801  16.311   2.793 -0.1593 -0.2019  0.0406
11140W        W26609   2.566   4.264  13.566  0.1332 -0.4412  0.2397
11141W        W26610   5.929   0.667  15.689  0.0864  0.1475  0.1082
11142W        W26611  12.039   6.025  10.301  0.2503  0.0296  0.3132
11143W        W26612   8.585   6.211   3.240 -0.0448  0.0386  0.1203
11144W        W26613   8.355   2.742   4.874  0.1467  0.0809 -0.2559
11145W        W26614  12.491  15.095  12.516  0.0383 -0.2231  0.1782
11146W        W26615  12.552   2.562  12.436 -0.0570  0.0147  0.0455
11147W        W26616   4.249   7.041   0.577  0.1986  0.0280 -0.0612
11148W        W26617   4.372  12.828  11.805  0.3854 -0.1250 -0.1201
11149W        W26618  11.992   0.875  15.913 -0.2643 -0.1825  0.2023
11150W        W26619   6.686   4.893   4.395  0.2747 -0.3262 -0.0709
11151W        W26620  10.833  12.700  12.104  0.0504 -0.1556  0.3418
11152W        W26621   5.001   4.214  12.077  0.0287  0.1329  0.0300
11153W        W26622   0.420   3.415  14.949  0.2464 -0.0148 -0.0335
11154W        W26623  15.184  16.644   3.646 -0.1377  0.1329 -0.0820
11155W        W26624   2.242  12.585  11.304  0.2706  0.1883  0.1442
11156W        W26625   4.514   2.007  12.468 -0.0342  0.2691 -0.1071
11157W        W26626   2.891   4.699  13.882  0.1828  0.1229  0.1751
11158W        W26627   9.259  11.520   4.710 -0.0695 -0.2737  0.0185
11159W        W26628   2.585   2.089  15.827 -0.0460  0.1507  0.1071
11160W        W26629   5.078  11.018  15.601 -0.1296  0.0378 -0.1571
11161W        W26630  12.089   4.651   4.713  0.0909  0.0186 -0.1722
11162W        W26631   2.487   9.251   4.552  0.0670  0.2573 -0.0329
11163W        W26632  12.515  12.513   2.911  0.0311  0.1032 -0.1316
11164W        W26633  16.399  16.853   4.315 -0.0855  0.0614  0.0955
11165W        W26634  13.919   1.063   3.470 -0.0818 -0.2336  0.0473
11166W        W26635  16.448  11.234  10.670  0.2359 -0.1179 -0.0917
11167W        W26636   8.703  18.121   2.834 -0.0867  0.0897 -0.1285
11168W        W26637   4.894  17.699   3.516 -0.3909 -0.0560  0.0371
11169W        W26638   9.848  16.016  14.223 -0.2420 -0.3260  0.1218
11170W        W26639   4.445   1.649   6.227  0.1068 -0.1062  0.0890
11171W        W26640  16.302  10.379   3.489 -0.4230  0.2535  0.1395
11172W        W26641   3.895   8.589  15.534  0.1701  0.0903  0.0386
11173W        W26642   9.972  11.622   2.145 -0.3509  0.0852  0.0833
11174W        W26643  14.380  17.304  14.560  0.0121  0.0525 -0.0947
11175W        W26644  14.326  14.969  11.148  0.2130 -0.1310  0.0210
11176W        W26645  10.065   3.721  12.363  0.1422 -0.4868 -0.1788
11177W        W26646   3.255  13.720   3.445 -0.1282  0.1320 -0.3193
11178W        W26647   6.181   1.709   5.822 -0.0483  0.1140 -0.1830
11179W        W26648  18.203   3.884  14.525  0.2194 -0.1209 -0.4669
11180W        W26649   0.712  11.369   4.970  0.1078  0.0516 -0.0610
11181W        W26650   6.109   7.516  10.583 -0.1005  0.0771 -0.1074
11182W        W26651   2.907  10.692   4.377 -0.0102  0.0214  0.5198
11183W        W26652  17.668   6.566  13.908 -0.4413  0.2025  0.3136
11184W        W26653   9.287   3.525  13.793  0.4038  0.2515 -0.1245
11185W        W26654  14.300   7.343  11.817 -0.0642 -0.0880  0.1979
11186W        W26655  10.509   3.032  10.219  0.0984  0.0303 -0.0871
11187W        W26656   8.028  17.970  11.362 -0.0604 -0.2175 -0.4484
11188W        W26657   3.573  13.688  15.152 -0.0589  0.0278 -0.2630
11189W        W26658  13.114   0.186  15.729  0.0773 -0.2128  0.0326
11190W        W26659  17.195   7.710   1.635  0.1201  0.0922 -0.2148
11191W        W26660  12.997   1.716   0.685  0.1517 -0.0462  0.0278
11192W        W26661  13.318   0.755  11.138  0.1042 -0.2227 -0.0042
11193W        W26662   6.568   0.149   4.414 -0.0103 -0.2510  0.2809
11194W        W26663   1.731   2.268   5.884 -0.0521 -0.2170  0.3656
11195W        W26664  10.158  15.475  11.502 -0.0415 -0.1273 -0.2269
11196W        W26665  17.928  18.336   3.595 -0.2041  0.0770 -0.2502
11197W        W26666  10.203   3.680  14.128 -0.1076  0.2777  0.3095
11198W        W26667  11.133   1.153  11.532 -0.0258 -0.0903 -0.0506
11199W        W26668   9.118   3.745   2.381  0.2501  0.1721  0.1185
11200W        W26669   5.283   8.055  14.520  0.2400  0.0502  0.1008
11201W        W26670  11.281   4.517  14.515 -0.0764  0.3620 -0.0502
11202W        W26671   2.653   3.229  14.255 -0.0440 -0.2940 -0.0838
11203W        W26672   4.124  18.148   4.841 -0.1255  0.1043  0.0419
11204W        W26673   5.023  17.728  12.424 -0.0768  0.1684  0.0916
11205W        W26674   6.130   2.170   3.742 -0.1318  0.1776  0.0791
11206W        W26675   1.266   1.585   5.364 -0.1116  0.0264  0.1830
11207W        W26676   5.493   8.140   3.956 -0.4119  0.0207 -0.0230
11208W        W26677   9.680  12.268   4.456 -0.0763 -0.2606 -0.0066
11209W        W26678   6.337   4.056   0.988 -0.0112  0.1032 -0.0101
11210W        W26679  13.481   3.431   4.840  0.3405 -0.1212 -0.3004
11211W        W26680   3.726   5.213   3.056  0.1261  0.4499 -0.3443
11212W        W26681  12.225   1.843  15.621 -0.2177  0.2765  0.0050
11213W        W26682  14.509   3.558  14.197 -0.3026 -0.5004  0.2079
11214W        W26683  15.480  18.105  11.100  0.4020  0.0336 -0.1779
11215W        W26684   4.056  13.876   0.754 -0.2224  0.1326 -0.0609
11216W        W26685  11.561  13.324   1.405  0.1830  0.0233  0.5009
11217W        W26686   9.635  17.788   3.479  0.0037  0.0303  0.1384
11218W        W26687   9.297  13.938   3.862 -0.2439  0.0890 -0.3014
11219W        W26688   8.149   6.125   5.816  0.0383 -0.1436 -0.2188
11220W        W26689  12.681   0.291   2.850 -0.2627 -0.0425 -0.0273
11221W        W26690  10.366  14.666  15.016  0.2145  0.0512 -0.0868
11222W        W26691   0.693  15.910   2.182 -0.1697  0.0101 -0.2165
11223W        W26692   9.390  13.077  11.878  0.1389 -0.0760  0.0032
11224W        W26693  17.344   1.013   0.275  0.0661 -0.0190 -0.1743
11225W        W26694   0.105  11.614  12.693  0.0965  0.0165 -0.2435
11226W        W26695   4.484  16.416  11.621  0.1519  0.0830  0.2453
11227W        W26696  17.163  17.532  11.960 -0.0873  0.0768 -0.0005
11228W        W26697  13.357  18.243   0.816  0.0702  0.1107  0.0385
11229W        W26698  12.564  17.737   3.797  0.0262  0.0678  0.0455
11230W        W26699   9.775  14.209  13.215 -0.1115 -0.2757 -0.1921
11231W        W26700  12.295   2.741  14.777 -0.1725  0.1770  0.0401
11232W        W26701  13.753  13.230  13.000  0.1011  0.2131  0.0638
11233W        W26702   4.971  16.282  14.571 -0.0062  0.3335 -0.2547
11234W        W26703  12.374  10.406   5.028  0.0503  0.2373  0.1644
11235W        W26704   0.376   3.843  12.492  0.3628 -0.0763  0.2937
11236W        W26705  14.626   2.916  15.028 -0.0349  0.0882  0.0407
11237W        W26706   6.835   7.440  14.125 -0.0410 -0.2050 -0.2436
11238W        W26707  10.494   7.981  14.232 -0.0628  0.0422 -0.1073
11239W        W26708  12.685  15.251  11.576 -0.1397  0.1306 -0.0348
11240W        W26709   6.362   9.653   5.936  0.0806  0.0100  0.0381
11241W        W26710   7.792   1.373  15.622 -0.0716 -0.0560  0.4985
11242W        W26711   0.493   9.350  10.919  0.1080  0.1848 -0.2292
11243W        W26712   4.409   6.633  13.539  0.3332  0.1184 -0.0958
11244W        W26713  12.553  17.101  13.453  0.0003  0.2086  0.3663
11245W        W26714  15.919  18.151  13.830  0.2229  0.2725  0.1349
11246W        W26715   0.517  14.567  12.636  0.0327  0.1093 -0.0845
11247W        W26716  15.157   6.138   2.677  0.0043  0.1985  0.0450
11248W        W26717   2.061  18.275   4.912  0.0471 -0.2145  0.1827
11249W        W26718   8.138   3.782   5.836 -0.2266 -0.0519  0.2071
11250W        W26719   1.775   6.220  12.604  0.0940  0.2017 -0.4180
11251W        W26720   2.797  12.226  14.787 -0.0743 -0.0186  0.2277
11252W        W26721  17.863  16.808  14.033 -0.2174 -0.0201  0.0342
11253W        W26722  12.141  12.093  15.792 -0.1547 -0.2527  0.0203
11254W        W26723  11.271  14.621   2.988  0.1654  0.1928 -0.1586
11255W        W26724  13.866  14.185   2.101 -0.0519  0.0558 -0.2806
11256W        W26725  13.856   8.823  11.162  0.1723  0.1910  0.3340
11257W        W26726   8.893  10.116   3.579  0.0050  0.0106  0.0930
11258W        W26727   0.526   8.953   2.790  0.3127  0.2553  0.0402
11259W        W26728  10.486   0.656   4.002  0.1774  0.0943 -0.2009
11260W        W26729  15.430  10.043   2.297 -0.0023  0.0850  0.1156
11261W        W26730   6.574  10.854   0.265  0.2095  0.2214 -0.0112
11262W        W26731  18.108   7.155   2.703  0.2547  0.2203  0.0606
11263W        W26732  11.935   1.383   3.138 -0.0842 -0.1364 -0.2266
11264W        W26733  12.580   2.534   4.315 -0.2743 -0.1274  0.0583
11265W        W26734   8.781   3.821   1.345  0.0641  0.1720 -0.1540
11266W        W26735   3.440   0.073  11.658 -0.1807  0.1487 -0.1832
11267W        W26736   3.553  12.543   3.726 -0.0585  0.0254 -0.0604
11268W        W26737   4.830   2.913   1.760 -0.0954  0.1108  0.1664
11269W        W26738   9.153  13.931  14.784  0.0508  0.2104  0.1935
11270W        W26739   9.012   0.915  15.768 -0.0179  0.3730  0.3722
11271W        W26740  11.806   4.024  15.656  0.2956 -0.1924 -0.1655
11272W        W26741  10.393  15.485   2.448 -0.3273 -0.2117  0.0850
11273W        W26742  10.976  14.556  11.838 -0.0093 -0.2784 -0.0066
11274W        W26743   1.264  13.334   1.043  0.1042 -0.0941  0.1757
11275W        W26744   6.464   5.762   1.982  0.2134 -0.0741 -0.0456
11276W        W26745  16.055   0.492   2.854 -0.1558 -0.1900 -0.1511
11277W        W26746   6.399  16.919   5.356 -0.1517 -0.2171 -0.1912
11278W        W26747   7.472  17.055  15.415  0.0455  0.1693 -0.0791
11279W        W26748   5.066   2.941  11.698 -0.1398  0.0143  0.1590
11280W        W26749  13.898   8.022  11.340 -0.0610  0.2513 -0.1855
11281W        W26750  14.298  15.244   1.055 -0.1644 -0.2556 -0.0079
11282W        W26751  11.524   0.260  14.276 -0.1190  0.1095 -0.2021
11283W        W26752  17.549   8.264   3.838  0.0970  0.0146 -0.2027
11284W        W26753   9.714   7.769  15.559 -0.1342  0.1641  0.2730
11285W        W26754   9.157  13.254  13.114 -0.0757 -0.1556 -0.0643
11286W        W26755  10.580   0.484   2.055  0.0865  0.0802  0.1573
11287W        W26756   5.712   1.425  14.041 -0.5157 -0.0601  0.0977
11288W        W26757   3.222  15.425   0.746 -0.3187  0.0545  0.1514
11289W        W26758  15.197   8.537  10.472  0.0597  0.0133 -0.0784
11290W        W26759  15.994  16.176  15.824  0.0825 -0.0818 -0.0343
11291W        W26760  18.404  15.098   0.221 -0.1782 -0.0498 -0.3840
11292W        W26761   5.774   5.463  11.494 -0.0470 -0.1421  0.0333
11293W        W26762  16.369   8.834  15.657 -0.0225 -0.0472 -0.0863
11294W        W26763  16.774  13.961   0.813 -0.1152  0.3077  0.1267
11295W        W26764   5.476  17.844  14.634  0.0162  0.4522 -0.0100
11296W        W26765   4.698   3.685   4.634  0.4525 -0.0407  0.0539
11297W        W26766   0.243   3.328   0.126 -0.2908 -0.1841 -0.2658
11298W        W26767   5.932   2.792   5.378 -0.0430 -0.0269  0.2158
11299W        W26768   4.416   3.240   4.810  0.1375 -0.2046 -0.1332
11300W        W26769  14.955  15.964   2.759 -0.1467  0.1968 -0.0342
11301W        W26770   6.301   4.527   2.910  0.2116  0.2707 -0.4179
11302W        W26771  10.646   7.731  15.883 -0.1047  0.2504 -0.0840
11303W        W26772  11.501  12.102   4.195 -0.4085 -0.1022  0.2220
11304W        W26773  11.275   4.883  10.606  0.0339 -0.0503 -0.0192
11305W        W26774   6.280   9.902  15.730 -0.3270  0.0035  0.1161
11306W        W26775  16.918   4.047   2.688 -0.0090 -0.1443 -0.1689
11307W        W26776  13.261   8.669   2.801 -0.1703 -0.1028 -0.0201
11308W        W26777  18.296   3.392  15.814 -0.1840 -0.1078  0.2553
11309W        W26778   8.430   6.141  11.840  0.0707  0.2059  0.2378
11310W        W26779   6.480   1.241   4.070 -0.3313 -0.1397  0.0932
11311W        W26780   4.717  16.210  12.593  0.0812  0.1324  0.0789
11312W        W26781   2.578  16.879  11.894 -0.0930  0.0307 -0.1162
11313W        W26782   0.730  13.728   3.991 -0.0657  0.1470  0.0147
11314W        W26783   2.099   2.805  13.060  0.5023  0.0949  0.0235
11315W        W26784  11.296  13.556  13.780 -0.2596 -0.2804  0.2220
11316W        W26785  15.374   4.117  14.477 -0.0711 -0.0177  0.1726
11317W        W26786   8.379   3.402  14.887  0.0372 -0.0084 -0.1033
11318W        W26787   2.028   1.159   0.541  0.1024 -0.0220  0.2145
11319W        W26788   6.660   5.514  14.046  0.2256 -0.2160  0.4153
11320W        W26789   1.802  13.033   4.621  0.0033  0.0409 -0.0081
11321W        W26790   4.580   7.994  13.268 -0.0020 -0.1866 -0.3355
11322W        W26791   8.957   9.366  14.388 -0.1810 -0.2785  0.0586
11323W        W26792  10.034  17.736  13.114 -0.0434 -0.1737  0.0926
11324W        W26793  16.820  14.077   4.853 -0.2421 -0.1070  0.1496
11325W        W26794  13.087  12.975   4.525 -0.0343 -0.2621 -0.0200
11326W        W26795  15.391  16.406  11.819  0.0861 -0.1779  0.0144
11327W        W26796  14.298   8.108  10.647 -0.0561  0.0396  0.0479
11328W        W26797  17.269  15.392   4.909  0.0328 -0.0947 -0.0555
11329W        W26798  17.138   3.252   3.055 -0.0120 -0.3152 -0.1783
11330W        W26799  10.821  11.746   5.698  0.1667 -0.0242 -0.0699
11331W        W26800  17.175  15.494   0.623 -0.2359  0.0633  0.1295
11332W        W26801  12.769   6.328   4.861  0.0602  0.0772 -0.3863
11333W        W26802   6.269   1.981   0.701  0.2562  0.0341  0.0804
11334W        W26803  12.075   4.326   1.547  0.2733  0.1031  0.2080
11335W        W26804  13.412   7.129  12.919  0.2154 -0.0432 -0.1977
11336W        W26805  15.609  17.160  11.888  0.2634 -0.0736 -0.0284
11337W        W26806  13.055  11.771  15.413  0.1409 -0.0727  0.0360
11338W        W26807   4.584   6.372   4.221 -0.0066 -0.3224  0.0802
11339W        W26808  15.373  13.033   4.581  0.2854 -0.3041  0.7250
11340W        W26809   8.166  10.492   6.111 -0.0865 -0.2216  0.0469
11341W        W26810  11.517  16.204  13.146  0.1663 -0.1980 -0.2954
11342W        W26811  11.946  11.881  12.415  0.0868 -0.2750  0.2125
11343W        W26812   2.539   1.639  12.241  0.0422 -0.4443 -0.1710
11344W        W26813   1.086   7.294   2.226  0.0615 -0.2099 -0.0601
11345W        W26814  12.822   9.433  12.892  0.0410 -0.2535 -0.0083
11346W        W26815   1.460   5.250   0.113  0.0981 -0.0627  0.0771
11347W        W26816   4.918   8.016  11.608  0.4450  0.1343 -0.0163
11348W        W26817   9.476   0.914   2.374 -0.0142 -0.1632  0.0693
11349W        W26818   8.673  13.166  12.073 -0.1818  0.0654  0.1075
11350W        W26819  12.467  15.144  14.471 -0.1030 -0.0683 -0.0942
11351W        W26820   5.185  13.634   0.160 -0.0444  0.2106 -0.3232
11352W        W26821   0.165  15.574   1.502 -0.1016 -0.1580  0.1591
11353W        W26822  11.209   8.728  14.387  0.0030 -0.1424  0.0732
11354W        W26823   0.892  17.751  11.408 -0.1123  0.0188 -0.0091
11355W        W26824  18.206   2.243   4.906 -0.0343 -0.2880  0.2118
11356W        W26825  14.423   2.001   5.679  0.1015 -0.0361  0.1268
11357W        W26826   2.636  14.179  15.184  0.4034  0.0821 -0.4546
11358W        W26827   4.358  12.975  13.865 -0.1495 -0.4120  0.1700
11359W        W26828  17.307   9.003   1.908  0.1034  0.0830 -0.1555
11360W        W26829  16.416  10.429   1.976  0.2262  0.0579  0.0589
11361W        W26830   9.327   5.057   1.113  0.0247  0.0615  0.2594
11362W        W26831   2.638   3.339  12.406 -0.0362 -0.0726  0.0450
11363W        W26832   5.206  13.196  11.596 -0.3222  0.1432 -0.2113
11364W        W26833  13.846   9.823   1.606 -0.2187 -0.0211 -0.2868
11365W        W26834  10.920   5.643   1.710 -0.1729  0.1596  0.2088
11366W        W26835  15.272   4.789   3.473 -0.3278  0.0457 -0.0864
11367W        W26836  17.040  16.304  11.456  0.2446  0.0889 -0.4092
11368W        W26837   5.745   9.474  14.004 -0.1619  0.2984 -0.0820
11369W        W26838   5.097   2.512   5.363  0.1492  0.3084 -0.0564
11370W        W26839   2.518   4.599   2.463  0.2973 -0.2677 -0.3275
11371W        W26840  16.196   0.233   4.726  0.5352 -0.0168 -0.0731
11372W        W26841   0.177  13.647  11.147 -0.0388 -0.0239  0.0056
11373W        W26842  13.138   4.962  12.269 -0.4788 -0.0883 -0.0516
11374W        W26843  17.575  10.811   0.370  0.0447  0.0515 -0.2823
11375W        W26844   0.925   3.949  12.010  0.0991  0.0303  0.0479
11376W        W26845   8.832   7.493   3.663  0.0566 -0.2602 -0.1811
11377W        W26846   0.969  15.047   2.141  0.3197 -0.1772 -0.0677
11378W        W26847   3.270  17.183   1.884 -0.1253 -0.0312 -0.0889
11379W        W26848  16.382   9.006   2.309 -0.4147  0.4755  0.0206
11380W        W26849  17.041   0.434   1.531  0.2815  0.1362 -0.0098
11381W        W26850   2.458  10.254  14.662 -0.0478  0.2443  0.1606
11382W        W26851   6.321  17.501  12.846  0.1004 -0.1952 -0.1001
11383W        W26852   2.965  13.268   1.209  0.0538 -0.1745 -0.2130
11384W        W26853  10.028  15.373  10.770  0.4936  0.2821  0.1437
11385W        W26854   2.105   3.006  13.528 -0.0883  0.2786 -0.3503
11386W        W26855   6.228   0.174  14.420 -0.1147 -0.3131 -0.0887
11387W        W26856   2.506   0.412   2.545 -0.0061 -0.2165 -0.0304
11388W        W26857   3.072   5.296  10.932 -0.0138 -0.2014  0.1475
11389W        W26858   5.660  13.441  13.072  0.1909  0.1391 -0.1563
11390W        W26859  14.193  17.411  13.561  0.1682 -0.0226 -0.0166
11391W        W26860   7.463  11.041   2.632  0.1899 -0.0702 -0.1689
11392W        W26861   2.683  13.533  14.583  0.0547  0.0410 -0.0743
11393W        W26862   8.274   4.775  13.335 -0.0389  0.0243  0.4862
11394W        W26863   7.283   6.643  14.742  0.0328 -0.0646 -0.0504
11395W        W26864   3.439  12.481  12.023  0.0242  0.1880  0.0613
11396W        W26865  15.602   5.871   5.624 -0.1031  0.1040  0.0730
11397W        W26866  18.097   3.017   3.742  0.0195  0.2669 -0.2423
11398W        W26867   5.268   2.341  14.797 -0.0977  0.0227 -0.0878
11399W        W26868   6.690  12.067   2.632 -0.1379 -0.0200 -0.0763
11400W        W26869   0.070   3.685  14.778 -0.1062 -0.1566  0.1781
11401W        W26870  10.745   2.561   5.500 -0.1233 -0.1314  0.0409
11402W        W26871   3.781  12.560   4.184 -0.0463  0.1248 -0.0556
11403W        W26872  12.673  13.904  14.839  0.0653  0.0542 -0.2493
11404W        W26873   4.278  14.654   2.348  0.1655  0.1607  0.0420
11405W        W26874   6.343   2.644  14.120  0.1136 -0.1762  0.3133
11406W        W26875  16.424  11.061   4.651  0.2623  0.1539 -0.0640
11407W        W26876   4.336   5.624   1.971 -0.0076  0.0174  0.0134
11408W        W26877  10.448   0.902   2.347 -0.1016 -0.1547  0.0309
11409W        W26878  10.355   7.664  13.179  0.0925 -0.1536 -0.0242
11410W        W26879  11.567   2.059  11.017  0.3216  0.1217  0.0669
11411W        W26880   9.372   5.351  10.730  0.2225  0.0977  0.0577
11412W        W26881  14.681   3.755   4.217 -0.0104 -0.1923 -0.1448
11413W        W26882   7.030  10.286   4.383  0.3307 -0.2107 -0.0020
11414W        W26883   4.401   1.066   2.291 -0.0649 -0.1763  0.1484
11415W        W26884  17.013   5.173  11.575  0.0767 -0.0966  0.4100
11416W        W26885  11.241  17.778   1.541  0.0346  0.1224  0.1012
11417W        W26886   3.670   1.098  13.332 -0.5285  0.3584  0.0177
11418W        W26887   3.038  18.406   1.413 -0.2061 -0.0500  0.0161
11419W        W26888  17.409  10.541  10.190  0.0127  0.0327 -0.2217
11420W        W26889  16.108  12.602   2.672  0.1896 -0.1117 -0.1734
11421W        W26890  11.503  10.071  11.184 -0.3143  0.4753 -0.2174
11422W        W26891  15.276   8.222   1.413 -0.1401 -0.3104  0.0096
11423W        W26892  17.135   8.267   5.484 -0.1273  0.1806  0.2433
11424W        W26893   2.779   1.013   0.356  0.1026 -0.1435 -0.2071
11425W        W26894   4.129   8.835  11.041 -0.0320  0.0061 -0.1129
11426W        W26895   1.702   4.053  12.713 -0.0266  0.1913  0.0165
11427W        W26896  16.219  11.121  12.085 -0.3429  0.0392 -0.3646
11428W        W26897   4.353  12.236  12.999 -0.1220  0.0111  0.1931
11429W        W26898   4.245  14.015   1.218  0.0794  0.1517  0.2491
11430W        W26899  17.110  15.690  14.899 -0.0031 -0.1158  0.0018
11431W        W26900   2.651  10.937  11.830  0.0116  0.1551  0.2536
11432W        W26901  17.817  10.538   3.839  0.1317 -0.1691 -0.0053
11433W        W26902   6.000  18.227   3.943 -0.0349  0.0685 -0.2762
11434W        W26903   3.503   3.087   3.400  0.0937 -0.0440 -0.2635
11435W        W26904   4.587  16.251   5.244  0.1960 -0.0159 -0.1198
11436W        W26905   9.064   7.229  12.822  0.3566 -0.1474 -0.0567
11437W        W26906  15.638   3.724  13.308  0.5007 -0.1247  0.3431
11438W        W26907   7.541   0.954   2.853 -0.1036 -0.0115 -0.1090
11439W        W26908  16.194   5.941  15.325  0.0342 -0.1553  0.0103
11440W        W26909   5.186   1.753   1.430  0.0939  0.1848  0.0302
11441W        W26910  15.807   4.427   4.208  0.0428 -0.0662 -0.0562
11442W        W26911   5.571   3.895  11.936  0.2012 -0.0511 -0.0120
11443W        W26912   9.151  18.089   2.043  0.2208 -0.0272 -0.3069
11444W        W26913  14.907   1.102  12.141 -0.6219 -0.2984 -0.1750
11445W        W26914   4.600   7.295   5.012  0.1125  0.2145 -0.2029
11446W        W26915  16.565  15.120  11.375  0.2852 -0.1265 -0.2877
11447W        W26916  14.260  16.897  12.394  0.0015  0.0330 -0.2477
11448W        W26917   5.333  10.573  14.302 -0.0084  0.1414 -0.3902
11449W        W26918  13.530  13.491   4.879  0.0068  0.1872  0.0382
11450W        W26919  18.125  11.679  15.136  0.1094  0.0227 -0.1003
11451W        W26920   5.639   3.371  11.222  0.1711  0.2361  0.3682
11452W        W26921  16.598   6.973  11.825  0.2279 -0.0637  0.0971
11453W        W26922   2.252   6.606   4.444 -0.0340  0.1483 -0.0669
11454W        W26923  10.581   4.878   4.328  0.2456  0.2605  0.3657
11455W        W26924   7.009   9.617  12.190 -0.0496  0.0903  0.0198
11456W        W26925  17.859   4.409   0.713 -0.1085 -0.3868 -0.1175
11457W        W26926  10.888  14.061  14.813 -0.1752 -0.3698 -0.0105
11458W        W26927  11.876   0.193  10.334 -0.4301 -0.1084  0.0779
11459W        W26928  12.528  13.578  10.859  0.0715 -0.1693 -0.0209
11460W        W26929  11.976   6.296  12.190 -0.0572 -0.1809  0.1009
11461W        W26930  11.152  18.222   1.074 -0.2365  0.0970  0.1362
11462W        W26931  14.615   7.025   2.946 -0.3125 -0.0972 -0.2381
11463W        W26932  13.321  12.727   5.274  0.2889 -0.4271 -0.1749
11464W        W26933  15.541  11.606  15.503  0.0352 -0.0376 -0.0976
11465W        W26934   4.746   2.390   2.794  0.2146  0.2438  0.0117
11466W        W26935  10.773  16.917   4.020 -0.0308 -0.1019  0.0423
11467W        W26936  12.437   2.067  12.483  0.3655  0.1727 -0.3035
11468W        W26937   9.222  13.832   1.676 -0.0052 -0.0783  0.3715
11469W        W26938   7.383   0.225  11.433 -0.1353 -0.1381  0.1082
11470W        W26939  13.870   9.573  11.556 -0.0886  0.3547  0.0081
11471W        W26940  12.785  10.598   3.757  0.2963 -0.4964 -0.0925
11472W        W26941   0.147   2.940  14.694  0.3604 -0.0902  0.0998
11473W        W26942   2.917   6.722  14.005  0.0403  0.0474 -0.0004
11474W        W26943   0.429  16.540  12.222 -0.2577  0.0138 -0.0553
11475W        W26944   5.187  14.544   5.701  0.1073 -0.3090  0.2436
11476W        W26945  18.402   2.017  12.140  0.2316 -0.1105 -0.1809
11477W        W26946   4.329   8.406  13.393 -0.2642 -0.1996  0.2499
11478W        W26947  17.181  11.083  13.367  0.2416 -0.0933  0.2445
11479W        W26948  17.703   0.703  10.408 -0.2316  0.2474 -0.0622
11480W        W26949  18.067   0.589   0.672  0.0326  0.3451  0.0809
11481W        W26950   3.530  15.832  14.681 -0.1669  0.1036 -0.2021
11482W        W26951   3.089  15.499   1.998  0.0037  0.0685  0.0515
11483W        W26952  15.046   9.658  13.241 -0.0908 -0.1201 -0.2605
11484W        W26953   7.074  13.964  10.297 -0.1483 -0.1800 -0.1860
11485W        W26954  17.658   1.130  11.744 -0.0424  0.1231 -0.1580
11486W        W26955  10.643  13.352  15.703 -0.1225 -0.2613 -0.1635
11487W        W26956   0.932  10.732  15.118  0.1428 -0.2925 -0.2018
11488W        W26957   9.599   4.033   5.028 -0.4252  0.1776  0.1745
11489W        W26958  15.777   0.185  13.804  0.0479  0.1887  0.0554
11490W        W26959  13.952   2.123  10.537 -0.2130 -0.0471  0.1444
11491W        W26960  10.800  14.594   3.640  0.3848 -0.0572 -0.1301
11492W        W26961  15.376  18.049   0.897 -0.0324 -0.1553  0.1164
11493W        W26962   6.442  11.874   1.619  0.1440 -0.1512  0.0440
11494W        W26963   2.103   8.953  11.583 -0.0626 -0.1679 -0.2441
11495W        W26964   8.694  16.674   2.696 -0.0707 -0.3260 -0.1210
11496W        W26965  16.038  16.360   2.051 -0.1311  0.2043 -0.1716
11497W        W26966   6.745   1.821   0.705 -0.0606  0.1104  0.0561
11498W        W26967   2.880  10.621  12.580 -0.0912 -0.2036 -0.0575
11499W        W26968   8.107   8.402  15.713 -0.1316 -0.1354 -0.1947
11500W        W26969  17.614   8.200  11.311  0.1745 -0.3373 -0.2283
11501W        W26970  15.417  14.969  11.677 -0.0765  0.0717 -0.0161
11502W        W26971   6.700  13.067  14.935 -0.2221  0.1172  0.2014
11503W        W26972  16.664  10.686   4.963  0.3588 -0.1883  0.2096
11504W        W26973  13.453  15.085   4.070 -0.0022 -0.2426  0.0187
11505W        W26974  10.951  17.130   2.795  0.2051 -0.0353 -0.2443
11506W        W26975   2.437   1.941   0.739  0.1732  0.0536  0.0330
11507W        W26976   8.152  16.671  11.614 -0.0383 -0.1832 -0.2857
11508W        W26977   8.961  15.259   3.732  0.0184 -0.0256  0.0279
11509W        W26978  12.637   0.878   3.915  0.0672  0.1867  0.0494
11510W        W26979   8.092  15.804  10.728 -0.0349 -0.2878  0.0062
11511W        W26980   7.479  16.497  12.183  0.1558  0.4146  0.0275
11512W        W26981  10.050   4.791   5.928  0.1928  0.2120 -0.0078
11513W        W26982   6.495   5.856  12.068  0.0778  0.0790 -0.0270
11514W        W26983  13.995   2.124  12.411  0.2114 -0.4473  0.2629
11515W        W26984   0.208  13.876   3.581 -0.1677 -0.0462  0.0868
11516W        W26985   8.006  15.754   4.178  0.0488  0.0201 -0.4098
11517W        W26986  15.820   9.573   4.556  0.0219  0.3306  0.0789
11518W        W26987   8.505   9.677   4.099  0.1690  0.4586  0.2550
11519W        W26988  18.439  13.820  13.560  0.2039 -0.0248  0.1417
11520W        W26989  16.380   8.010   2.236 -0.2404  0.3061  0.2239
11521W        W26990   1.459  17.935  15.091 -0.0020  0.0187 -0.1230
11522W        W26991  16.623  16.280   3.274  0.1274 -0.3012 -0.1942
11523W        W26992   8.947  17.168   1.416 -0.1290  0.0307 -0.0647
11524W        W26993   6.954   2.021  12.708  0.1694  0.0909  0.0246
11525W        W26994  11.255   6.848   2.344  0.1097  0.6337  0.1294
11526W        W26995   6.044  16.214   1.725 -0.0050 -0.1670 -0.0096
11527W        W26996  11.605   4.423  13.485  0.1108  0.0830 -0.0738
11528W        W26997   4.626   3.096  15.572 -0.0534  0.1750  0.1587
11529W        W26998   5.625  12.134   5.067 -0.1951 -0.0606  0.1919
11530W        W26999  15.489  16.308   0.429 -0.0620  0.4144  0.0671
11531W        W27000  15.172  17.119   3.928  0.0782  0.1772 -0.0943
11532W        W27001   6.181  17.993  15.870  0.1159  0.1064 -0.1580
11533W        W27002  14.318   3.293   5.266  0.3337 -0.0252 -0.2774
11534W        W27003  11.594  10.705   0.166 -0.0289 -0.1539  0.0052
11535W        W27004   6.675   0.620   2.820  0.1241 -0.1131 -0.2453
11536W        W27005  10.300  17.540   3.426  0.1294  0.0808  0.1827
11537W        W27006  14.985   3.222  13.486 -0.0796  0.3630  0.1959
11538W        W27007  13.089   0.279   5.453  0.0536  0.1866 -0.1289
11539W        W27008  14.238   5.684  11.958  0.1271  0.0010 -0.0853
11540W        W27009   0.869  15.814   3.828  0.2693 -0.1831  0.2614
11541W        W27010  16.286  15.821  10.829 -0.0569 -0.0570  0.0184
11542W        W27011   8.360   1.926  15.211  0.0753 -0.0581  0.2679
11543W        W27012   6.120   5.071   1.256 -0.0142 -0.0638  0.2151
11544W        W27013  17.600   3.436   3.054 -0.2577 -0.3126  0.0444
11545W        W27014  14.269  17.637   4.162  0.1138 -0.4442  0.0378
11546W        W27015   1.766  11.090  12.208 -0.0932 -0.0601 -0.2544
11547W        W27016   6.848  15.590   1.476  0.0637  0.1272 -0.0149
11548W        W27017   8.284  15.732  15.350  0.1295  0.1747  0.0794
11549W        W27018  12.562  11.258  13.079  0.1253 -0.0185  0.2653
11550W        W27019   2.604   7.071   4.930  0.1010  0.0494  0.3980
11551W        W27020  13.887   1.949   3.269  0.0160 -0.0114  0.0820
11552W        W27021   8.408  13.446  14.113  0.3501  0.0229  0.0111
11553W        W27022  17.909   1.588   0.960  0.0784  0.1196  0.1304
11554W        W27023  15.893   3.187  13.878 -0.2247  0.1344 -0.0058
11555W        W27024   0.865  15.185   5.046 -0.0535 -0.3331  0.0359
11556W        W27025  14.523  12.965  13.729  0.0796  0.1142  0.4688
11557W        W27026   6.809   9.427   4.560  0.0436 -0.2143  0.1021
11558W        W27027   2.349   6.655   5.842 -0.0348  0.0282  0.0633
11559W        W27028   2.877   5.208  15.733  0.1438 -0.4434  0.5351
11560W        W27029  12.435   4.673   1.458  0.0437  0.2922 -0.0811
11561W        W27030  16.178   3.415  10.935  0.1746  0.0652  0.1522
11562W        W27031   8.508   8.810  12.317 -0.2684  0.0897  0.3037
11563W        W27032  10.467  17.459  11.614  0.1209  0.0014  0.2091
11564W        W27033   4.100  12.974  13.408 -0.0298 -0.1033 -0.2632
11565W        W27034  13.138   4.417   9.981 -0.4120  0.1813  0.0879
11566W        W27035  16.707  14.701  12.286  0.0026  0.0715  0.2271
11567W        W27036  14.743   7.238  13.881 -0.1020 -0.2607 -0.0900
11568W        W27037   7.874   5.808  11.815  0.0542 -0.2210 -0.2141
11569W        W27038  11.175  16.604   0.506 -0.1840 -0.0111  0.3470
11570W        W27039  14.600   6.119  13.045 -0.2222 -0.2915 -0.1651
11571W        W27040   3.118  16.705  14.778  0.1063  0.0874 -0.1568
11572W        W27041   4.011  14.380  14.019 -0.0132 -0.0039  0.2171
11573W        W27042   5.354  14.200  11.491 -0.0365  0.0269 -0.2292
11574W        W27043   9.546   6.590   5.280 -0.2041  0.0391  0.0052
11575W        W27044   3.689  11.510   0.003 -0.2489  0.0541 -0.1787
11576W        W27045   2.959   2.262  10.705  0.4288  0.1681  0.3732
11577W        W27046   2.469  11.251   1.572 -0.0390 -0.0069  0.1364
11578W        W27047   2.814   9.315  12.250 -0.2935 -0.0426  0.1518
11579W        W27048   9.567   5.343   0.340  0.1722 -0.1444 -0.2490
11580W        W27049   4.711  12.596  13.892 -0.0429 -0.1797 -0.1831
11581W        W27050   3.102  16.487  15.218  0.0474  0.0022 -0.1168
11582W        W27051   6.370   3.785  15.164 -0.3077  0.3662 -0.3051
11583W        W27052  13.634  17.824  12.828  0.0902  0.0062  0.0280
11584W        W27053  13.572  17.941   2.062  0.2239  0.0645 -0.1458
11585W        W27054   6.277   0.925   4.579  0.0717  0.3866 -0.3247
11586W        W27055   4.288   8.944  14.699  0.0528  0.0861 -0.0645
11587W        W27056  15.250  12.570   3.740 -0.1153  0.2541  0.0223
11588W        W27057  14.275  13.632  11.538  0.0375 -0.2875 -0.0262
11589W        W27058  11.568   6.944  13.048 -0.2661  0.0843  0.1173
11590W        W27059   8.321   2.985   1.305  0.0687  0.3546 -0.0036
11591W        W27060  11.089  13.672   3.444 -0.0497  0.3077 -0.2577
11592W        W27061   3.277   2.822  11.901  0.0296 -0.0594  0.0672
11593W        W27062   3.151   5.865   2.710 -0.0632 -0.1674 -0.1756
11594W        W27063   9.550  14.648  13.414  0.0166 -0.2089  0.1037
11595W        W27064  12.708   6.971  14.506  0.1181  0.1760  0.1105
11596W        W27065   9.364  13.897   5.317  0.6581 -0.2275 -0.0332
11597W        W27066   1.366   6.646  13.771 -0.1560  0.2040  0.0936
11598W        W27067   9.217  16.073  14.253 -0.0086 -0.0895 -0.0008
11599W        W27068  10.619  10.974   3.693  0.0779 -0.0636 -0.3567
11600W        W27069   6.768  10.321  15.873 -0.0084  0.0619 -0.2102
11601W        W27070  11.736   0.526  13.125  0.0014 -0.3154  0.0876
11602W        W27071  12.911  17.484   3.617  0.1144  0.1024  0.1569
11603W        W27072   0.682   7.908  15.187  0.0011  0.1866  0.0085
11604W        W27073  15.220   9.636  15.538 -0.1456 -0.1089  0.0573
11605W        W27074  15.509   7.031   5.695  0.5942 -0.0592  0.2221
11606W        W27075   7.320  14.680  15.584  0.2304 -0.2151  0.1696
11607W        W27076  12.681  16.997   6.426  0.3544  0.1271 -0.2434
11608W        W27077   0.655   8.078   2.587  0.1280 -0.0615 -0.0832
11609W        W27078   6.941  17.849  11.059  0.1111 -0.1690 -0.2866
11610W        W27079   7.448   8.576   4.362 -0.0501 -0.1610  0.3969
11611W        W27080  12.441  12.596  13.367 -0.0476  0.0436  0.2256
11612W        W27081  14.400  15.054   2.011 -0.1274 -0.0441 -0.1268
11613W        W27082  16.705   1.446  14.315 -0.1933 -0.4014 -0.2434
11614W        W27083   9.067   8.935   4.110  0.0193  0.1210 -0.3792
11615W        W27084  12.699   8.266   4.326  0.1806 -0.1219  0.1191
11616W        W27085   8.713   1.205   1.284 -0.5361 -0.1344  0.0939
11617W        W27086   9.302  14.775  14.925  0.1211  0.0787 -0.1218
11618W        W27087  10.026  11.907  14.002  0.2242  0.0951 -0.5581
11619W        W27088  15.924  16.105   4.249 -0.0716  0.1784  0.0230
11620W        W27089   7.690  17.027  11.529  0.0772  0.1737 -0.1448
11621W        W27090   2.650   4.037   5.151 -0.3380 -0.4042  0.2496
11622W        W27091  11.787   5.099   4.661  0.1464 -0.1170 -0.1703
11623W        W27092   7.481  16.593  11.663  0.2408  0.2032  0.3369
11624W        W27093  14.384   8.651   5.231  0.0159 -0.0485 -0.2208
11625W        W27094  15.985   5.576  10.420 -0.2319 -0.2100  0.1440
11626W        W27095   4.401  10.514   0.708  0.0954 -0.0987  0.0540
11627W        W27096   9.389  11.967   4.861  0.0698  0.0437  0.0452
11628W        W27097   1.427  10.810  15.457 -0.2045 -0.0846  0.0787
11629W        W27098   7.833  16.360  14.542 -0.2210 -0.1041 -0.0836
11630W        W27099   8.153  12.558  13.039  0.2097  0.0789  0.3538
11631W        W27100  17.299  11.631  13.218  0.1780  0.1114 -0.1816
11632W        W27101  12.438  16.749  14.442  0.0861 -0.0058 -0.0798
11633W        W27102  11.764  17.362   1.333 -0.0382 -0.1231 -0.1536
11634W        W27103  13.210  12.006   4.540  0.1826 -0.1129  0.0888
11635W        W27104   3.975   6.355  11.694 -0.0694  0.2299  0.0154
11636W        W27105  15.461   7.319  12.678  0.1509 -0.0993 -0.1717
11637W        W27106   5.988   9.891  13.867  0.3109  0.2966 -0.0800
11638W        W27107  14.005  12.892  13.803 -0.0293 -0.3060  0.1811
11639W        W27108  18.010   8.758  15.181 -0.1771 -0.1839  0.1078
11640W        W27109   7.414   0.060   2.282  0.1011  0.0327  0.3396
11641W        W27110   5.208  17.100   0.805  0.4048 -0.0380  0.1072
11642W        W27111  15.216   0.180  11.909 -0.0912 -0.1221  0.1203
11643W        W27112  14.651   5.409   0.644  0.0462 -0.2388  0.2103
11644W        W27113   9.311  12.267   1.856 -0.0281 -0.1437  0.1387
11645W        W27114  14.885  16.387   3.012  0.2217  0.0479 -0.0076
11646W        W27115  15.734   2.032   4.807 -0.1768  0.0485 -0.0901
11647W        W27116  12.516   3.215   3.366 -0.1202  0.1470  0.3776
11648W        W27117   4.799   8.215  14.465 -0.0712  0.0114 -0.0401
11649W        W27118   4.259  16.262   4.495 -0.3981  0.0459  0.0338
11650W        W27119   6.603   5.403   0.040  0.3848 -0.0987  0.1647
11651W        W27120   8.197   5.396  15.886 -0.2470  0.3239 -0.3601
11652W        W27121  10.537  10.789   4.741 -0.2578 -0.0355  0.1792
11653W        W27122   0.226   7.175   0.279  0.1586  0.3558 -0.0321
11654W        W27123  12.955   4.517   1.730 -0.1050 -0.5225  0.3165
11655W        W27124   5.550  10.145  12.070  0.0177  0.2823  0.1312
11656W        W27125  10.328   9.988   3.403 -0.0929  0.2530 -0.0646
11657W        W27126  15.424  15.434  14.908  0.0433  0.2211  0.1038
11658W        W27127  15.017   5.539   2.846 -0.0134  0.1078 -0.0994
11659W        W27128  18.227   5.532   5.999  0.2414 -0.1050  0.1979
11660W        W27129   3.274   8.647   3.918  0.1669  0.2074  0.0542
11661W        W27130   6.281  16.520   5.041  0.1251  0.0045  0.0456
11662W        W27131  15.016   1.148  10.292  0.1666 -0.1083 -0.2001
11663W        W27132   4.682  17.396  15.799  0.0950  0.0575  0.2386
11664W        W27133   6.251  10.780  15.073 -0.1197  0.2439  0.0639
11665W        W27134   7.775  13.879   1.014 -0.4279 -0.0312 -0.0915
11666W        W27135  12.669   9.740   5.574 -0.0779  0.0958 -0.0562
11667W        W27136   3.901   0.939   3.586 -0.2579  0.0175  0.1522
11668W        W27137  18.050  11.463   2.355 -0.1185  0.1979  0.1577
11669W        W27138  17.771  17.441  11.813 -0.0590  0.1170  0.1325
11670W        W27139   5.112  16.046   0.016 -0.3058 -0.3830  0.0703
11671W        W27140   6.873  16.837   1.359  0.1010 -0.0830  0.3097
11672W        W27141   4.029  17.786   3.017  0.0709 -0.1775 -0.1854
11673W        W27142  10.148  11.518   4.660  0.0476 -0.0181  0.0130
11674W        W27143   8.981   1.553   1.624 -0.0007 -0.3997  0.0185
11675W        W27144   8.803   5.284  12.566 -0.1661  0.0762  0.1076
11676W        W27145  15.380   1.056  14.501  0.1930 -0.2923  0.4116
11677W        W27146  10.674   3.112   4.902  0.2920  0.0476  0.0003
11678W        W27147  15.453  11.691  14.995 -0.3426 -0.0524 -0.2291
11679W        W27148  14.170  15.566  12.505 -0.3841  0.1291 -0.0098
11680W        W27149   8.325   0.712  14.966 -0.1115  0.0475 -0.0459
11681W        W27150   7.584  11.287   3.180  0.0043 -0.2335 -0.0262
11682W        W27151   4.199  15.263   4.744 -0.2495  0.3349  0.2147
11683W        W27152   9.935   2.610   3.920 -0.0121 -0.2506 -0.2980
11684W        W27153   0.606  13.141  15.673 -0.3464 -0.0997  0.0601
11685W        W27154  13.935   6.463   4.810 -0.0199 -0.0266  0.0192
11686W        W27155  16.757   3.862  14.613 -0.1914 -0.1205  0.3144
11687W        W27156  15.853  16.874   0.719 -0.3913 -0.1661  0.0891
11688W        W27157   5.706   0.017   2.222  0.1021  0.2105  0.1406
11689W        W27158   0.718   5.514   3.605 -0.0061  0.0230  0.1769
11690W        W27159   0.027   8.618  14.195 -0.2930 -0.1934 -0.2107
11691W        W27160   2.738  10.530   3.517 -0.0781 -0.2083 -0.0238
11692W        W27161   2.240   7.406   3.105  0.1603 -0.0076  0.2185
11693W        W27162  12.802   7.977  12.916  0.3595  0.3378  0.0328
11694W        W27163   0.164   5.756   2.859  0.2640 -0.1825  0.0960
11695W        W27164  14.964   5.666  15.107  0.0090 -0.2863  0.2623
11696W        W27165   2.246   6.701  15.545  0.0932 -0.1513 -0.0316
11697W        W27166   9.328   5.440  14.511 -0.1486  0.0957 -0.1511
11698W        W27167  17.765  12.617   2.773  0.1662 -0.0100 -0.3248
11699W        W27168  15.043  17.610   3.773  0.0561  0.2623  0.1296
11700W        W27169  10.641  11.733   4.732  0.1195  0.2299  0.0843
11701W        W27170   0.157  11.463   2.643  0.0289  0.0650 -0.0487
11702W        W27171  17.691   2.672  10.895 -0.0831 -0.0610 -0.1855
11703W        W27172  11.565  12.195  13.145 -0.1109 -0.0966 -0.0953
11704W        W27173   8.634   4.058   4.445 -0.0163  0.1259 -0.1234
11705W        W27174   4.754  12.459  14.919  0.2181 -0.1091  0.0820
11706W        W27175  15.548   9.477  13.519  0.4222  0.0604 -0.1117
11707W        W27176  17.302  17.988  15.077  0.1226  0.2558 -0.0875
11708W        W27177   8.794   9.953  12.084 -0.1642  0.0412  0.0450
11709W        W27178   0.466  11.012   0.944  0.0415  0.1484 -0.1566
11710W        W27179  11.638   6.557   4.121  0.0785  0.1269  0.1542
11711W        W27180   1.301  14.532  14.028 -0.0483  0.1882  0.2545
11712W        W27181   4.808   5.614   3.130  0.0034 -0.0367  0.1099
11713W        W27182  10.587  11.298   4.428  0.3424 -0.1186  0.0791
11714W        W27183  14.778  17.116   4.862 -0.0829 -0.1355 -0.1503
11715W        W27184  18.120   2.479  15.456  0.1893 -0.1746 -0.0465
11716W        W27185   1.509   8.533   3.824  0.0948 -0.2015 -0.1580
11717W        W27186  14.426  13.744   5.279  0.2199 -0.0344  0.0641
11718W        W27187  16.195  10.190  11.009 -0.0980 -0.0034 -0.2820
11719W        W27188  12.218  11.332   3.747 -0.0933  0.2004 -0.0347
11720W        W27189   0.774   5.863  11.841 -0.2381  0.0943 -0.1406
11721W        W27190   0.412   3.525   2.949 -0.1725 -0.4073  0.1259
11722W        W27191  15.821  13.052  15.832  0.1319  0.1752  0.0824
11723W        W27192   9.924   4.653   4.042 -0.0740  0.2155 -0.1511
11724W        W27193   2.450   5.665  11.130  0.2747  0.1950 -0.0544
11725W        W27194   7.479   3.141  14.955 -0.2816  0.1988  0.1133
11726W        W27195   0.728  17.512  14.976  0.2142  0.1427  0.0812
11727W        W27196  14.537   2.894   2.933  0.0251  0.3543  0.0447
11728W        W27197   1.461   0.190   0.715 -0.0847 -0.2777  0.2834
11729W        W27198   3.458   5.845  13.069  0.2782  0.1555  0.1549
11730W        W27199   3.521  10.009  13.025 -0.0534 -0.1484  0.0693
11731W        W27200   0.725   2.592  13.058  0.4662  0.2618  0.1144
11732W        W27201  16.906   6.479   5.164 -0.0941 -0.1293  0.1195
11733W        W27202  12.106   0.714   1.029  0.1432 -0.0920 -0.0526
11734W        W27203   7.502   9.555  14.064 -0.0908 -0.1783  0.1415
11735W        W27204  16.901  11.059  11.996 -0.0276 -0.2414  0.2971
11736W        W27205   3.246  13.370   3.880 -0.0888 -0.1380  0.1289
11737W        W27206  16.017   4.939   4.107 -0.1875  0.0096  0.0586
11738W        W27207  11.049   7.454  15.091 -0.0359  0.1141  0.0770
11739W        W27208  10.775  11.584  13.011 -0.1058 -0.1168 -0.0980
11740W        W27209   3.913  11.508   2.135 -0.1472 -0.0374 -0.0919
11741W        W27210  17.518   5.441  11.234  0.0464  0.0359 -0.2873
11742W        W27211  14.593  11.861   3.643  0.1078 -0.0240 -0.0568
11743W        W27212   3.148  11.292  14.519 -0.1245 -0.0186  0.0195
11744W        W27213   2.280   8.667  12.552 -0.0107 -0.0313  0.0443
11745W        W27214   4.059   0.091   5.112  0.3249  0.1519 -0.1096
11746W        W27215  15.764   8.310   5.093 -0.2536  0.2380  0.1692
11747W        W27216  17.746   2.729  12.133 -0.2522 -0.1291  0.0352
11748W        W27217   2.542   7.800   2.853 -0.4148  0.2661  0.2519
11749W        W27218   0.822   0.223   3.387  0.1640 -0.2383  0.0482
11750W        W27219   6.158  17.800  15.409 -0.1766  0.3754 -0.1776
11751W        W27220   7.135  12.557  14.320 -0.1838  0.1227 -0.1275
11752W        W27221  10.728  13.184   3.981  0.1856 -0.0637 -0.1345
11753W        W27222   2.352  11.532   4.407  0.0354 -0.1710  0.0352
11754W        W27223   1.454   4.946   1.471 -0.2984  0.1032  0.0661
11755W        W27224  12.641   3.957  12.276 -0.2071 -0.1153 -0.1841
11756W        W27225   0.285  17.170   5.327  0.1342 -0.4108 -0.0916
11757W        W27226   9.027   5.485   5.183 -0.0117 -0.1091  0.0041
11758W        W27227  10.586   9.551  14.425 -0.0805  0.2867 -0.1815
11759W        W27228  17.739   1.498  10.550  0.1393 -0.0956  0.1407
11760W        W27229   9.891   4.414  14.637 -0.0297  0.0699  0.1915
11761W        W27230  17.011   0.177   2.296  0.1458 -0.2604 -0.0473
11762W        W27231  15.708   3.528  11.057 -0.0715  0.0893 -0.2226
11763W        W27232  13.645   6.635   3.184 -0.2576  0.3198 -0.0753
11764W        W27233   2.895  17.707   5.201 -0.2980  0.2146  0.0450
11765W        W27234   5.120  11.382   1.729  0.0605  0.2278 -0.2784
11766W        W27235  16.371   5.514  13.771 -0.0260  0.1042 -0.1690
11767W        W27236   8.642   6.248  13.082 -0.0618 -0.2735 -0.1006
11768W        W27237  16.248  14.538  12.163  0.0399  0.3023 -0.0230
11769W        W27238   2.253   3.835   5.860  0.0433  0.2945  0.0410
11770W        W27239   8.638   6.713   3.043 -0.1279  0.0519  0.0206
11771W        W27240   1.961   2.054   3.768 -0.1203  0.1570  0.3550
11772W        W27241   6.989  17.002   4.021  0.0071 -0.0774  0.0854
11773W        W27242  10.990  15.499   5.841 -0.0503 -0.1441  0.1367
11774W        W27243   0.642  17.118   4.541 -0.2666 -0.1187  0.1275
11775W        W27244   7.024  10.636   3.619 -0.5204  0.0559 -0.1136
11776W        W27245   5.667  15.188  14.670  0.1709  0.1130  0.1326
11777W        W27246   1.095  15.797  11.867  0.2014  0.0024 -0.2442
11778W        W27247  13.005   4.441   4.466  0.2714 -0.1992  0.0049
11779W        W27248   9.898   8.089   4.147  0.0394  0.1167 -0.1176
11780W        W27249   5.537  17.553   1.981  0.0272  0.1354  0.2149
11781W        W27250  11.499   3.047   1.724  0.0688 -0.2049 -0.4792
11782W        W27251   5.879  16.637   0.404 -0.0116 -0.1664 -0.3803
11783W        W27252   5.710   1.951  12.264  0.1636 -0.0334 -0.2025
11784W        W27253   9.935   2.381   2.039  0.0848 -0.0077 -0.1568
11785W        W27254  12.944   5.068  15.811 -0.0167  0.3034 -0.2534
11786W        W27255   0.596  12.442  10.849  0.2277 -0.1044 -0.0877
11787W        W27256  16.660   2.192   4.023 -0.1482  0.1035  0.0802
11788W        W27257  17.376  18.186   5.597 -0.0996  0.1455 -0.1401
11789W        W27258  17.088  13.888  15.820  0.3475 -0.0586  0.0321
11790W        W27259   0.805  10.182   1.400 -0.0590  0.3329 -0.0897
11791W        W27260   5.414   3.877  12.737  0.1024  0.1681  0.1772
11792W        W27261   8.314  11.264  13.383 -0.0102 -0.1441  0.1079
11793W        W27262  14.839   2.690   3.335 -0.2050 -0.1393  0.1562
11794W        W27263   4.447  17.267   4.644  0.1550  0.4313  0.0494
11795W        W27264  13.019  17.494  11.241 -0.0879 -0.0466  0.1518
11796W        W27265   9.831   0.868  13.411  0.1211 -0.2710 -0.1180
11797W        W27266   5.373   5.119  11.765 -0.0946  0.3476  0.0938
11798W        W27267   4.910   9.971   0.387  0.0091  0.0344 -0.0382
11799W        W27268   1.584  13.480  10.873 -0.1827 -0.1034  0.3109
11800W        W27269   1.401  11.285  14.280 -0.1682  0.2491  0.0423
11801W        W27270   1.042   5.269  13.924 -0.1369  0.1084  0.1137
11802W        W27271  12.121  16.483   5.544 -0.0731  0.1014  0.3480
11803W        W27272   4.407   7.772   4.901  0.1481  0.0049 -0.1728
11804W        W27273  12.234   2.562  14.293  0.0562  0.1721  0.1803
11805W        W27274   7.099   5.508  13.128  0.0050 -0.1362  0.0409
11806W        W27275   6.915   8.797  14.365 -0.1305  0.0364  0.1731
11807W        W27276   2.880   4.550  11.445  0.0336  0.0558  0.1075
11808W        W27277  13.253   9.154   2.574  0.0884  0.0940  0.0192
11809W        W27278   2.578  14.678  15.030  0.0589  0.0160 -0.0848
11810W        W27279   2.228   1.161   4.396  0.0254  0.2676 -0.1657
11811W        W27280   7.730   2.398  12.519  0.0722 -0.0485 -0.2781
11812W        W27281  17.016   8.883   3.576  0.1530 -0.0563  0.3048
11813W        W27282  17.769   1.049   4.174  0.1571 -0.1687  0.4166
11814W        W27283  17.118  14.461   4.524 -0.0106  0.1819 -0.3711
11815W        W27284   9.660  16.585  14.905 -0.0739  0.2946 -0.2665
11816W        W27285   2.017  16.181  11.922  0.0696  0.2301  0.0594
11817W        W27286   1.197  12.923   0.209  0.5103 -0.0823  0.1610
11818W        W27287  12.574   8.238   1.347  0.2089 -0.0374  0.0333
11819W        W27288   3.018   9.684  15.710  0.0793 -0.1961  0.2497
11820W        W27289   9.619  10.552  12.212 -0.0604  0.1454 -0.1448
11821W        W27290   3.778   1.995   1.383 -0.1742 -0.3265  0.0480
11822W        W27291  18.452  17.982  15.730 -0.2154 -0.1577 -0.1822
11823W        W27292   6.042  16.156   0.594 -0.1816 -0.0843 -0.2137
11824W        W27293  16.867   2.356   2.735 -0.3852 -0.0478  0.1442
11825W        W27294  12.754  14.384   3.495  0.1370 -0.0096 -0.5545
11826W        W27295   5.546   6.312  14.163  0.2164 -0.2134 -0.1344
11827W        W27296  15.588   9.233   5.290 -0.0469 -0.0800  0.0619
11828W        W27297   3.643  10.259  12.559  0.3698  0.1778 -0.0596
11829W        W27298   8.573   3.370  15.710 -0.1374  0.1533 -0.2158
11830W        W27299  10.632   4.881  11.781 -0.0643  0.1115 -0.1159
11831W        W27300   9.316   8.523   0.971 -0.0830 -0.0689  0.0147
11832W        W27301   3.037   5.782   3.190  0.3621  0.1078 -0.0097
11833W        W27302   6.746   6.401   4.602  0.0357  0.1327 -0.0633
11834W        W27303  10.353   9.541   3.635 -0.4350 -0.3288 -0.0178
11835W        W27304  14.079  15.375   5.108  0.1167  0.0566 -0.2049
11836W        W27305   7.350  12.719  13.857 -0.1374 -0.2465  0.1257
11837W        W27306  10.866  13.745   1.137 -0.4072  0.0831  0.1699
11838W        W27307  14.403  11.458  15.409  0.0779 -0.0405 -0.1058
11839W        W27308   1.885   9.290   3.739  0.0894  0.0881  0.0320
11840W        W27309   0.624  16.155   0.264 -0.0150  0.1933 -0.0765
11841W        W27310   5.043  13.254  11.125 -0.2634 -0.2837 -0.2202
11842W        W27311  10.462   4.624   3.122  0.2549 -0.2006  0.0631
11843W        W27312  18.013  10.284  14.002  0.2037 -0.4732 -0.0495
11844W        W27313  16.739  12.602   0.473 -0.1060 -0.0264  0.0476
11845W        W27314  16.482  12.195  13.184 -0.1690  0.1300 -0.0245
11846W        W27315   2.149   0.896  10.700 -0.3057  0.1492  0.2573
11847W        W27316   4.573   2.277  15.837  0.2296  0.0623  0.0442
11848W        W27317   2.933  10.788   0.026 -0.1076 -0.1510  0.0454
11849W        W27318  16.771  17.573   4.431 -0.5415  0.0079 -0.2721
11850W        W27319  14.145   2.344   0.620  0.1891  0.1819  0.0780
11851W        W27320   1.509   1.656   2.652  0.0357  0.0401 -0.1303
11852W        W27321  13.639   6.475  13.271  0.1026  0.1007 -0.1217
11853W        W27322  10.500   5.383  12.469  0.0144  0.0709  0.3729
11854W        W27323  17.567  15.209  11.577 -0.1018 -0.1040  0.0130
11855W        W27324   4.580   5.311  12.169  0.1204 -0.1363 -0.1180
11856W        W27325   7.498  18.207   0.404  0.0176 -0.1601  0.1665
11857W        W27326   8.846  16.215  13.476  0.1902  0.0553 -0.1296
11858W        W27327  14.771   2.195  15.172 -0.0517  0.0912 -0.0012
11859W        W27328   0.380  16.915   3.665  0.0620  0.0637  0.0563
11860W        W27329   7.429   1.431  12.114  0.1707  0.3830  0.1880
11861W        W27330  13.771  10.730   0.628  0.3139  0.2022 -0.0027
11862W        W27331  12.301  13.853  13.811  0.0735  0.0630 -0.0556
11863W        W27332  17.648  14.648   5.109 -0.0473 -0.2085  0.2674
11864W        W27333   1.755  17.749   0.457 -0.0537  0.1941  0.1991
11865W        W27334  16.654  14.676  14.997 -0.0617 -0.0136 -0.0081
11866W        W27335   9.041  14.780   3.928 -0.1744  0.4041  0.0738
11867W        W27336   3.163  18.441   4.455  0.1465  0.2891 -0.0006
11868W        W27337   6.031  10.976  12.910  0.0935 -0.0425 -0.0975
11869W        W27338   0.775   4.841   0.581  0.1329 -0.1369 -0.1795
11870W        W27339  18.036  17.226  14.176  0.1776 -0.3894  0.0742
11871W        W27340  16.972   1.882   0.723 -0.0388 -0.3643 -0.0030
11872W        W27341  10.776  12.149  13.910 -0.0947 -0.0084  0.0230
11873W        W27342   2.668  17.499   5.606 -0.0983  0.0979  0.1965
11874W        W27343   9.654  15.947   3.352  0.2909  0.0996 -0.0605
11875W        W27344  16.453  10.509  15.373 -0.0299  0.1906  0.0451
11876W        W27345   3.834   4.471   3.458  0.1999  0.0963 -0.1285
11877W        W27346   9.166  15.372  14.742 -0.1117 -0.0073 -0.2025
11878W        W27347   8.940  16.111   3.882 -0.0888  0.4738  0.2795
11879W        W27348  13.952   8.199   1.099  0.0798  0.0605  0.0083
11880W        W27349   2.081   9.015   4.122  0.0507  0.1137 -0.0817
11881W        W27350   8.937   2.442  15.210  0.0435  0.2279 -0.0616
11882W        W27351   5.147   9.540  13.226  0.1984  0.2420 -0.0770
11883W        W27352   3.887  13.302  14.894 -0.1298  0.0208 -0.0286
11884W        W27353   5.831  15.861   5.549  0.0329 -0.2227 -0.0555
11885W        W27354  16.840   1.858  11.297 -0.0867  0.0052  0.1151
11886W        W27355   2.702   5.679   0.736 -0.3180  0.0078 -0.3204
11887W        W27356   9.251  13.602   3.480 -0.0315 -0.0612 -0.0459
11888W        W27357  10.529  15.235   4.752  0.0356 -0.2390 -0.1422
11889W        W27358   4.113   3.500   0.564  0.0645  0.2154  0.0124
11890W        W27359   2.474   0.571  13.394  0.1242 -0.1475 -0.4475
11891W        W27360  17.146   4.301   0.012 -0.2608  0.0210  0.0375
11892W        W27361  12.893   4.495   1.218 -0.2302  0.1413  0.2509
11893W        W27362   8.005   5.935  14.668  0.1718 -0.0208 -0.0774
11894W        W27363  13.703   6.254   3.686  0.1667 -0.1515 -0.2069
11895W        W27364   8.018  16.852  14.420  0.3880  0.2446  0.3690
11896W        W27365  11.026   9.089   0.278 -0.2115 -0.0384 -0.1514
11897W        W27366   4.381  11.535  12.588  0.2471  0.1215 -0.0057
11898W        W27367   5.381   9.120  12.739  0.0375 -0.0230 -0.1520
11899W        W27368   6.817   2.921   4.759 -0.3522 -0.0188  0.0440
11900W        W27369   3.201   2.236  13.090 -0.1290 -0.1510 -0.3199
11901W        W27370  13.155   6.848  14.160  0.2826 -0.0284 -0.0946
11902W        W27371   9.254  15.596   3.199  0.3745  0.0040 -0.0295
11903W        W27372  11.637  12.158  12.109  0.1210  0.0917  0.3803
11904W        W27373   6.218   8.585   3.399 -0.2565 -0.1354 -0.1306
11905W        W27374  18.341   4.743  12.429 -0.1648 -0.0933  0.1079
11906W        W27375   2.050  12.595  15.441  0.0135 -0.0865 -0.1229
11907W        W27376   1.220  16.995   0.795  0.1563 -0.2471  0.0081
11908W        W27377   5.720   4.015  13.120  0.2532  0.1915  0.1417
11909W        W27378   3.885  11.428  13.569 -0.0280  0.0085 -0.0539
11910W        W27379  13.854  12.007  12.081  0.1144 -0.0143  0.2073
11911W        W27380   5.871   3.145   2.606 -0.1726  0.1668 -0.0215
11912W        W27381   7.473   2.461   2.614 -0.1787  0.0679 -0.0388
11913W        W27382   8.260   4.098   5.411  0.3964  0.0599  0.3138
11914W        W27383  13.295   0.394   4.541 -0.0406  0.0952  0.0325
11915W        W27384   7.030  11.462   1.089  0.0930  0.3234  0.0135
11916W        W27385  11.342   4.049   4.662  0.2291 -0.2231  0.1200
11917W        W27386   3.934   4.718  13.319 -0.0232  0.0760 -0.1656
11918W        W27387   2.872   1.287  11.190  0.0228  0.0197 -0.2277
11919W        W27388  15.081   8.306  14.936  0.1613 -0.1113  0.3305
11920W        W27389  14.768   1.913   2.856 -0.0840 -0.0438  0.2617
11921W        W27390  18.004   3.162  13.384  0.0819 -0.1291 -0.1071
11922W        W27391  15.744  12.902  12.369 -0.1975 -0.1126  0.1132
11923W        W27392   6.489  15.446  14.074 -0.0375  0.0060  0.2485
11924W        W27393   4.927   2.836   2.941 -0.0162  0.1586  0.1196
11925W        W27394   3.993  11.390   3.199  0.0536 -0.2533 -0.0694
11926W        W27395  11.699   8.413   0.629  0.1186 -0.2273  0.0355
11927W        W27396   2.941   7.233  14.221 -0.1826 -0.1698 -0.0945
11928W        W27397  10.912   4.636   1.525  0.2407 -0.3081 -0.0063
11929W        W27398   1.641   2.838  14.886 -0.1142  0.1558  0.3471
11930W        W27399   2.680  14.739   2.891  0.1117 -0.3676 -0.0341
11931W        W27400   0.113  11.116   0.097  0.2981 -0.2033 -0.1671
11932W        W27401  16.770   7.138  11.036 -0.2272  0.1852  0.1665
11933W        W27402  16.315   8.466  12.937  0.0115  0.2515  0.0504
11934W        W27403  10.136   0.175  14.448  0.1562 -0.0429 -0.3102
11935W        W27404  15.233  14.250   1.558 -0.3836 -0.0883  0.1008
11936W        W27405  10.132   4.085   5.306 -0.0822 -0.1131  0.3038
11937W        W27406   4.692   0.198   2.014 -0.1705  0.1538  0.0761
11938W        W27407  11.413   3.677   5.009 -0.0607 -0.2344  0.0390
11939W        W27408   1.993  11.876   5.445 -0.0415 -0.1375 -0.0300
11940W        W27409  17.671   8.801   0.185  0.0478  0.0538 -0.1515
11941W        W27410   0.387  13.213  10.891  0.0882  0.0606  0.0349
11942W        W27411  12.265   7.674   4.126  0.0041  0.1271 -0.1498
11943W        W27412  15.162   3.740  15.359 -0.0542 -0.0515  0.0720
11944W        W27413  12.497  11.351   1.686  0.0204  0.3957 -0.1621
11945W        W27414   3.999   4.859   4.094 -0.1936  0.2196  0.0962
11946W        W27415   7.153   9.207  12.589  0.1228  0.0352  0.0600
11947W        W27416   4.256   5.147   0.238  0.0317 -0.0257  0.0382
11948W        W27417  17.480  10.503  11.393  0.1733 -0.1044  0.1579
11949W        W27418   9.929   1.826   0.450 -0.2287  0.3943 -0.0803
11950W        W27419   1.410  16.824   2.306 -0.3871 -0.1314 -0.1165
11951W        W27420  16.834  14.194  12.161  0.1506  0.1620 -0.0329
11952W        W27421   8.545  10.207   3.216 -0.2374 -0.3018  0.1893
11953W        W27422   7.222   0.115   0.229  0.3537  0.1443  0.0415
11954W        W27423   1.068  17.010  12.682  0.1878  0.3463 -0.2139
11955W        W27424   9.136   9.819  11.241  0.1089  0.3349 -0.0698
11956W        W27425   7.830  15.623  15.180 -0.1726 -0.2900 -0.3406
11957W        W27426   0.738   4.525   4.635 -0.0578  0.1806  0.2510
11958W        W27427  11.189  13.197   0.006 -0.4015 -0.3969  0.1612
11959W        W27428   8.858  17.228  13.336 -0.1351  0.0696 -0.1096
11960W        W27429  15.021  15.122   0.368 -0.1224  0.1901  0.0529
11961W        W27430  10.203  16.497   2.933 -0.1797  0.4588 -0.0863
11962W        W27431   9.637  17.732   1.790 -0.0326 -0.1743 -0.0410
11963W        W27432  10.684   7.596   2.412 -0.4217 -0.0671  0.1309
11964W        W27433   5.128  17.296   4.644  0.1201 -0.1996  0.0143
11965W        W27434  14.426  15.371   3.951  0.2818  0.0321  0.1027
11966W        W27435  11.082  14.047   1.468  0.0807 -0.1384 -0.0519
11967W        W27436   8.067   6.562   0.062  0.1531  0.1676 -0.2843
11968W        W27437  14.501  17.619  12.879 -0.3307 -0.0040 -0.0090
11969W        W27438   5.655   4.945  13.450 -0.0038 -0.2266 -0.2479
11970W        W27439  13.867   8.352  13.642  0.0258 -0.0337  0.3416
11971W        W27440   8.841   8.442   2.744  0.0353  0.1029 -0.2602
11972W        W27441  11.982   5.347  13.927 -0.1271  0.0582 -0.0815
11973W        W27442   8.009   4.553  15.744  0.2010 -0.0205 -0.2002
11974W        W27443  10.260  13.522  14.975 -0.1209  0.0890 -0.1805
11975W        W27444   0.596  13.793   9.648 -0.1771 -0.1617 -0.3315
11976W        W27445   4.765  11.626  13.876  0.1167  0.1889  0.1920
11977W        W27446   0.933  17.539  13.250  0.0710 -0.0081  0.0788
11978W        W27447  12.021   6.569   0.740  0.0773 -0.1518 -0.1255
11979W        W27448  18.223  12.214   4.033  0.0615 -0.1464 -0.0441
11980W        W27449   2.510   0.819  12.931 -0.0172 -0.3454 -0.2004
11981W        W27450  11.115   8.856  11.864  0.0314 -0.2144  0.1852
11982W        W27451   4.969   6.472  13.382 -0.0561  0.2448  0.1822
11983W        W27452  16.311   1.111  11.572 -0.0473  0.1411 -0.0231
11984W        W27453   2.213   5.903  12.451  0.0527 -0.1600 -0.0747
11985W        W27454   0.912   3.973   2.169  0.0766 -0.1442  0.0998
11986W        W27455   0.297   3.066   3.233 -0.2596 -0.0792  0.0491
11987W        W27456  15.662  13.604   2.341 -0.2621  0.1708 -0.1206
11988W        W27457   8.748  13.937   1.767  0.4210  0.0844 -0.1146
11989W        W27458  13.410   1.887   4.962 -0.1531  0.1199  0.3196
11990W        W27459   0.881   7.814  10.227 -0.1110  0.0139  0.0133
11991W        W27460   1.411  14.540  13.500  0.0025 -0.0531 -0.0684
11992W        W27461   5.251  11.244   3.472 -0.3014  0.0490 -0.0429
11993W        W27462   5.728  18.404   5.299 -0.0807  0.0066 -0.1235
11994W        W27463   5.200  15.231  14.408 -0.1232  0.2031  0.1907
11995W        W27464   2.781   8.349   1.875 -0.5069  0.0757 -0.1441
11996W        W27465  17.312   3.382  14.698 -0.1977  0.1231  0.2576
11997W        W27466  16.706   2.916   1.091  0.0979 -0.1726  0.0393
11998W        W27467  17.311  11.489  15.474 -0.2218  0.0880 -0.1208
11999W        W27468  13.630   0.348   6.297 -0.4307 -0.1527  0.0824
12000W        W27469  13.962   9.284  15.302 -0.0875  0.0376 -0.0333
12001W        W27470   4.671  16.025   4.779  0.0349 -0.1693 -0.0717
12002W        W27471   8.315  10.672   0.262  0.0102 -0.0317  0.0193
12003W        W27472   5.932   9.466   4.311  0.0235 -0.0578 -0.1559
12004W        W27473  16.560   9.426   0.042  0.3002 -0.1755 -0.1222
12005W        W27474  11.741   3.935  14.682 -0.3643  0.1008 -0.1859
12006W        W27475   5.711   4.175  10.199  0.0013 -0.5340  0.0657
12007W        W27476   2.115  14.822   0.002 -0.0079  0.0807 -0.3892
12008W        W27477   9.249   5.432  15.748  0.0490  0.0567 -0.1430
12009W        W27478  15.534   8.217  10.750 -0.0883  0.0555 -0.1248
12010W        W27479  11.590  10.525  12.585  0.4122 -0.0025 -0.1645
12011W        W27480   1.844  15.519  11.354 -0.0008  0.1158  0.2566
12012W        W27481  16.444   6.352   0.138 -0.1836 -0.0425 -0.2824
12013W        W27482   2.045   3.393   0.744 -0.1198 -0.0287  0.0259
12014W        W27483  17.907   7.119  15.673  0.1390  0.0694  0.0633
12015W        W27484   7.232  17.676   1.619 -0.1778 -0.1384 -0.2402
12016W        W27485   1.544   7.312  11.142 -0.0800 -0.0397 -0.0458
12017W        W27486   7.708  15.703  13.399 -0.2109  0.1086 -0.1543
12018W        W27487   9.269  10.091  15.857  0.1097 -0.4441 -0.2143
12019W        W27488   1.098   8.820   4.334  0.1794  0.1679  0.0922
12020W        W27489   6.202  13.110  12.007 -0.0743 -0.1689 -0.0383
12021W        W27490   0.911  16.697   1.098  0.0235  0.0390 -0.0093
12022W        W27491  15.926   7.011  12.515  0.0326  0.0923 -0.0290
12023W        W27492   0.245   2.805  13.807  0.2869  0.2313 -0.1316
12024W        W27493   6.503  11.399  15.001 -0.0546 -0.0472 -0.3628
12025W        W27494   2.404   0.220   4.658 -0.1425  0.5658  0.0981
12026W        W27495  10.244   8.796  15.171 -0.2048  0.1903  0.1338
12027W        W27496   6.097   5.337   4.193 -0.2666  0.1499 -0.0140
12028W        W27497  11.060   3.921   5.256  0.0449 -0.1607 -0.2204
12029W        W27498  13.603  15.979   2.846  0.4736  0.3108  0.0952
12030W        W27499   9.892  14.247   5.855  0.3739 -0.0403 -0.0670
12031W        W27500  17.316  16.928   4.444 -0.0057 -0.1899  0.0717
12032W        W27501   4.951  11.542   2.215 -0.2362  0.1043  0.0919
12033W        W27502   9.825  14.694  14.929  0.3428  0.1930  0.1355
12034W        W27503   2.981   7.701   3.162  0.0839 -0.2718 -0.1786
12035W        W27504   0.818   2.533   4.293  0.0927  0.1229 -0.1389
12036W        W27505  16.043   4.507   3.614 -0.0774 -0.4149 -0.3613
12037W        W27506  12.338   2.716   3.186 -0.0913 -0.0177  0.0389
12038W        W27507   7.339  13.601  14.169 -0.2432  0.1620 -0.1317
12039W        W27508  11.304   0.009  11.803 -0.0221 -0.2366  0.1297
12040W        W27509  12.426  11.250   2.861 -0.1558 -0.0650  0.0010
12041W        W27510   6.344   2.200  15.611  0.1089 -0.0439 -0.3412
12042W        W27511  15.525   5.440  14.827  0.0716  0.1217 -0.1753
12043W        W27512  10.887   1.441   0.579  0.1836  0.2458 -0.1025
12044W        W27513   2.654   6.134  11.947  0.1250  0.0441  0.0246
12045W        W27514   3.516  13.390   9.792 -0.0842 -0.0012  0.1888
12046W        W27515   1.755  11.989  10.638 -0.1896 -0.1818  0.0932
12047W        W27516   7.685  17.555  14.107  0.0877 -0.0432  0.0347
12048W        W27517  13.460   7.555  15.718 -0.3085 -0.2984 -0.0871
12049W        W27518  18.390  17.951  11.303  0.0528  0.0435 -0.0414
12050W        W27519  16.976  15.610  12.152 -0.1562  0.0819  0.3695
12051W        W27520   6.155   3.530   3.625 -0.1452 -0.0312 -0.0091
12052W        W27521  14.627   8.256   4.179 -0.1637  0.0807  0.0273
12053W        W27522   1.969   2.032   1.777 -0.2862 -0.2290  0.2007
12054W        W27523  13.549   6.373  10.317 -0.0091  0.0937  0.2598
12055W        W27524   1.612   3.518  12.522 -0.1330 -0.1750 -0.0341
12056W        W27525  12.913  10.875  13.208 -0.1730  0.3235 -0.0827
12057W        W27526  10.471   0.300  13.504  0.0001  0.0746 -0.1382
12058W        W27527  10.888   8.307  11.852  0.1379 -0.1081  0.0762
12059W        W27528   1.641  13.008   3.952 -0.0787 -0.1571  0.0292
12060W        W27529   6.805   4.556   4.733 -0.2121 -0.0803 -0.0522
12061W        W27530   8.419  18.429   4.035 -0.1031 -0.4240  0.0776
12062W        W27531  18.470  16.587   5.128  0.1479 -0.1233 -0.0166
12063W        W27532   5.615  10.450  15.146 -0.2910  0.2275 -0.3653
12064W        W27533   1.350  13.802   0.768 -0.2314  0.2291  0.0867
12065W        W27534   9.450  13.491  14.060  0.0498 -0.2128  0.1063
12066W        W27535   0.461  16.819  11.686  0.1715  0.3622  0.0495
12067W        W27536  13.191   2.311  11.876 -0.2439  0.0142 -0.2173
12068W        W27537  12.285   5.720  15.902  0.1226 -0.0575 -0.0961
12069W        W27538   7.655  11.897   0.993  0.0864 -0.1116 -0.0575
12070W        W27539  12.418  12.512  11.699  0.0007  0.0094 -0.0001
12071W        W27540   9.009  15.263   2.754 -0.2164  0.2866 -0.3547
12072W        W27541   1.228   2.613  12.801  0.3042  0.1257  0.2820
12073W        W27542   7.048   4.025   1.417 -0.0377 -0.0285 -0.0007
12074W        W27543  15.056  10.123  11.152  0.1186 -0.0444  0.0777
12075W        W27544   1.966  16.663  13.250  0.0987 -0.1209  0.4182
12076W        W27545   7.268  12.870  10.251 -0.2496  0.0608 -0.2253
12077W        W27546   0.613   2.562   1.343  0.2611 -0.0856  0.0375
12078W        W27547  15.246   4.404   5.189 -0.2865 -0.2802  0.2037
12079W        W27548   4.268  12.789   2.042 -0.0278  0.1923  0.1682
12080W        W27549   1.280  14.676   0.023 -0.1807 -0.0629  0.0585
12081W        W27550   3.894   3.037   3.742  0.2476  0.0430  0.4051
12082W        W27551   4.709  12.421   1.242  0.1380  0.1034  0.0585
12083W        W27552  15.620  10.856  15.609 -0.1476  0.1144 -0.1477
12084W        W27553   8.633   1.109  13.044 -0.0659 -0.0131 -0.0280
12085W        W27554  15.594   5.201   3.639  0.0538  0.1540 -0.1820
12086W        W27555  14.064   5.019   5.334  0.0224  0.2338  0.0284
12087W        W27556   1.327  10.298   3.602 -0.1459 -0.2102 -0.0789
12088W        W27557  13.970  14.085   5.476 -0.2570  0.0496 -0.0514
12089W        W27558  14.780   9.384   1.147  0.1477 -0.0002 -0.0659
12090W        W27559   9.902  12.501   0.052 -0.0538 -0.0563  0.1022
12091W        W27560  17.951   6.136  13.793  0.1255  0.0756 -0.2794
12092W        W27561   6.136  15.005  15.008 -0.1930  0.1640  0.0439
12093W        W27562   6.851  17.183  12.483 -0.1536  0.1233  0.0204
12094W        W27563  12.735  10.422   1.389 -0.0252 -0.0625  0.2769
12095W        W27564  11.021   7.489   1.099 -0.0652 -0.1006  0.0460
12096W        W27565   0.617   5.418  10.311 -0.0022  0.0200 -0.3771
12097W        W27566   8.876  13.748   5.038 -0.2795  0.1058  0.1401
12098W        W27567   2.135   9.727   4.497  0.2973  0.0647  0.3968
12099W        W27568   9.294   8.618  13.927  0.1258 -0.0141  0.2081
12100W        W27569   0.358  18.406   3.951  0.2170 -0.3179  0.0512
12101W        W27570   3.256  12.210  13.726 -0.0809 -0.3031 -0.1396
12102W        W27571  17.426  15.252  13.235  0.0472 -0.2344  0.0195
12103W        W27572   7.890  15.370  10.925  0.1779  0.2648  0.1117
12104W        W27573  17.769   3.668   2.340 -0.2182  0.2046  0.0012
12105W        W27574   9.790   2.122  15.020 -0.0231 -0.2984  0.0301
12106W        W27575  17.172  16.066  10.720 -0.2407  0.0039 -0.3489
12107W        W27576   2.345  11.246   3.919  0.0118 -0.1908  0.1663
12108W        W27577   3.908  14.781   3.756 -0.1666 -0.0113  0.0343
12109W        W27578   6.582  12.337  12.457  0.2104  0.0396 -0.2211
12110W        W27579   0.258   4.169  15.046 -0.0093 -0.1864  0.0154
12111W        W27580  13.069   0.774  12.486  0.2043 -0.1362 -0.2008
12112W        W27581  12.708  14.193  12.871 -0.0377  0.1113 -0.1928
12113W        W27582  12.356  15.347  15.442  0.0716 -0.1872 -0.0382
12114W        W27583   6.601  17.246   3.976 -0.3443 -0.2061  0.2820
12115W        W27584  12.554  10.120   3.695  0.2006 -0.1832 -0.2140
12116W        W27585   3.015   1.077   4.675  0.1486 -0.2838 -0.0754
12117W        W27586  17.329  10.182  14.256  0.2548  0.0627 -0.0035
12118W        W27587   1.644   3.828  15.159 -0.1159 -0.3900 -0.1887
12119W        W27588  16.149   6.452   4.294  0.0099 -0.2056 -0.3329
12120W        W27589   6.578   7.532  10.906 -0.1993  0.1974  0.1106
12121W        W27590   4.524   6.437   4.744 -0.0652  0.1267  0.4055
12122W        W27591  10.361  12.614  12.709  0.1456 -0.0432  0.3274
12123W        W27592  12.960   4.950   4.009 -0.1073 -0.0294  0.0069
12124W        W27593   5.566  16.015   3.940 -0.1607 -0.1620  0.1362
12125W        W27594  11.491  15.166  12.445 -0.2012  0.3072  0.2445
12126W        W27595  11.671   6.712   3.066  0.2310  0.0041  0.0685
12127W        W27596  18.132   2.480   3.979  0.1568  0.1057 -0.0996
12128W        W27597   2.997   9.807   1.477  0.1216  0.0639 -0.0822
12129W        W27598  17.421  14.228  12.727 -0.1067  0.1511 -0.3472
12130W        W27599  14.676  16.614   4.970  0.3471  0.3181 -0.0732
12131W        W27600   7.513  16.356   3.136 -0.2059 -0.0540  0.0692
12132W        W27601   8.577   8.694  13.760  0.0428  0.3819  0.1677
12133W        W27602   5.754   4.866   0.930 -0.1221 -0.0090 -0.2195
12134W        W27603  14.736  16.321   2.009 -0.1586  0.5630 -0.1410
12135W        W27604   2.142  13.311  12.924  0.0665  0.4157 -0.0623
12136W        W27605   7.668  10.997   1.430 -0.1140  0.0006  0.0627
12137W        W27606  17.057  18.154  13.250  0.0525  0.1184  0.1978
12138W        W27607  14.339  10.301   2.776  0.2822 -0.0823 -0.1878
12139W        W27608   5.394   4.572   3.892 -0.0268  0.1632  0.2659
12140W        W27609  10.691  12.381   3.610  0.1388 -0.4188 -0.2340
12141W        W27610   4.797   2.816   0.070  0.0922 -0.1968 -0.0667
12142W        W27611  17.186  14.018  14.532 -0.1324  0.0546 -0.1343
12143W        W27612   2.534   7.968  15.225 -0.0271  0.1467 -0.2893
12144W        W27613  13.947  16.256  13.072 -0.4395 -0.0386  0.0709
12145W        W27614  10.705   7.334   5.581 -0.1453 -0.2520 -0.6343
12146W        W27615   7.234   8.866  13.484 -0.4550 -0.0403  0.1293
12147W        W27616   5.574  13.585   2.870  0.2617  0.6405  0.0168
12148W        W27617   4.464   6.216  15.839 -0.1001  0.2862  0.1769
12149W        W27618  14.890  15.713  11.873  0.0907 -0.1626  0.1650
12150W        W27619   7.534   9.959   3.270 -0.0276 -0.1017 -0.2541
12151W        W27620   1.934   7.286   5.188  0.0767  0.1871  0.1368
12152W        W27621  10.263   2.633   1.486 -0.1290  0.1003 -0.0821
12153W        W27622   2.953  17.292  11.057  0.0815 -0.0028 -0.0236
12154W        W27623   0.532  11.786  12.415  0.0091  0.0667 -0.1723
12155W        W27624  14.298  14.920  14.096  0.1974 -0.0400  0.1482
12156W        W27625  11.428   4.367  14.014 -0.1604 -0.2804 -0.2352
12157W        W27626   5.619   5.074   2.722 -0.1904  0.0263  0.0289
12158W        W27627  14.310   8.234  13.396 -0.2155 -0.1368  0.0631
12159W        W27628   2.776   3.901   2.010  0.0513 -0.1019 -0.0051
12160W        W27629  10.851  15.631  12.055 -0.1758  0.2619 -0.0395
12161W        W27630  11.370   6.150  12.444 -0.0782  0.3041 -0.3235
12162W        W27631  17.478  17.252   0.652  0.0989  0.0931 -0.1753
12163W        W27632  15.264  15.674   4.856 -0.0225 -0.0801  0.1043
12164W        W27633  16.412  17.300  10.587 -0.1297 -0.0616  0.0428
12165W        W27634  10.206   7.002  13.993  0.0641  0.1870  0.2031
12166W        W27635   1.395   0.106  12.848 -0.0531  0.2211 -0.2010
12167W        W27636  11.988  18.271   3.149  0.1572 -0.0947  0.0318
12168W        W27637   5.416  13.840   5.899  0.0400  0.2106  0.3439
12169W        W27638  15.718   4.117  13.543  0.2567 -0.1494  0.2472
12170W        W27639  16.685   7.777   3.180 -0.1009 -0.1770 -0.1692
12171W        W27640   2.050  10.784  12.420  0.0979  0.3275 -0.0719
12172W        W27641  13.503  13.545  15.264 -0.1543  0.1224  0.1960
12173W        W27642   8.766  14.495   4.426 -0.3720 -0.2162  0.2027
12174W        W27643  13.927  11.878   4.161 -0.1902 -0.1333  0.2801
12175W        W27644   8.236  17.358   4.223 -0.0234  0.1686  0.0392
12176W        W27645   7.024  18.130   2.334 -0.0996 -0.1304 -0.1939
12177W        W27646   5.191  15.581  15.725  0.2566 -0.3961  0.2084
12178W        W27647   7.707  12.026  12.049 -0.1412 -0.2036  0.2109
12179W        W27648  11.663   1.961  12.753 -0.2187  0.1031  0.2000
12180W        W27649   4.239   0.252   4.117 -0.1399  0.0899 -0.1316
12181W        W27650  17.861   8.158   1.318 -0.1353 -0.1370 -0.0932
12182W        W27651   7.519   0.601   0.258  0.0975  0.0029  0.1349
12183W        W27652  11.082   9.107  11.330  0.0954 -0.0144  0.1952
12184W        W27653   8.520  15.223  11.921  0.1108 -0.2113 -0.3146
12185W        W27654  15.154  13.145  10.657 -0.0224 -0.0333  0.1090
12186W        W27655  16.370   9.506  12.929  0.0451 -0.0022  0.1212
12187W        W27656   8.220   4.461  15.295 -0.0029 -0.0189 -0.1929
12188W        W27657  13.326   7.051   1.313 -0.2016 -0.2988 -0.0150
12189W        W27658  15.907   8.834  15.466  0.3473 -0.0655 -0.1017
12190W        W27659  10.510   4.399  11.028 -0.3864  0.4033 -0.1124
12191W        W27660  15.812   9.848   5.694  0.1021 -0.2625  0.0181
12192W        W27661  16.568  16.117  13.735  0.1994 -0.2094  0.1855
12193W        W27662   2.812   8.453  12.834 -0.2738 -0.0536 -0.1824
12194W        W27663   7.151  17.236   3.434 -0.0104 -0.2111  0.1084
12195W        W27664  16.468   6.031  13.881  0.3338  0.1613  0.1690
12196W        W27665   2.942   8.745   0.518  0.1803  0.1216  0.1389
12197W        W27666  18.376   7.175   5.659 -0.0334 -0.1624 -0.3683
12198W        W27667   9.625  10.030  12.024  0.1537  0.0529 -0.1957
12199W        W27668  11.787  14.124  15.112  0.0154  0.2390  0.3069
12200W        W27669   6.411  18.233  12.271 -0.0134  0.0512  0.0681
12201W        W27670  14.764   4.785  14.196  0.0954 -0.1236 -0.0615
12202W        W27671  11.642  12.835   5.511 -0.0407  0.0837  0.2821
12203W        W27672   3.071  15.594   4.025 -0.0977  0.1846 -0.1798
12204W        W27673   1.170  11.992   1.255  0.0231  0.0063 -0.2039
12205W        W27674   4.817  11.789  15.914  0.0142  0.0284 -0.0230
12206W        W27675  18.212   8.873  14.552 -0.0603  0.3039 -0.0200
12207W        W27676   9.810   1.511   3.610  0.0940  0.0213 -0.0355
12208W        W27677   0.108  16.190  15.066 -0.1919 -0.0978 -0.0183
12209W        W27678  13.264   9.458  14.561 -0.0127 -0.2982 -0.2335
12210W        W27679   4.079   7.272   6.047  0.3352 -0.3413 -0.0310
12211W        W27680  12.141  17.984  12.631 -0.0899 -0.1582  0.0465
12212W        W27681  18.451  17.383   0.423  0.3489  0.0957  0.3082
12213W        W27682   9.491  16.787  11.781 -0.3746  0.2713 -0.1813
12214W        W27683  17.567   9.836  13.962  0.2482  0.0058  0.0562
12215W        W27684   6.937  10.914  10.688  0.2300 -0.0902 -0.0355
12216W        W27685   8.251   4.187   2.084  0.1570 -0.1101 -0.2894
12217W        W27686   4.892   3.363  11.865 -0.3942 -0.0830 -0.0063
12218W        W27687   9.466   2.959   4.082 -0.2104  0.2592  0.2542
12219W        W27688  17.984   4.344  13.516 -0.2266  0.0431 -0.0007
12220W        W27689   8.554   2.495   1.414  0.0278 -0.0227  0.1332
12221W        W27690   7.185  14.591  14.080 -0.2711 -0.2576 -0.0032
12222W        W27691  11.536  16.235  10.732 -0.3966 -0.0355  0.1980
12223W        W27692   1.787  11.833   2.003  0.1401  0.1479  0.0999
12224W        W27693  18.188   8.455   2.204  0.2218  0.0977 -0.1119
12225W        W27694   0.023   3.909   4.183  0.0571 -0.1939  0.2899
12226W        W27695   4.422   1.568   2.419  0.1745  0.1151  0.2030
12227W        W27696   8.294   8.652   3.392 -0.2895 -0.1326 -0.1819
12228W        W27697  14.772  18.246   3.671 -0.1441 -0.1712  0.1697
12229W        W27698  14.527   3.352   1.116 -0.3856 -0.0384  0.5582
12230W        W27699  18.090   4.181   4.130 -0.0080 -0.1608 -0.0281
12231W        W27700  12.218   1.673   1.454 -0.1801 -0.0743 -0.0730
12232W        W27701   2.789   8.302   0.615  0.1981  0.3106  0.4008
12233W        W27702   2.847  13.009  13.989 -0.0699 -0.2697 -0.0423
12234W        W27703   2.385   5.034   6.397 -0.2548 -0.1351  0.4403
12235W        W27704   9.926   9.815  13.963 -0.1165 -0.2372  0.0196
12236W        W27705   6.006  11.524  14.733 -0.4215  0.0081  0.2806
12237W        W27706   5.067  16.790  14.173  0.2080  0.0893 -0.3659
12238W        W27707  10.856   1.439  12.865 -0.1013 -0.1719 -0.0417
12239W        W27708   9.904   3.618   5.010 -0.3203  0.1795  0.2549
12240W        W27709   5.434   2.087  11.860  0.1708  0.2146  0.2528
12241W        W27710   0.552  10.880   4.738 -0.1711 -0.1040 -0.0174
12242W        W27711   7.917  10.303  12.342 -0.0915  0.0961 -0.0889
12243W        W27712  12.473   0.671   0.142 -0.0521 -0.1999 -0.2483
12244W        W27713  13.957   6.071   2.946  0.1316 -0.1421  0.2860
12245W        W27714   9.786  13.745   1.866  0.1306  0.3701 -0.0388
12246W        W27715  14.047   3.593  13.377 -0.2658  0.2602 -0.0978
12247W        W27716  10.964  12.540  11.412  0.0034  0.3193 -0.0147
12248W        W27717  12.613   8.904  12.126  0.2142  0.0631  0.0884
12249W        W27718  12.456  12.206   2.554 -0.1589  0.1025 -0.4134
12250W        W27719  15.051  12.157   4.317 -0.0374  0.0832 -0.2611
12251W        W27720  15.759  16.655  15.648 -0.1717  0.0077 -0.0567
12252W        W27721   5.964   8.982  13.090  0.4664 -0.1379  0.1522
12253W        W27722   8.451  11.591  12.410  0.3473 -0.0082 -0.0455
12254W        W27723  11.358  13.289   0.457 -0.2087  0.0045  0.0391
12255W        W27724   6.955   5.039  14.781 -0.1913  0.2251  0.0551
12256W        W27725  13.958   9.540   0.236 -0.1185  0.2563  0.5751
12257W        W27726   4.252   3.751  13.335  0.1058  0.3016  0.0028
12258W        W27727  15.760  15.675   1.006  0.2458  0.1092  0.1340
12259W        W27728  14.293  16.541  10.734 -0.1068  0.4165 -0.3743
12260W        W27729  16.633  11.107   5.205  0.0687 -0.2159  0.2205
12261W        W27730   9.887   0.519  14.217 -0.2439  0.1219  0.0417
12262W        W27731   1.164   2.135  11.001  0.0631  0.2355  0.1374
12263W        W27732  11.538   8.645  15.679 -0.2420 -0.1773  0.2004
12264W        W27733  13.415  14.515  15.041  0.1371 -0.3463 -0.0926
12265W        W27734  16.132   5.378  13.370 -0.1232 -0.0466 -0.0501
12266W        W27735   0.629   8.673   0.311 -0.1024  0.0665 -0.0145
12267W        W27736   0.512  14.737  10.907  0.0581 -0.1046 -0.1494
12268W        W27737  16.608   2.220   0.565  0.0658  0.5292 -0.0047
12269W        W27738  12.768   2.151   2.152 -0.0993 -0.3762  0.2473
12270W        W27739  15.090   8.640   3.498 -0.2367  0.0067 -0.0249
12271W        W27740  14.807  15.605   4.698 -0.1892  0.0140 -0.2120
12272W        W27741  10.522  12.214  12.961  0.0709  0.0722 -0.1433
12273W        W27742   7.208   3.004  13.584 -0.0672  0.0900  0.1694
12274W        W27743   2.847  11.128   3.086 -0.1524  0.1406 -0.5272
12275W        W27744   1.829   6.225   2.323 -0.0214  0.1711  0.2456
12276W        W27745   4.546  16.321  10.678  0.1734 -0.2461  0.2352
12277W        W27746  17.402   0.875  13.694  0.0802  0.1887  0.0671
12278W        W27747   9.798   7.227   0.522 -0.0503 -0.1240  0.2413
12279W        W27748   0.625   5.327  13.003  0.0763  0.1293  0.1039
12280W        W27749   2.662   5.460   3.891  0.1876  0.0192  0.0848
12281W        W27750  15.694   0.016  11.844 -0.2052 -0.2065  0.0084
12282W        W27751  11.823  11.933  13.522  0.2930 -0.3372 -0.0382
12283W        W27752  13.471  12.257  10.796 -0.2539  0.1151  0.0171
12284W        W27753   0.894   1.216  15.554  0.1106  0.0164  0.2159
12285W        W27754  11.756   7.058  11.546 -0.1637 -0.3892  0.1009
12286W        W27755   6.971  12.005   3.637 -0.1757 -0.0601  0.0808
12287W        W27756  14.304   5.922   3.256 -0.2574  0.1520 -0.3039
12288W        W27757   1.116  11.032  10.569 -0.2384 -0.0047  0.1487
12289W        W27758  10.541   1.673  13.924 -0.0877 -0.4794 -0.0175
12290W        W27759  15.249  11.911   2.023 -0.3635  0.0284  0.1218
12291W        W27760  16.587   0.315  11.767 -0.0872  0.0956 -0.5656
12292W        W27761  12.245  10.405  11.932  0.2182  0.2424 -0.2905
12293W        W27762  11.020   3.001   5.347 -0.0129  0.1556 -0.1400
12294W        W27763   4.699   8.138   1.376  0.1603 -0.0218  0.1130
12295W        W27764   3.804  16.044  15.773  0.1436 -0.0073  0.1037
12296W        W27765  12.576   1.533  14.238  0.1337 -0.1302 -0.2084
12297W        W27766   8.559   3.194  12.098 -0.0170  0.2537  0.1295
12298W        W27767  17.592   8.312   0.889 -0.0518  0.0003 -0.1846
12299W        W27768  11.302   6.834  14.445  0.0148  0.1132 -0.0746
12300W        W27769  16.934  10.670   3.416  0.0115  0.2151 -0.1204
12301W        W27770   2.538   5.252  14.671 -0.2069 -0.1383 -0.2792
12302W        W27771  10.845  17.775  11.533 -0.1343  0.4345  0.3890
12303W        W27772   2.243  10.694  14.787 -0.2671 -0.1350 -0.0880
12304W        W27773   3.260  11.771  11.568  0.1566  0.0719 -0.1515
12305W        W27774  17.744  11.852  12.715 -0.1029  0.0937  0.1638
12306W        W27775  13.367   3.772  15.492  0.0255  0.0935 -0.1623
12307W        W27776  13.112  16.054  11.610  0.0770  0.0143 -0.2355
12308W        W27777   2.523   1.823   1.192 -0.1973 -0.2213 -0.1438
12309W        W27778  16.411  12.521  11.967  0.2484 -0.1411 -0.1421
12310W        W27779  18.265   4.552  13.907  0.0697 -0.1013 -0.0664
12311W        W27780  17.762   6.311   4.458  0.1250  0.1121 -0.0327
12312W        W27781   0.601  17.312  11.282  0.2463  0.2689  0.1152
12313W        W27782   5.184  13.710  13.302  0.3776 -0.1271  0.0373
12314W        W27783  14.112  17.674  15.455 -0.0925 -0.2266  0.0343
12315W        W27784  14.331   1.238  14.308 -0.3192  0.1144 -0.2698
12316W        W27785   2.530   2.352   5.504 -0.3698  0.2317  0.0378
12317W        W27786  17.836  15.077  14.997  0.1973  0.1824 -0.1873
12318W        W27787  14.940   1.508  13.953  0.0153  0.0021 -0.3316
12319W        W27788   9.406  14.211   0.457  0.4773 -0.1307  0.0081
12320W        W27789  14.998   8.084   4.570 -0.1323 -0.0930 -0.1040
12321W        W27790   5.740  11.210  13.819  0.1113  0.1701 -0.0985
12322W        W27791  11.585  17.503   4.659  0.2980 -0.1565 -0.0682
12323W        W27792   1.776   1.752  11.701 -0.0922  0.2991  0.0026
12324W        W27793  17.244  11.455   3.104 -0.2606  0.0600 -0.0680
12325W        W27794  17.427   5.397  14.808 -0.0369  0.0681 -0.2781
12326W        W27795  10.776  17.813   0.893 -0.0526  0.1480  0.5327
12327W        W27796  17.711   1.338  14.382  0.1842  0.0953  0.1332
12328W        W27797   8.777  16.865   5.921  0.2143 -0.1595  0.0148
12329W        W27798   1.002   3.114  11.335  0.0909 -0.0867 -0.4700
12330W        W27799   2.191   9.341  13.946 -0.0863  0.1335 -0.1451
12331W        W27800   9.334  11.965   2.905 -0.3147 -0.3465  0.1231
12332W        W27801   9.364  15.059   3.080 -0.1990 -0.2235 -0.0202
12333W        W27802   4.377  14.878   3.637 -0.3299 -0.2637  0.0049
12334W        W27803   1.677  11.184   2.585 -0.0241  0.1698  0.2895
12335W        W27804  14.391  16.101   4.556  0.1459  0.3232  0.3698
12336W        W27805   4.322  15.428  10.276 -0.1794  0.0339  0.1013
12337W        W27806   6.181  11.065  14.603  0.2052  0.0436  0.4665
12338W        W27807  14.542   5.516   4.516 -0.1292 -0.0002  0.0016
12339W        W27808  10.484   0.449   2.613 -0.2828  0.0172  0.2649
12340W        W27809  17.099  10.551  12.073 -0.2461 -0.4201 -0.0070
12341W        W27810  17.585   4.432   4.039  0.2819 -0.3608 -0.3768
12342W        W27811   6.329  17.226  12.171 -0.4205 -0.0975 -0.1488
12343W        W27812   1.902   4.264   1.719  0.1399  0.1334  0.0402
12344W        W27813  14.915  16.080   4.440 -0.0196 -0.2048  0.1085
12345W        W27814   4.925   5.504   1.363  0.2488 -0.3593  0.2010
12346W        W27815   0.517   9.155   3.305 -0.0555 -0.0853 -0.0776
12347W        W27816  13.217  14.858  10.955  0.2569  0.0320  0.0435
12348W        W27817  15.665   3.789  15.310 -0.0271 -0.2017 -0.0965
12349W        W27818  10.908  11.304  11.077 -0.0067 -0.0740  0.0636
12350W        W27819  13.699   8.254   5.048  0.0812 -0.1781 -0.0064
12351W        W27820  13.017  16.431   4.964 -0.0242 -0.4158  0.1237
12352W        W27821   8.276   7.563  15.762  0.0594  0.0186 -0.0855
12353W        W27822  11.888  13.191   5.290  0.0186 -0.1765  0.0988
12354W        W27823   5.532   7.597   5.309  0.2647  0.2461  0.2084
12355W        W27824  14.120   5.463   4.050 -0.4662 -0.0897  0.1309
12356W        W27825   3.592   6.271   3.838  0.1246  0.0750 -0.2122
12357W        W27826   1.385   8.747  13.326  0.0046  0.1221  0.1630
12358W        W27827   3.715  13.182  11.163  0.0543 -0.0331  0.2765
12359W        W27828   0.875   3.686   5.588 -0.0867 -0.1001 -0.0060
12360W        W27829  16.967   8.111   2.858  0.0438  0.0221 -0.2540
12361W        W27830  15.741   2.091  11.908  0.0202 -0.1053 -0.0622
12362W        W27831   2.823  10.535  12.096 -0.0436  0.2382 -0.1369
12363W        W27832   3.086  11.768   4.975  0.0842 -0.1058 -0.1343
12364W        W27833  11.968   1.169  15.477 -0.1915  0.0698  0.0195
12365W        W27834  16.070  10.060  10.099 -0.0271 -0.3367  0.0221
12366W        W27835  17.256  10.391   0.634 -0.2171 -0.1708 -0.0534
12367W        W27836  16.879  15.758  14.017  0.0089  0.0662  0.0961
12368W        W27837   1.692   0.006   5.210 -0.0925  0.1777 -0.0963
12369W        W27838  18.158  15.705  11.500  0.1261 -0.2000 -0.0004
12370W        W27839  13.400  13.548  13.256  0.0569  0.1628  0.0169
12371W        W27840  18.300   0.941  12.365  0.0513  0.1320  0.1858
12372W        W27841  17.707   6.389  13.049 -0.0784  0.0231  0.2558
12373W        W27842   5.668   9.478  13.032 -0.0298  0.2059 -0.0752
12374W        W27843   0.968   8.414   1.684  0.0845  0.2673 -0.1953
12375W        W27844  15.386   9.617   1.919 -0.0997  0.1314  0.3397
12376W        W27845  13.489  16.592   0.551 -0.1113  0.3857  0.0479
12377W        W27846  16.972  16.101  13.462 -0.2343  0.1526 -0.4005
12378W        W27847  12.065  18.207   4.554  0.1214 -0.1759  0.2431
12379W        W27848   8.107  17.439  14.370 -0.3009  0.1577 -0.0573
12380W        W27849  11.381  15.106   1.125  0.0563  0.3749 -0.1559
12381W        W27850  13.677   9.706  14.493  0.1189 -0.3106  0.0759
12382W        W27851   1.799  10.880   5.097  0.1833  0.1673 -0.2366
12383W        W27852   8.905  11.045  11.154 -0.3211  0.0757 -0.0399
12384W        W27853   3.972   7.617  13.268  0.3304  0.2831  0.2295
12385W        W27854   2.478   3.182   4.554  0.1182 -0.0905 -0.0528
12386W        W27855  10.076   1.070  15.746  0.2454  0.2336  0.1536
12387W        W27856  13.951  11.045   4.278 -0.0731 -0.0733 -0.1156
12388W        W27857   8.236  15.593  14.891  0.2292 -0.0689  0.0300
12389W        W27858  17.770   1.239   0.030  0.1596 -0.2633  0.0460
12390W        W27859   9.153  15.727  10.469 -0.1424  0.2256 -0.1769
12391W        W27860   1.869   5.355  12.114  0.1476  0.1655  0.0625
12392W        W27861   9.638   6.022   0.468 -0.2800 -0.0423  0.2588
12393W        W27862  14.299   2.514  11.084  0.1470 -0.0209 -0.1429
12394W        W27863   6.311   0.707  12.348  0.1327  0.0738 -0.0716
12395W        W27864  11.791   9.519  14.170  0.1275  0.1396 -0.4006
12396W        W27865   8.231   3.286   4.774 -0.3080  0.1440 -0.2203
12397W        W27866   2.629  11.670   2.696 -0.0218  0.2134  0.2515
12398W        W27867  14.482   7.270   3.341  0.0709  0.0433 -0.0444
12399W        W27868  13.434   5.832  11.757 -0.5222  0.1692 -0.1586
12400W        W27869   7.259  15.483   4.941  0.0705  0.3900  0.2384
12401W        W27870  10.677   8.235  14.669  0.0397  0.0575 -0.2295
12402W        W27871   8.592   4.811  12.224 -0.1446  0.0973 -0.0726
12403W        W27872  17.346   9.408   9.834  0.0077  0.2380 -0.0175
12404W        W27873   8.027   4.944  13.721 -0.4406 -0.3002 -0.0379
12405W        W27874  18.366  12.551   1.006 -0.0424  0.0615 -0.0093
12406W        W27875  18.255   8.955   1.417 -0.1688 -0.4449  0.0357
12407W        W27876  11.431   4.434  10.872 -0.1885  0.0741  0.1583
12408W        W27877  13.455   2.762  12.730 -0.1290  0.2858 -0.2012
12409W        W27878   5.807   3.994  14.328  0.2457 -0.0594  0.1296
12410W        W27879   1.356   5.274  12.328  0.3785  0.1638 -0.0837
12411W        W27880  14.442  11.399  12.238  0.1069  0.1504 -0.1977
12412W        W27881  12.137  15.669  13.691  0.1472  0.0404 -0.0495
12413W        W27882  11.796   1.348   4.162  0.0717 -0.1914  0.0464
12414W        W27883   3.734  14.253   0.597 -0.0174 -0.0836  0.0281
12415W        W27884   2.106   2.909   3.122  0.0848  0.3833  0.0876
12416W        W27885   1.823   8.152   2.294  0.0170 -0.0035  0.2857
12417W        W27886  17.500   0.188  15.219  0.0449 -0.0784  0.2305
12418W        W27887   6.189  13.970   5.081  0.1380 -0.2146 -0.0956
12419W        W27888  12.121   5.888  11.262  0.2502  0.1338 -0.2233
12420W        W27889  15.428  14.104   3.072 -0.2785  0.3534  0.0683
12421W        W27890   1.004   2.177   3.454 -0.0433 -0.4380 -0.0513
12422W        W27891  15.314   9.697   3.294 -0.1463  0.0138 -0.1718
12423W        W27892  12.838  16.063  13.401 -0.1208 -0.0048  0.0711
12424W        W27893   1.660   3.466  14.284  0.0414 -0.2490 -0.0679
12425W        W27894  14.467   7.377  14.291  0.2210  0.3425 -0.0578
12426W        W27895   2.101   2.637   1.951 -0.0319  0.1580 -0.0633
12427W        W27896   3.924  11.303  11.001  0.1732  0.0144 -0.0140
12428W        W27897  14.253  15.431  14.664 -0.0603 -0.1328  0.2075
12429W        W27898   4.176   9.926  15.801 -0.0365  0.1541  0.0313
12430W        W27899   7.541  14.178   0.554 -0.1648  0.0215  0.1495
12431W        W27900   3.357  14.025   4.794  0.3876  0.1885  0.0237
12432W        W27901  16.358   4.648   1.593  0.2360 -0.0712 -0.2849
12433W        W27902  16.475   5.070  15.687 -0.2611 -0.0167 -0.2882
12434W        W27903  12.817  11.462  10.214  0.2063  0.1077  0.0596
12435W        W27904  11.145  11.721  11.269  0.1227 -0.0677  0.3446
12436W        W27905  18.243   4.580   2.414  0.2115 -0.1140 -0.4132
12437W        W27906   0.206  14.201   1.437 -0.1996 -0.2808 -0.0100
12438W        W27907  12.910  16.505   1.933 -0.0218  0.0593  0.0756
12439W        W27908  12.115   1.471   5.314 -0.1552  0.0252 -0.1098
12440W        W27909   7.339   7.248   5.461  0.1720 -0.3111 -0.0497
12441W        W27910  16.477   8.724   4.536  0.0899  0.1556 -0.0950
12442W        W27911   1.511   8.432  15.198 -0.3273 -0.0842 -0.1624
12443W        W27912   6.844  16.658   2.304 -0.2206 -0.0477 -0.2417
12444W        W27913  14.537   5.151  12.896 -0.0789  0.0661 -0.0410
12445W        W27914   2.531   0.320   1.480  0.0494  0.3521 -0.2250
12446W        W27915   6.493   4.536   0.024  0.3404 -0.2936 -0.1364
12447W        W27916   1.014   2.563  14.756 -0.3040 -0.1385  0.1561
12448W        W27917   3.498  10.174  14.514 -0.1340  0.1145  0.2684
12449W        W27918  13.404   0.925  14.427 -0.0427  0.0517  0.0566
12450W        W27919  12.977  14.977   0.662 -0.2223 -0.1218  0.2788
12451W        W27920  15.234   3.138  12.986  0.2660  0.0510  0.0014
12452W        W27921   1.734   1.035  14.314  0.1596  0.0723  0.0496
12453W        W27922  14.927  16.895  13.275  0.1841  0.1041  0.1075
12454W        W27923  11.509   2.607   3.741 -0.1556 -0.0375  0.3342
12455W        W27924   5.525  16.983  14.039  0.3004  0.0755  0.0329
12456W        W27925  18.478  12.502   2.339  0.4332 -0.0195 -0.2422
12457W        W27926   8.820   2.964   0.124  0.1857  0.1111  0.1122
12458W        W27927   0.561   8.066  10.561  0.2790  0.2351 -0.0004
12459W        W27928   2.152  11.125  10.505 -0.0245  0.1176  0.2095
12460W        W27929   8.026   8.328  12.790  0.1488 -0.0899  0.0074
12461W        W27930   5.947   2.147  11.703  0.2897  0.0512  0.2271
12462W        W27931  11.315  10.810  14.366  0.2525  0.0603  0.0847
12463W        W27932   5.018  13.354  10.165 -0.4787 -0.3492 -0.3805
12464W        W27933  15.445  15.175  12.152 -0.0069 -0.0326 -0.1761
12465W        W27934  17.012  16.389   3.692  0.0776 -0.0094  0.1206
12466W        W27935  18.363   6.632  14.809 -0.0356 -0.0012 -0.1077
12467W        W27936   7.246  12.812   4.612 -0.0651 -0.3531  0.0542
12468W        W27937   4.138  14.215  13.221  0.2512  0.0549 -0.2555
12469W        W27938   4.840  14.254   9.964  0.0712  0.2143 -0.1724
12470W        W27939   1.754   7.991  14.603 -0.0289 -0.0156 -0.0260
12471W        W27940  15.813   3.688  13.811  0.1290  0.0503 -0.2065
12472W        W27941   8.043   5.066   1.129 -0.1712  0.0699 -0.1652
12473W        W27942   2.657   4.574   4.312 -0.0943  0.2990  0.3875
12474W        W27943  11.224   7.444   0.630  0.1530 -0.0046  0.0617
12475W        W27944  11.822  11.518   5.474  0.0100  0.2862 -0.1168
12476W        W27945   0.842  14.307   3.955 -0.1467 -0.0578  0.1524
12477W        W27946  12.029  17.449  11.693 -0.1025 -0.1574  0.0641
12478W        W27947   5.907   1.183   0.991 -0.3217  0.2554 -0.2035
12479W        W27948   7.871  16.473  13.473 -0.1368  0.0596  0.0232
12480W        W27949   8.901  14.792   2.998 -0.1958 -0.0918  0.0323
12481W        W27950  15.420   3.580  12.440  0.0627  0.1005 -0.1301
12482W        W27951   0.797  15.278   0.575  0.0978 -0.4995 -0.1033
12483W        W27952   7.124   2.203  14.475 -0.0453 -0.0193  0.0670
12484W        W27953   7.981   3.894   1.431  0.1634  0.1133 -0.3854
12485W        W27954   5.170   6.783  11.000 -0.1122  0.0685 -0.0299
12486W        W27955   7.424   8.627   0.385  0.0090  0.3193  0.0011
12487W        W27956   2.515  12.838   4.948  0.2566  0.2287  0.2692
12488W        W27957   4.035  17.550   0.939  0.1604  0.2893 -0.2117
12489W        W27958  14.965  16.514  11.414  0.0635 -0.4175  0.0748
12490W        W27959  18.139  16.284   1.665 -0.0568  0.1384  0.0005
12491W        W27960  10.511  12.017  14.871  0.0627  0.0837 -0.0255
12492W        W27961  15.025  14.080   3.496 -0.1495 -0.0797  0.1143
12493W        W27962  15.768   9.626  15.191  0.2600 -0.3419 -0.0304
12494W        W27963   9.176   8.740  11.763 -0.1963  0.2891  0.1232
12495W        W27964  17.358   2.677   0.971  0.1162  0.0021  0.1730
12496W        W27965   7.991   9.704   4.255  0.0181  0.0337 -0.2170
12497W        W27966   8.514  11.111   5.022 -0.1099 -0.0633  0.0412
12498W        W27967  14.947  13.885  12.103 -0.0306 -0.0587 -0.0982
12499W        W27968  14.935   9.542   0.694  0.1251  0.0618 -0.2808
12500W        W27969   7.689  13.945  13.849 -0.3730  0.1498 -0.2161
12501W        W27970   0.569   0.839  15.700  0.0966 -0.2200  0.0368
12502W        W27971   2.817   2.361   2.526 -0.1366  0.0326 -0.0025
12503W        W27972  14.616   0.475   4.185 -0.1560 -0.1461 -0.0914
12504W        W27973  14.665  15.666  12.462  0.1457 -0.1483  0.0044
12505W        W27974   2.947   1.436  13.550 -0.3219  0.2681  0.0341
12506W        W27975  17.174   7.568  11.582  0.1873 -0.0599  0.0324
12507W        W27976  16.814  14.112  10.849 -0.2920  0.0841  0.2372
12508W        W27977   6.202  15.840   5.011  0.1191 -0.1410  0.2387
12509W        W27978  10.581  15.399   3.477  0.1338  0.1716  0.1669
12510W        W27979  17.393   7.837   2.678  0.0057 -0.1336  0.4177
12511W        W27980  12.648   1.425  14.810 -0.2895 -0.2243  0.0569
12512W        W27981   8.180  11.494  15.506  0.2908 -0.0186 -0.1700
12513W        W27982  12.174   9.810   3.950 -0.0910 -0.1070  0.1552
12514W        W27983  14.761  13.622   5.783  0.4467 -0.2350 -0.1541
12515W        W27984  11.629   4.631   0.603 -0.1611  0.1444 -0.2848
12516W        W27985   5.296  10.875  12.301  0.0771  0.3748 -0.1431
12517W        W27986   9.875   3.541   5.490  0.2069  0.1572 -0.0127
12518W        W27987  10.782   7.821  11.982 -0.1686 -0.1195 -0.0829
12519W        W27988  10.124   8.060  14.619  0.1422  0.0251  0.2917
12520W        W27989  12.494  18.321   0.599  0.0655 -0.2415  0.2062
12521W        W27990   6.990   4.879   5.182  0.1399  0.1146  0.1312
12522W        W27991   2.507  16.559  13.236 -0.0732 -0.0981  0.1732
12523W        W27992  12.061  17.148   4.068  0.0789  0.3186  0.2826
12524W        W27993  14.378   0.534  15.784  0.3157  0.3060  0.0220
12525W        W27994   0.808  10.669  13.595  0.0239  0.4215 -0.2144
12526W        W27995   5.984  17.593   2.578 -0.0189 -0.0711  0.2134
12527W        W27996   8.540   3.597   0.262 -0.0585 -0.1227 -0.0457
12528W        W27997   4.247  14.146   2.111 -0.1600 -0.0471  0.0708
12529W        W27998  13.472   6.783   0.823  0.1660 -0.1139 -0.2140
12530W        W27999   4.548  13.297   1.980  0.1158 -0.1824 -0.2772
12531W        W28000   6.851   0.560   0.128 -0.0186 -0.0035 -0.3011
12532W        W28001  12.999   7.296  10.547 -0.0537 -0.0411 -0.0921
12533W        W28002   5.177   4.698   4.597 -0.1131 -0.2137  0.1763
12534W        W28003  16.276  16.513   1.510 -0.0189 -0.1275  0.1316
12535W        W28004  17.134  16.384   4.587 -0.0292  0.0194  0.1048
12536W        W28005   5.585   5.413  10.518 -0.0182  0.0100  0.0746
12537W        W28006   3.829   4.471   1.545 -0.0006  0.1081 -0.0762
12538W        W28007   9.469   3.125  11.689  0.0200 -0.1055 -0.1943
12539W        W28008  16.210  12.701   2.117 -0.0369 -0.0435 -0.0080
12540W        W28009  10.795  14.816  13.025  0.0987  0.1603  0.0583
12541W        W28010   0.420  10.824  15.630 -0.3936 -0.1684 -0.1152
12542W        W28011   8.865   5.603   3.910  0.1694  0.2095  0.1486
12543W        W28012  13.561  12.962  14.356  0.0443  0.3459  0.2479
12544W        W28013  15.836   8.405  11.126 -0.0350 -0.1303  0.0128
12545W        W28014  12.402   8.929  14.774 -0.0778  0.1240  0.2923
12546W        W28015  11.775   7.006  14.317  0.1078  0.0468  0.0786
12547W        W28016   3.487  10.787   3.197 -0.0460  0.0338  0.1763
12548W        W28017  15.788  16.282  14.667 -0.0112 -0.1209 -0.0858
12549W        W28018   1.677   8.660   4.328  0.0059 -0.2584  0.0742
12550W        W28019   9.009  17.875  13.406 -0.1195  0.1619 -0.0877
12551W        W28020  17.417   3.147   6.177  0.1303 -0.1882  0.0243
12552W        W28021   3.997  14.793   2.824 -0.1319  0.1004 -0.1204
12553W        W28022   2.995  18.335  14.528  0.0394 -0.0266 -0.0441
12554W        W28023  16.406   3.080  11.199  0.2494 -0.0507 -0.0114
12555W        W28024   9.808  15.282   4.058 -0.1347  0.0408  0.1383
12556W        W28025   2.473   0.490  11.586  0.1515  0.0876 -0.0676
12557W        W28026   4.341  17.971  13.114 -0.0090 -0.0282 -0.1453
12558W        W28027  12.565   1.050   1.036  0.0340  0.3922 -0.0134
12559W        W28028   1.183   7.917   2.184  0.0132  0.0452  0.3103
12560W        W28029  16.655  13.370  13.147 -0.0379 -0.1855  0.1205
12561W        W28030  16.440   9.140  14.518 -0.2105  0.2569  0.0653
12562W        W28031   7.137   5.260  14.111 -0.2042  0.0569  0.1133
12563W        W28032   1.556  10.321  11.580 -0.1449  0.1657  0.2479
12564W        W28033   4.234  16.169   0.088 -0.1831 -0.0904  0.0676
12565W        W28034  13.164  12.018   0.919 -0.2839 -0.0175 -0.2420
12566W        W28035   0.363  11.196  11.797  0.0245 -0.2687  0.2363
12567W        W28036   3.268  11.568  12.105 -0.1051  0.0972  0.0952
12568W        W28037  15.640   8.896  14.731  0.2919 -0.2145 -0.3233
12569W        W28038   7.352   6.632   4.767 -0.0732 -0.1292  0.0901
12570W        W28039   1.910   7.823  13.166 -0.0402 -0.1025  0.3824
12571W        W28040  16.988   1.655   5.695 -0.0371 -0.0167 -0.0202
12572W        W28041   5.344   4.744   2.923 -0.0885  0.0669  0.0409
12573W        W28042   4.483   9.447   1.102  0.1472  0.0736 -0.2052
12574W        W28043   8.616  18.100  14.569 -0.1578  0.2376 -0.1823
12575W        W28044   1.815   3.824  13.999  0.0236  0.1493 -0.0396
12576W        W28045   5.498  18.466   1.232  0.1096  0.0089  0.0467
12577W        W28046   0.812   9.712  13.308 -0.1491  0.0526  0.0565
12578W        W28047  17.104  17.641  12.882  0.2128  0.1269 -0.0489
12579W        W28048   7.591   7.838   4.091 -0.1381  0.2221  0.1612
12580W        W28049   0.919  16.801  10.811 -0.0160 -0.3704 -0.2956
12581W        W28050  10.916   6.528  15.127  0.0454 -0.1712 -0.1232
12582W        W28051   7.472   1.044  12.745  0.2300  0.1861  0.1927
12583W        W28052  17.073   0.525   0.596  0.3061  0.1896 -0.0046
12584W        W28053  12.614   3.183  12.515 -0.3824  0.0796 -0.0230
12585W        W28054  18.432   6.830   3.086 -0.1154 -0.3111  0.2327
12586W        W28055  16.236  13.790  12.405 -0.0740 -0.2554  0.2328
12587W        W28056  10.872   7.770  13.327  0.0787 -0.0806  0.0320
12588W        W28057   0.597  13.058  13.800 -0.1043  0.0676 -0.0148
12589W        W28058   8.793   3.335  13.727 -0.1767 -0.2808  0.1504
12590W        W28059   9.272  16.995   0.702  0.1444 -0.0430 -0.1217
12591W        W28060   9.048   2.369   1.654  0.3386 -0.2192 -0.1657
12592W        W28061   5.322   8.051   2.469 -0.2062 -0.0228 -0.0645
12593W        W28062   4.739  11.870  12.953  0.0541 -0.0393  0.0559
12594W        W28063  13.858   1.547   1.183  0.0699  0.0631  0.3263
12595W        W28064   2.604  11.960   3.238 -0.3648  0.2723  0.2477
12596W        W28065  15.773   9.940   0.372 -0.1096 -0.3955  0.1017
12597W        W28066   4.208  11.233  14.978 -0.0490  0.0043  0.0807
12598W        W28067   1.051  12.976  11.963 -0.4480  0.0932  0.0184
12599W        W28068   9.190  14.100  13.367  0.2231 -0.0275  0.1074
12600W        W28069  11.304   3.445   3.954 -0.0796  0.0134  0.1233
12601W        W28070  10.543   2.769   1.962 -0.1157  0.1881 -0.3044
12602W        W28071   0.989   7.091  15.712  0.2210  0.0667 -0.1945
12603W        W28072  12.208  11.440  15.005 -0.1188  0.1186  0.0819
12604W        W28073  10.043   3.540  11.527  0.1830 -0.0336  0.0530
12605W        W28074  12.911   0.474   4.920  0.0183  0.0938  0.0708
12606W        W28075   6.212  13.919  12.555 -0.1420  0.2455 -0.4482
12607W        W28076  18.352  17.352  13.545  0.0851  0.2036  0.1087
12608W        W28077  10.172  15.374  13.418  0.0959  0.0557 -0.0824
12609W        W28078   4.577   6.631   3.399 -0.0748  0.1567 -0.0084
12610W        W28079   1.190   0.345   1.309 -0.0126 -0.0376 -0.0475
12611W        W28080  16.335  12.938   5.408  0.2084 -0.0874  0.0306
12612W        W28081   4.599  10.728   3.206  0.2629  0.0956 -0.2593
12613W        W28082  11.520   7.492  11.673 -0.3562  0.2623  0.3003
12614W        W28083   2.054  15.041  12.830 -0.6386 -0.1907  0.3424
12615W        W28084   8.800   4.742  10.863 -0.1216 -0.0002  0.0664
12616W        W28085  11.516   3.860   4.199 -0.0468 -0.0241 -0.2109
12617W        W28086  14.499   1.606   4.712  0.2530  0.0203 -0.2993
12618W        W28087  14.339   0.704  14.310 -0.3300  0.1083  0.1208
12619W        W28088   1.244  14.935   3.509  0.0198 -0.2776  0.2406
12620W        W28089   9.739   4.837  11.947 -0.0126 -0.1781  0.0887
12621W        W28090   1.902   8.879  14.522  0.1741 -0.2336  0.0730
12622W        W28091  15.644  15.904   9.740 -0.0915  0.2116 -0.2199
12623W        W28092   4.893   7.689   4.777  0.0322 -0.0430 -0.2121
12624W        W28093   2.141   0.777   2.239  0.0498 -0.1222 -0.1823
12625W        W28094   9.900   7.450  15.079  0.0799 -0.3795 -0.0971
12626W        W28095   0.862   8.404  15.737 -0.0663  0.1066 -0.0264
12627W        W28096  10.193   5.606   1.356  0.0882  0.0901 -0.2573
12628W        W28097  14.141   0.575   5.024  0.2144  0.0501 -0.0006
12629W        W28098   5.096   9.333   2.865 -0.0447 -0.1250  0.2052
12630W        W28099   6.547  17.102  13.539 -0.2271 -0.0776 -0.3412
12631W        W28100  10.832   0.828  15.203 -0.0956 -0.0906  0.0768
12632W        W28101   1.867  17.225  13.407 -0.1489 -0.1093  0.0995
12633W        W28102  11.766   7.598  11.201 -0.0874  0.0696  0.0328
12634W        W28103   2.985   7.088   4.377  0.0331 -0.2854 -0.0718
12635W        W28104   7.274   1.756  14.298  0.3644  0.4338  0.0946
12636W        W28105  18.159  13.023  13.248  0.2329 -0.0715  0.1688
12637W        W28106   4.437   2.292  15.224  0.1947 -0.0944  0.0174
12638W        W28107   9.117   4.001  12.288  0.0200  0.2522 -0.0377
12639W        W28108   5.140  12.757   5.167 -0.0717  0.2781 -0.0352
12640W        W28109  11.077   1.196   1.606  0.1198 -0.0047 -0.1648
12641W        W28110  17.163   8.069   4.051  0.0425  0.0521  0.1082
12642W        W28111   5.943   6.330  13.028 -0.1536 -0.1823  0.2783
12643W        W28112   5.735   8.278  14.466  0.0051  0.3368 -0.1164
12644W        W28113  18.411   7.717   9.890 -0.0255 -0.1519  0.2264
12645W        W28114   6.867  16.179   2.174 -0.3304  0.0108  0.2799
12646W        W28115   7.553   1.343  13.660 -0.1491  0.1578 -0.2358
12647W        W28116  16.670   7.616   0.792  0.1810 -0.1046  0.0600
12648W        W28117   9.201  18.071   2.722  0.3109 -0.1235  0.0075
12649W        W28118  13.506   7.361  11.085 -0.0492 -0.2684 -0.1032
12650W        W28119   3.236  16.845  12.954 -0.0041  0.0561 -0.1292
12651W        W28120  16.054  13.789   5.369  0.0566 -0.5262  0.2013
12652W        W28121  15.529  16.991   1.198  0.0697  0.1853  0.1161
12653W        W28122   6.226  17.828  10.229  0.0039  0.0502 -0.1111
12654W        W28123  16.391  15.403  15.482 -0.0937 -0.0185  0.1067
12655W        W28124   5.315   4.858   5.455  0.0610  0.1382 -0.0753
12656W        W28125   1.858   1.181  15.170  0.1323  0.3210  0.3620
12657W        W28126   0.733   7.566  13.668 -0.0372  0.0810 -0.0469
12658W        W28127  12.126   4.580   0.434 -0.0321  0.1074 -0.0926
12659W        W28128   0.997   4.682   4.064  0.3138 -0.1753  0.2806
12660W        W28129  17.538  15.526   2.339  0.2591  0.1344  0.1584
12661W        W28130   3.504   1.554   2.726  0.0760 -0.1825 -0.0389
12662W        W28131   8.036   0.789   4.360  0.2276  0.1692  0.0643
12663W        W28132  10.365   5.433  10.888  0.1222  0.2652 -0.1017
12664W        W28133   1.112   9.301  15.226  0.0621  0.2631  0.1880
12665W        W28134  10.691  18.153  12.547  0.1229 -0.3201  0.0021
12666W        W28135  17.439  10.441   0.032  0.1835 -0.1158 -0.1291
12667W        W28136  15.523   6.716  14.467  0.1033 -0.0690  0.0280
12668W        W28137   3.404   9.720  11.161  0.0429  0.1168  0.0452
12669W        W28138   3.936  11.053   2.165 -0.1678 -0.0337  0.0626
12670W        W28139  10.317  11.176   3.311  0.2172 -0.2639 -0.0535
12671W        W28140   7.036   0.225  14.684  0.4092 -0.1025  0.2113
12672W        W28141  11.472   9.822  14.465 -0.0896 -0.1406  0.1987
12673W        W28142   6.671   4.463  12.132 -0.0433  0.0972 -0.0460
12674W        W28143  13.652   2.862   4.906  0.1732 -0.0633  0.2277
12675W        W28144  17.766  12.326  12.701 -0.1152  0.0204 -0.0001
12676W        W28145   7.971   8.354   3.705  0.1030  0.1247  0.0362
12677W        W28146   6.253  17.563  14.758  0.2134  0.0897  0.1445
12678W        W28147   1.392  17.435   3.436  0.1366  0.1291 -0.3772
12679W        W28148  10.526   6.438   0.521  0.0314 -0.0620 -0.2082
12680W        W28149  16.296   6.564  13.477  0.0790 -0.2002 -0.0095
12681W        W28150   7.308  13.144   2.959 -0.2304  0.0274 -0.0211
12682W        W28151   1.455   5.462  15.566  0.2083 -0.0266 -0.2753
12683W        W28152   7.904  12.628   1.057  0.2374  0.0362  0.0178
12684W        W28153   7.635  16.185   4.278  0.4283  0.2240 -0.0471
12685W        W28154   5.220   8.484  11.555  0.0081 -0.2128 -0.0404
12686W        W28155   2.800   7.570  11.709  0.0921  0.0709 -0.1678
12687W        W28156  17.517   3.946  12.132 -0.5028 -0.3203  0.0732
12688W        W28157  18.468  16.736  11.043 -0.0778  0.2128  0.2384
12689W        W28158  18.065  16.683  14.941  0.0534  0.2143  0.1701
12690W        W28159   9.609   4.923   1.467 -0.0631  0.2079 -0.0147
12691W        W28160  17.881   7.399  12.551 -0.2465  0.1188  0.2682
12692W        W28161   0.335  10.216   0.339 -0.0520 -0.3635 -0.0473
12693W        W28162  11.754   0.273   3.417 -0.0752 -0.1817 -0.2200
12694W        W28163   0.943  18.065  15.824  0.3069 -0.0867 -0.0192
12695W        W28164   7.288   3.477   1.483  0.0378 -0.3768  0.0037
12696W        W28165  18.005   9.768  11.435 -0.3003 -0.2328  0.0047
12697W        W28166  12.706   5.902  12.616  0.1671 -0.0557 -0.0736
12698W        W28167  15.284   6.092  11.114 -0.0900 -0.1933  0.4569
12699W        W28168   1.767   4.678   2.927  0.1596 -0.1061  0.0800
12700W        W28169  17.752  14.359   5.499  0.2909 -0.5703 -0.0664
12701W        W28170  16.395   9.269   4.328 -0.0315  0.1963  0.1909
12702W        W28171  18.453  14.134  10.983 -0.0504  0.0400 -0.0342
12703W        W28172   5.665   7.519  10.419 -0.1028  0.1315  0.2958
12704W        W28173   4.790  18.233   2.387 -0.1507  0.6610 -0.2827
12705W        W28174  16.678   8.306  12.186  0.2190 -0.2225  0.0420
12706W        W28175   5.557   4.138  14.836 -0.1821 -0.1221  0.3821
12707W        W28176   4.735  13.510  13.417 -0.3818  0.0482  0.2160
12708W        W28177  14.805  12.571  13.911 -0.3356 -0.1360  0.0648
12709W        W28178  14.918   2.922   0.329 -0.0285  0.1983  0.1317
12710W        W28179   3.972   8.051  14.620 -0.0397 -0.1807 -0.0664
12711W        W28180   9.252  11.878   3.847  0.0525  0.0441 -0.4029
12712W        W28181   0.412  17.869  11.338 -0.1408  0.2340 -0.1898
12713W        W28182   0.051   0.668   0.391  0.0688  0.3645  0.1801
12714W        W28183   8.787  18.198   0.987  0.0230 -0.0449  0.3972
12715W        W28184   4.238  12.478  12.591 -0.1602  0.1508  0.3324
12716W        W28185  15.983  11.111  12.615 -0.1533 -0.0590  0.0221
12717W        W28186   9.594  17.302  11.531 -0.0361 -0.1099  0.1813
12718W        W28187   1.131  17.027   4.723  0.2801 -0.0570 -0.0199
12719W        W28188  13.337   5.419  11.342 -0.1966 -0.1560  0.1316
12720W        W28189  11.773   8.868  14.099  0.4613 -0.2680  0.0265
12721W        W28190  15.862  13.190  13.203 -0.1066  0.0924  0.1575
12722W        W28191  10.115  15.129  11.925 -0.1134  0.0854  0.0000
12723W        W28192   1.502   6.638  12.824  0.2807  0.0860  0.0359
12724W        W28193  17.920   4.507  15.206  0.1255  0.0407 -0.1579
12725W        W28194   6.040   6.705   0.231 -0.0112  0.1920 -0.0872
12726W        W28195  12.627   4.547   4.033  0.2189 -0.3429  0.3311
12727W        W28196   6.914   4.328  13.851  0.1815 -0.0960 -0.2052
12728W        W28197   6.611   2.825   2.775 -0.3007  0.0817  0.0711
12729W        W28198  14.682  17.971   4.050  0.0886 -0.2744 -0.1046
12730W        W28199   3.290   6.453  14.430 -0.1947  0.0449  0.2829
12731W        W28200  11.180  12.484   4.395  0.1014 -0.1534  0.1229
12732W        W28201  17.683   7.751  14.461 -0.2360 -0.3414  0.0083
12733W        W28202  11.378   2.002   4.480 -0.0816  0.1232 -0.0052
12734W        W28203   4.484  16.931   2.208  0.0964  0.0758 -0.3048
12735W        W28204  17.930  12.949  12.645  0.0393 -0.1108 -0.1333
12736W        W28205   1.578   2.547   1.937 -0.0602 -0.1794 -0.1207
12737W        W28206  13.351   0.637   2.117  0.1144 -0.4083 -0.2110
12738W        W28207   2.486   0.825   2.878 -0.0192 -0.0578 -0.2828
12739W        W28208   7.480   2.265   4.822  0.2916 -0.0618  0.2910
12740W        W28209  14.629  16.078  12.115 -0.0948 -0.1003  0.1198
12741W        W28210   7.677  10.355   4.311 -0.0305 -0.0651 -0.0270
12742W        W28211   0.606   5.710   0.319 -0.1818 -0.1170  0.2074
12743W        W28212   8.584  10.446   3.766  0.0077 -0.1422  0.1455
12744W        W28213  11.780  17.669  13.454  0.1566 -0.1280  0.0949
12745W        W28214   4.253   0.781   1.774 -0.2094  0.2773  0.0881
12746W        W28215  10.704   2.428  15.226  0.2529  0.2074 -0.1063
12747W        W28216   1.008   0.847   4.558 -0.1593 -0.2298 -0.0959
12748W        W28217  15.900   7.582  15.311 -0.2253 -0.2120  0.3161
12749W        W28218   2.058   4.141  15.190  0.0961  0.4423  0.2992
12750W        W28219  18.275  10.519   4.957 -0.1552  0.0316  0.2150
12751W        W28220  16.596  16.612   4.795 -0.0489 -0.0924  0.0808
12752W        W28221   1.080  17.944   4.471 -0.0226  0.0634 -0.0389
12753W        W28222   4.006   1.323   2.474  0.1840 -0.3626 -0.0409
12754W        W28223   1.954   8.555  14.948  0.0436 -0.0971  0.1866
12755W        W28224  13.715  11.944   5.128 -0.3740 -0.1568 -0.0749
12756W        W28225  15.460   7.077  13.211  0.3996  0.0560  0.1521
12757W        W28226  17.195  18.127   0.631  0.1521  0.1582 -0.3157
12758W        W28227   5.623   4.663  11.383  0.1560 -0.3174  0.2775
12759W        W28228  11.350  10.670  10.743 -0.1391  0.0747  0.0236
12760W        W28229  13.161   4.482   3.930  0.3218  0.0453  0.1188
12761W        W28230   0.556   1.116   0.814  0.0649  0.1595  0.1579
12762W        W28231   7.287   6.965   0.350  0.0341 -0.0702  0.0550
12763W        W28232  18.046   2.641   2.469  0.0197  0.2512 -0.0170
12764W        W28233  10.300   5.888   3.410 -0.1864 -0.0741  0.1133
12765W        W28234   7.434  18.439   1.375 -0.0350  0.0684 -0.3711
12766W        W28235   1.677  14.111   0.545  0.1406  0.0152  0.2745
12767W        W28236   5.056   1.009  14.611  0.0610  0.1254 -0.1607
12768W        W28237  15.095  16.172  13.932 -0.2396  0.0813 -0.1215
12769W        W28238   9.319   7.227  14.333  0.0574 -0.3200  0.2213
12770W        W28239   2.118   9.873   1.791 -0.0538 -0.0169 -0.0301
12771W        W28240   2.333   0.200  12.411 -0.2487 -0.0723  0.0741
12772W        W28241  13.826   1.952   5.293 -0.1033  0.1654 -0.0627
12773W        W28242  15.179   2.823  15.123 -0.0175 -0.1844 -0.0790
12774W        W28243   7.777  17.964   3.485 -0.3040 -0.2212  0.3419
12775W        W28244   6.143   0.083  13.103  0.1710 -0.0715  0.1440
12776W        W28245  12.272  11.899  14.880 -0.0155  0.2371 -0.1151
12777W        W28246   3.047  13.312   4.339 -0.2128 -0.0805  0.2809
12778W        W28247   2.448   1.551   5.264  0.0934  0.0735 -0.3135
12779W        W28248  12.074   3.918   1.832 -0.1810  0.1360 -0.2009
12780W        W28249  17.782  15.279  10.801  0.1002 -0.0729 -0.1117
12781W        W28250   8.401  16.511   5.796 -0.3054 -0.3884  0.0137
12782W        W28251  13.187  10.703   4.795 -0.0290  0.2005  0.1116
12783W        W28252  13.148  13.465   2.299 -0.0017 -0.1310  0.0418
12784W        W28253   0.017   8.354  11.163  0.0770 -0.0334 -0.1671
12785W        W28254   2.148   6.859  11.639 -0.1225 -0.0842 -0.2479
12786W        W28255  12.955   2.233  13.442 -0.1768 -0.0087  0.0852
12787W        W28256   8.308  10.156   5.066  0.0827 -0.0121  0.2444
12788W        W28257   2.218   9.375   1.669  0.1734 -0.0641 -0.0473
12789W        W28258  14.701   9.913   0.481  0.0614 -0.3305  0.1689
12790W        W28259  17.195  13.221  12.258  0.3139 -0.2004 -0.0925
12791W        W28260  10.089  18.113   2.588 -0.0965 -0.0343  0.3111
12792W        W28261  11.757  14.687  12.340  0.1228 -0.0656 -0.0974
12793W        W28262   6.814   9.950   5.234  0.0405 -0.0390  0.4866
12794W        W28263   5.319   1.559  15.155  0.0335 -0.1475 -0.2910
12795W        W28264   6.353   7.247  12.460  0.1399  0.1190  0.1225
12796W        W28265  16.433  15.703   3.006 -0.0776  0.0968  0.2697
12797W        W28266  10.251  15.901   0.620  0.1838 -0.1264 -0.0052
12798W        W28267  12.224   6.678   5.416 -0.0822  0.0378 -0.2348
12799W        W28268   8.785   0.058   5.301  0.2170  0.1230  0.1744
12800W        W28269  10.908   3.944   2.170  0.1816  0.2455  0.1668
12801W        W28270   1.155   2.217   2.039 -0.1002 -0.1261  0.1696
12802W        W28271  16.682   6.031   1.857 -0.0254 -0.1012 -0.1271
12803W        W28272  12.411  16.531   1.213  0.1813 -0.1569  0.2332
12804W        W28273   8.321  14.931   1.352  0.0638 -0.2315  0.3849
12805W        W28274  13.009  16.520  12.195  0.0328  0.2009 -0.0109
12806W        W28275  15.868  17.383   2.015  0.0432 -0.0706  0.2082
12807W        W28276   0.785  12.709  15.908  0.1002 -0.2478 -0.0007
12808W        W28277   6.453   2.109  11.707 -0.1602 -0.1175  0.0284
12809W        W28278   7.317   1.789  10.712 -0.2293 -0.0379  0.1812
12810W        W28279   3.272   9.647   0.619  0.1306  0.0714 -0.1631
12811W        W28280   9.654  18.090   3.928  0.3708  0.0387  0.0787
12812W        W28281   3.599  14.532   3.430  0.2064  0.0752  0.0335
12813W        W28282   9.972   0.799   2.636  0.0954  0.0002 -0.0140
12814W        W28283  10.872   1.343  15.126 -0.1094  0.0647  0.0655
12815W        W28284   5.192   8.822   3.419 -0.0841  0.3976  0.2105
12816W        W28285   8.827   7.647   4.561 -0.0543 -0.1651 -0.0592
12817W        W28286   9.792  18.029   5.527 -0.2756 -0.2472 -0.0318
12818W        W28287   4.866  16.676   0.938 -0.2984 -0.3405  0.0029
12819W        W28288  11.435   1.514  12.899 -0.0667  0.2500  0.0405
12820W        W28289  18.483   2.432   5.218 -0.2133 -0.0321 -0.1280
12821W        W28290   4.074  12.669   3.764 -0.2079  0.1301  0.3287
12822W        W28291   2.283  11.946  10.765  0.1184 -0.2339  0.0686
12823W        W28292  12.147  13.314   4.138  0.2270  0.5488 -0.3673
12824W        W28293  15.358   8.311  12.960  0.2463  0.1670  0.1848
12825W        W28294   3.984  12.158   3.536 -0.0829 -0.1292  0.2453
12826W        W28295   2.554  14.913  12.512 -0.0711  0.0532  0.0083
12827W        W28296   4.893  15.730  14.801 -0.0194 -0.0215 -0.1112
12828W        W28297  13.561   9.263   9.750  0.0837 -0.1903  0.0342
12829W        W28298  17.359  13.423  11.841 -0.0944  0.3787  0.1061
12830W        W28299  12.769  15.170  15.877 -0.0073 -0.1777 -0.0281
12831W        W28300   3.929   6.018   5.352  0.0102 -0.1915 -0.1784
12832W        W28301   7.135   0.956   4.791  0.1989  0.1354  0.1064
12833W        W28302   8.467  13.832  13.860  0.1207 -0.3337 -0.2396
12834W        W28303  17.412  15.186   3.999  0.0443  0.1624  0.2482
12835W        W28304  10.906   0.042  14.976 -0.0141 -0.0790 -0.0968
12836W        W28305  12.875  12.228  13.515  0.1962 -0.1499  0.2070
12837W        W28306   7.129   5.776  10.881 -0.3636 -0.0454  0.0877
12838W        W28307  13.782   7.339   0.035 -0.2216 -0.0348 -0.0521
12839W        W28308  13.659  17.243  10.887  0.0614 -0.1276 -0.3120
12840W        W28309   6.799   9.657   3.809  0.1194  0.1206 -0.2479
12841W        W28310   4.911  10.183  12.750  0.1293 -0.0569 -0.1249
12842W        W28311   5.176   2.812   4.946  0.0343  0.0652  0.0390
12843W        W28312  11.133   2.078   1.421  0.0710  0.0496 -0.1460
12844W        W28313  15.840   3.085   4.762 -0.0784 -0.0921 -0.2048
12845W        W28314  12.013  11.368  13.002 -0.1675 -0.2406 -0.2516
12846W        W28315   7.992   2.235  11.505 -0.1106 -0.1980 -0.0790
12847W        W28316   3.507   9.043   1.342  0.0958  0.1805  0.2151
12848W        W28317  12.196  11.544  15.582  0.0352 -0.2099 -0.2029
12849W        W28318   0.951   3.084   0.160 -0.3028 -0.2179  0.0248
12850W        W28319   1.391   1.094  12.034 -0.4325 -0.1631  0.1804
12851W        W28320   5.318  17.191  11.793  0.1105 -0.1427  0.1283
12852W        W28321  17.052  16.230  14.807 -0.3721  0.0859  0.3784
12853W        W28322  11.951  11.489   0.236  0.1840  0.0413 -0.2533
12854W        W28323   8.490  14.471   0.883  0.1678 -0.3703 -0.0407
12855W        W28324  14.729   2.618  15.449 -0.4275 -0.1760  0.0935
12856W        W28325  14.144   6.909   4.857 -0.1812 -0.0717  0.0020
12857W        W28326  11.683  11.499   4.354  0.2573  0.0874  0.0556
12858W        W28327   7.025  16.775  13.550  0.0340 -0.1390  0.4042
12859W        W28328   2.279   8.134   0.740  0.1571 -0.0477  0.2154
12860W        W28329   1.278   4.536  11.032 -0.0103  0.0008  0.1384
12861W        W28330   8.747  14.833   1.523 -0.1191 -0.0848  0.0522
12862W        W28331  12.852   0.952  14.901 -0.0773  0.0348  0.0925
12863W        W28332   9.208  16.921   3.794  0.1090  0.3020 -0.0459
12864W        W28333  12.877   4.551   5.882 -0.0914 -0.0022  0.3798
12865W        W28334   8.974  10.739  13.842  0.0197 -0.2375 -0.4123
12866W        W28335   3.506   3.283  15.217 -0.4668  0.1749  0.0945
12867W        W28336  11.541  15.576  14.367 -0.2632  0.0203 -0.0865
12868W        W28337  12.191   7.182  15.373  0.0988 -0.1214 -0.1618
12869W        W28338   0.474   2.853   0.282 -0.1351 -0.3845  0.1910
12870W        W28339  14.939   6.953   1.923 -0.1011 -0.0266 -0.1085
12871W        W28340  14.236   6.098   2.529  0.3966 -0.1553  0.0822
12872W        W28341   4.610   3.611  15.773  0.0930  0.0844  0.3279
12873W        W28342   0.206  10.954  14.871  0.1300 -0.0812 -0.1241
12874W        W28343   2.617   1.754   2.615 -0.0348 -0.0618 -0.0460
12875W        W28344   2.464   2.927  12.155 -0.2444 -0.0308 -0.0069
12876W        W28345  15.450   3.146  14.167  0.1847  0.0554 -0.1167
12877W        W28346  15.072  10.041   0.774 -0.0202  0.1507  0.1654
12878W        W28347   2.530  14.645   3.945 -0.3998  0.1068  0.0345
12879W        W28348   5.307   9.268  12.228 -0.4064  0.0424  0.0485
12880W        W28349   2.087   3.519  12.630 -0.0474  0.1560 -0.2593
12881W        W28350   7.004  10.763  13.913 -0.0893 -0.0631  0.3639
12882W        W28351   3.470  11.123  14.168  0.2366  0.3227 -0.1884
12883W        W28352   7.972   1.856   1.405 -0.0629 -0.4912 -0.0123
12884W        W28353  11.754   9.566   0.951 -0.0164  0.0502 -0.1893
12885W        W28354   8.536   1.494  15.327 -0.0345  0.0055  0.1850
12886W        W28355  14.323  15.509   3.421 -0.1053 -0.3269 -0.0771
12887W        W28356  11.401  11.646  14.530 -0.0773 -0.0620 -0.1372
12888W        W28357  14.222   6.351   5.251 -0.0620  0.0679  0.1733
12889W        W28358  13.494   8.744   5.131  0.0586  0.0030  0.5033
12890W        W28359  12.300   6.615  14.563 -0.1214 -0.2230  0.1459
12891W        W28360   5.393  17.291   4.223 -0.2314 -0.1491 -0.0749
12892W        W28361   1.116   2.573  12.293 -0.1561 -0.3440  0.2095
12893W        W28362   5.156  10.441   0.530  0.0497  0.1276 -0.1468
12894W        W28363   3.292   2.930  10.250  0.1471 -0.0172  0.1327
12895W        W28364  16.847  13.526  10.927  0.3222  0.0046 -0.0070
12896W        W28365   9.948   4.706   2.847  0.0757  0.0540 -0.1322
12897W        W28366   2.439  18.440  11.601 -0.2473 -0.0365  0.1122
12898W        W28367   6.417   9.858  12.547  0.0367  0.1472 -0.1253
12899W        W28368   2.406   5.123  12.054 -0.1494  0.1472  0.2509
12900W        W28369   3.237   4.494  11.089 -0.0677 -0.0415  0.1145
12901W        W28370  16.192   0.308   2.013  0.0081 -0.0435  0.0376
12902W        W28371   1.208  14.081   2.435 -0.0074 -0.0559 -0.2177
12903W        W28372   3.532  18.240  11.094  0.0103 -0.2597  0.0791
12904W        W28373  10.122   6.046  12.556 -0.1056  0.0595  0.2296
12905W        W28374  12.369  14.059  11.884  0.1996 -0.0253  0.0854
12906W        W28375  16.960  14.077   1.708 -0.1049  0.0013  0.2094
12907W        W28376  11.589  16.514   1.742 -0.0801  0.1127  0.2326
12908W        W28377   5.957   1.313  13.616 -0.0405 -0.0741  0.1232
12909W        W28378   3.548   0.718  14.871  0.2204 -0.2698  0.0622
12910W        W28379  17.310   3.484  15.704 -0.0677 -0.3205 -0.0647
12911W        W28380  15.871  17.332   3.344 -0.0636  0.2968  0.0117
12912W        W28381  17.562   8.244  14.215  0.0130 -0.1451  0.2571
12913W        W28382   6.169   2.608   3.498  0.2408 -0.0858  0.1043
12914W        W28383  11.819   4.993  10.442 -0.1398  0.2321  0.2123
12915W        W28384  15.743  10.480   4.483  0.1653  0.2547  0.1436
12916W        W28385   5.276  12.990   4.397  0.0601  0.3595  0.1404
12917W        W28386   0.218   5.644   3.358  0.2403 -0.1428 -0.2355
12918W        W28387  11.692  14.891  12.995 -0.0792 -0.0643  0.1618
12919W        W28388  11.271  16.814   4.224 -0.0013 -0.3643 -0.0179
12920W        W28389   7.676   0.809   9.649  0.1208  0.0402 -0.0984
12921W        W28390   8.286  12.853  11.891  0.2657 -0.3487 -0.2020
12922W        W28391  12.838  11.560   3.880 -0.0729 -0.1114  0.0669
12923W        W28392   8.552  15.060   2.721  0.0279  0.1280  0.1097
12924W        W28393   9.816  17.993   0.572 -0.0206 -0.1070 -0.2235
12925W        W28394  16.670   1.113   2.830  0.1232  0.3304  0.1763
12926W        W28395   5.159   2.565   2.579 -0.1190 -0.3398 -0.0360
12927W        W28396  16.318   2.547   4.079 -0.0031 -0.1874  0.1404
12928W        W28397   8.498  12.871  13.313  0.1006 -0.0471 -0.1850
12929W        W28398   8.980   9.088  14.840 -0.0159 -0.1245  0.0207
12930W        W28399  12.930   6.399  10.523  0.1351  0.3106 -0.0539
12931W        W28400   0.323   4.438  13.387 -0.0004  0.0249  0.2751
12932W        W28401  12.294  10.708  13.984 -0.0046  0.0746  0.1061
12933W        W28402  14.503   2.052   5.176  0.1740  0.1961  0.0017
12934W        W28403   4.521  13.983   4.964  0.2397  0.1588  0.4111
12935W        W28404   4.896  13.649   2.799 -0.2227 -0.1103 -0.2391
12936W        W28405   9.854  17.590   4.253  0.1795  0.0971 -0.0086
12937W        W28406  17.779  10.653  10.580  0.0417  0.4088  0.3615
12938W        W28407  16.106  13.979  12.836  0.1158  0.1123 -0.0515
12939W        W28408  10.442  11.347  15.717  0.0933  0.0004  0.2411
12940W        W28409  17.654   9.430   1.229  0.1916 -0.2378  0.1240
12941W        W28410   3.034  15.835  14.819  0.2235 -0.0163  0.1219
12942W        W28411   5.223  16.427   1.181 -0.1668  0.2654 -0.2496
12943W        W28412  17.040   2.684   5.539  0.2374 -0.3069  0.0079
12944W        W28413  10.530   2.570   3.748 -0.2260 -0.0593 -0.0523
12945W        W28414   8.415  15.816  12.580  0.2491 -0.0803  0.1185
12946W        W28415   5.719  13.233   4.580  0.1111  0.1228  0.0961
12947W        W28416  10.738   9.416   2.498 -0.3545 -0.0788 -0.2024
12948W        W28417   4.291  15.128   0.190 -0.1837  0.1017  0.0092
12949W        W28418   1.300   1.257  15.833 -0.2500  0.0671 -0.0389
12950W        W28419   9.602  10.214   1.707 -0.0364 -0.3740  0.0542
12951W        W28420   4.771   0.521   5.219 -0.1505  0.1209  0.0583
12952W        W28421   8.587  12.595  14.689 -0.0846 -0.0351 -0.1991
12953W        W28422  15.758  12.664   2.325  0.1297 -0.1366  0.0331
12954W        W28423   9.810  14.416  14.065 -0.0574 -0.0432 -0.1724
12955W        W28424  12.927   9.212  11.249 -0.0054  0.0436  0.0836
12956W        W28425  16.500   0.650   2.538 -0.0981 -0.2651 -0.2114
12957W        W28426  17.564   3.295   1.543 -0.1116  0.0786  0.1422
12958W        W28427  18.313   7.247  13.994  0.1262  0.2199 -0.1312
12959W        W28428   7.983   7.257  14.768 -0.0186 -0.1485  0.5668
12960W        W28429   2.923   5.639  15.408  0.0441  0.2218  0.3466
12961W        W28430   8.968   9.384  12.213  0.3336 -0.2755  0.0133
12962W        W28431  16.902   5.991  15.285 -0.1109 -0.3777  0.1238
12963W        W28432   5.956   6.551   2.326  0.0616 -0.1228 -0.2115
12964W        W28433   6.966   1.312   1.078 -0.2048 -0.2228  0.0166
12965W        W28434  17.495  15.453   4.451 -0.0755  0.0707  0.1749
12966W        W28435  12.246  14.414  13.112  0.0111  0.0680 -0.2803
12967W        W28436  10.564   9.927  10.194 -0.0220 -0.0866 -0.2792
12968W        W28437  17.278  15.536  10.758 -0.2746 -0.0462  0.1770
12969W        W28438  13.040   5.388  10.131  0.0767  0.0195 -0.0107
12970W        W28439   0.376  10.822  13.424 -0.1252 -0.0131 -0.0744
12971W        W28440  10.655  15.232  13.337 -0.1466  0.0901 -0.0740
12972W        W28441   3.605   7.486  11.587 -0.0856 -0.3563  0.0650
12973W        W28442   4.737  15.358  13.481 -0.0176 -0.1327  0.1183
12974W        W28443  12.659   8.709   4.506  0.0295  0.0269 -0.3435
12975W        W28444   2.729   6.703   3.372 -0.5425 -0.0408  0.2302
12976W        W28445  11.379   8.890   0.587 -0.1522 -0.2262 -0.0162
12977W        W28446  16.975   5.831   4.098 -0.0539 -0.1827 -0.0820
12978W        W28447   4.619   8.685   2.131 -0.0367 -0.1853 -0.0588
12979W        W28448  12.113  14.226   4.070 -0.0811  0.0769 -0.1747
12980W        W28449   4.578   8.202  12.255  0.1277  0.0187  0.1384
12981W        W28450   0.344   5.993  14.321 -0.2141 -0.0592 -0.1466
12982W        W28451  11.879  14.469   5.179  0.1342 -0.0697 -0.1652
12983W        W28452  14.937  14.413  13.961 -0.0020 -0.0043  0.2204
12984W        W28453  18.022   9.656  12.601  0.1411  0.0124  0.0187
12985W        W28454   5.770   1.598  12.971 -0.1658 -0.0152 -0.0356
12986W        W28455  17.473   0.089  12.791 -0.0126 -0.0901 -0.1173
12987W        W28456   9.014   5.365  13.733 -0.0211 -0.2022 -0.1690
12988W        W28457  15.943  15.793  15.502  0.2385  0.0862  0.1109
12989W        W28458   5.143   4.079   2.097 -0.0108 -0.0891  0.2391
12990W        W28459   7.941   7.027   2.405  0.1182 -0.0240  0.1729
12991W        W28460   6.176  17.940   4.391  0.2727  0.0131  0.4706
12992W        W28461   2.430  18.337  12.881  0.2469 -0.3711  0.1468
12993W        W28462   5.648   2.933   4.817  0.2189 -0.0234 -0.1705
12994W        W28463  15.305   6.548  15.383 -0.1814 -0.3549 -0.1332
12995W        W28464  12.543   5.502  12.331 -0.0611 -0.0953 -0.0076
12996W        W28465   4.876  15.371  12.456 -0.0993 -0.0253 -0.1220
12997W        W28466   8.564   8.804  15.435  0.0401  0.0328  0.5474
12998W        W28467   2.315   3.802  13.382 -0.2158  0.2321  0.2921
12999W        W28468   0.906  12.917   1.921  0.1808  0.2816 -0.2109
13000W        W28469  15.630  13.786   0.896 -0.0046  0.0560 -0.0058
13001W        W28470   4.949   6.062  12.256 -0.0664  0.1635  0.2885
13002W        W28471   7.675   5.177   4.517  0.0176  0.1279  0.2607
13003W        W28472  16.892  14.730  10.963 -0.1031  0.2190 -0.2498
13004W        W28473  14.724   0.416   2.821 -0.1233  0.0119  0.0259
13005W        W28474   8.496   4.418  15.810  0.0333  0.1077 -0.0630
13006W        W28475  15.864  13.505  12.639  0.3212  0.1086  0.2357
13007W        W28476  15.093   6.668   2.433 -0.1560  0.3225  0.1635
13008W        W28477  15.221  14.105   2.561  0.0840 -0.1125  0.0353
13009W        W28478   7.369  18.477  12.309  0.0410  0.0377 -0.5159
13010W        W28479   2.189   4.748  11.292 -0.4003 -0.1332  0.0210
13011W        W28480   6.056  15.169   3.234  0.0240  0.1095 -0.1334
13012W        W28481   0.374  12.605  14.769  0.0610  0.0873  0.3825
13013W        W28482   6.656   9.051   0.108 -0.0800  0.3346  0.1747
13014W        W28483  12.912  12.693  11.823 -0.0877 -0.1712  0.0055
13015W        W28484   7.914   0.581  14.513  0.0137 -0.1547 -0.1707
13016W        W28485   3.041  13.416  11.479 -0.1466 -0.1734  0.1635
13017W        W28486   5.228  15.420  13.490  0.3347  0.1398  0.0357
13018W        W28487   9.889  16.852   2.065 -0.3694 -0.1302  0.0964
13019W        W28488   9.590   1.217   3.980 -0.1264  0.0254 -0.2725
13020W        W28489  12.593  12.019   3.006  0.4918 -0.0389 -0.0756
13021W        W28490  15.869  11.652   4.868  0.0634 -0.2556  0.0359
13022W        W28491  15.590   8.636  11.592  0.2356  0.0133 -0.1722
13023W        W28492   9.991  17.842  15.503  0.0792  0.1795 -0.0957
13024W        W28493   6.182   9.607  13.201  0.0773  0.0986  0.1796
13025W        W28494  12.124   1.834  11.392 -0.0957  0.0165 -0.1383
13026W        W28495   5.798  15.308  12.686 -0.0015 -0.0047  0.0685
13027W        W28496   4.829   4.891   6.338  0.2065 -0.0987 -0.0868
13028W        W28497  11.824  10.177  15.398 -0.1638  0.1422  0.0626
13029W        W28498   9.971  13.249   0.946  0.0350 -0.1352  0.1087
13030W        W28499   5.968   6.033  13.988  0.0625 -0.1283 -0.0031
13031W        W28500  10.408   2.237   0.541  0.0353  0.0299 -0.0020
13032W        W28501   2.365   1.946   3.106  0.1509 -0.2049  0.1087
13033W        W28502   9.741  12.302  14.213 -0.0405 -0.0594 -0.4474
13034W        W28503  10.244  11.890  10.911 -0.0174 -0.2922  0.0955
13035W        W28504  16.644   6.979  15.523  0.1431 -0.0790 -0.2217
13036W        W28505  17.482  13.332   2.018 -0.2612 -0.3421  0.0685
13037W        W28506   4.451   8.430   4.982 -0.2447 -0.3716  0.0733
13038W        W28507   0.083  12.430  15.274 -0.5865 -0.2622  0.0555
13039W        W28508  17.319   0.929  12.430 -0.3620  0.1125  0.2202
13040W        W28509  17.416   5.849   0.225 -0.2087 -0.1776  0.0265
13041W        W28510   7.318  10.579   4.017  0.0272 -0.0662  0.0861
13042W        W28511   4.589  11.917   4.420  0.2211  0.0087 -0.2745
13043W        W28512   4.178   4.094   1.471 -0.1278 -0.1835 -0.0041
13044W        W28513  16.694  16.439  12.366 -0.0744 -0.4603  0.0017
13045W        W28514  13.827   4.285  12.106 -0.2646  0.0145  0.0938
13046W        W28515  18.207  15.730  10.465  0.2917  0.0102 -0.0405
13047W        W28516   3.418   8.496   1.918  0.1238  0.0928 -0.0266
13048W        W28517   4.735   9.042   5.609  0.1448 -0.0315  0.2738
13049W        W28518   9.440  16.068   0.805  0.1205 -0.1022  0.1943
13050W        W28519   3.282   7.451  12.025 -0.2693 -0.4317 -0.0622
13051W        W28520   4.143   0.261  14.297 -0.0149  0.1330 -0.1942
13052W        W28521  13.535  14.418   3.327  0.1035  0.2732 -0.1335
13053W        W28522  14.626   7.377   3.837 -0.2749 -0.1262  0.2541
13054W        W28523   2.621   4.546   0.539 -0.0680  0.0022  0.0654
13055W        W28524  10.091   9.828  14.415  0.0558 -0.1775 -0.2727
13056W        W28525  16.696   7.190   2.748  0.4584 -0.2032 -0.1971
13057W        W28526  16.212   8.073  11.311 -0.1400  0.1655  0.1384
13058W        W28527   0.101   2.667  15.674 -0.0454  0.0165  0.4058
13059W        W28528   7.796  18.094  15.827  0.1597 -0.0672 -0.1826
13060W        W28529   3.056  14.963   4.192 -0.0539  0.2092 -0.0075
13061W        W28530   4.288   6.013  11.531  0.0364 -0.1380  0.2463
13062W        W28531  15.542  12.228  11.679  0.0888 -0.1508 -0.0326
13063W        W28532   1.085  16.284  12.026  0.0099  0.0005 -0.1043
13064W        W28533   8.110   6.816  13.005 -0.0022  0.1710 -0.0061
13065W        W28534   0.260   3.272  14.048 -0.1121  0.2363  0.1006
13066W        W28535   2.349   9.385  11.870 -0.0088  0.0218 -0.0429
13067W        W28536   8.451   2.754  11.858  0.1411  0.2540 -0.1384
13068W        W28537   9.433   7.887   5.789 -0.1272 -0.3145  0.1772
13069W        W28538  11.523   0.676   0.149 -0.0951 -0.0109  0.1729
13070W        W28539  16.823  11.430   2.821 -0.0705 -0.0481 -0.0765
13071W        W28540   3.335   9.831   4.488  0.1215 -0.1920 -0.2386
13072W        W28541   8.470  10.521   2.001  0.0748  0.1671 -0.1613
13073W        W28542  12.579   4.302   3.402  0.5644 -0.4032 -0.1068
13074W        W28543   1.863  10.685  15.845 -0.3297  0.0768  0.0581
13075W        W28544   8.602  10.711  15.238 -0.2694  0.0724 -0.0844
13076W        W28545   6.685   2.745   1.298  0.2490  0.0733  0.0537
13077W        W28546   8.397   3.024  15.308  0.0381  0.1457  0.1338
13078W        W28547  16.925   3.537   2.187 -0.0420  0.2961  0.0644
13079W        W28548   3.139   3.458   3.221 -0.2225  0.0394  0.1681
13080W        W28549   7.438   0.487   4.095  0.0444 -0.0820 -0.0955
13081W        W28550   9.310   1.581  13.029  0.1919  0.1772  0.2148
13082W        W28551   9.991   6.914  10.781  0.1009  0.0565 -0.1591
13083W        W28552  10.212   1.393  11.320 -0.0412  0.4485 -0.1625
13084W        W28553  12.188  10.262   4.186  0.0302  0.2527 -0.0653
13085W        W28554   0.294   9.084   3.778 -0.0396  0.2968 -0.0113
13086W        W28555   7.144  12.527   6.388 -0.1638  0.0022 -0.1161
13087W        W28556   0.319  16.072  14.172 -0.0094  0.0755  0.0230
13088W        W28557   8.608   7.759  15.456 -0.1978  0.3683 -0.2995
13089W        W28558  12.864  14.678   0.208 -0.0455 -0.0886  0.2227
13090W        W28559   4.177  10.585   3.814  0.2883 -0.2502  0.0879
13091W        W28560  12.071   0.603  15.311  0.1660  0.0334 -0.1273
13092W        W28561   0.920  12.494  10.457  0.0882 -0.1425 -0.2907
13093W        W28562   5.120   9.061  14.382 -0.1416 -0.2127  0.3789
13094W        W28563  10.649   7.371  12.863  0.1640 -0.0809 -0.2024
13095W        W28564   9.209   9.805  12.293 -0.1734  0.3874 -0.0966
13096W        W28565  10.472  12.885   3.625 -0.0529  0.1085 -0.2985
13097W        W28566   5.440   0.954   1.003 -0.0211 -0.0316 -0.0466
13098W        W28567   1.027  16.875   2.726 -0.1843  0.1367  0.2605
13099W        W28568   9.000  12.378   5.560 -0.0700  0.1684 -0.0300
13100W        W28569  11.377  15.798  11.996  0.1312  0.3392  0.0141
13101W        W28570   2.465   1.774  14.863  0.1087 -0.0981  0.0709
13102W        W28571  11.155  11.797  11.877  0.0716  0.1349 -0.1351
13103W        W28572   6.075   6.045   4.896  0.1695  0.1178  0.1423
13104W        W28573  12.991  12.696   1.704  0.1307  0.0855 -0.1879
13105W        W28574  12.263   1.802   4.695 -0.0183  0.1370  0.0898
13106W        W28575  16.855   1.778   1.396  0.0240 -0.0791  0.1147
13107W        W28576  16.043   7.167  10.507 -0.0529 -0.0627  0.1017
13108W        W28577  11.906  13.428   4.581 -0.1574  0.0544 -0.1697
13109W        W28578   0.518   4.605   4.109 -0.2555  0.0316  0.0523
13110W        W28579   0.666   5.482   3.067 -0.0477  0.2189 -0.1113
13111W        W28580  18.263  15.234  10.642 -0.3309  0.1791 -0.0990
13112W        W28581   9.261   2.835   1.094  0.1952  0.2224  0.3186
13113W        W28582   5.082   3.965  13.202  0.0403  0.2899  0.2117
13114W        W28583   8.605   4.617  13.742 -0.3724  0.1362  0.1474
13115W        W28584   5.455   1.129   4.202 -0.3033 -0.0526  0.0480
13116W        W28585  16.264   5.092  12.022 -0.0232  0.2008 -0.0188
13117W        W28586   5.000  10.569  15.291 -0.1303 -0.2426 -0.0321
13118W        W28587   0.002   7.615  12.581  0.1841 -0.1618 -0.0273
13119W        W28588  13.645   4.476  10.561  0.1048 -0.1696  0.1939
13120W        W28589  13.293   0.457  12.847  0.0982 -0.1718 -0.1657
13121W        W28590  10.408   0.268   0.480  0.0863 -0.0461 -0.1223
13122W        W28591   3.139  15.354  11.491 -0.1311 -0.2124 -0.1728
13123W        W28592   4.751  10.797   1.547 -0.2186  0.0947  0.2101
13124W        W28593   6.440   2.312   1.462  0.1197  0.0978 -0.2597
13125W        W28594  17.897   0.336  12.668  0.2272  0.1013  0.0505
13126W        W28595  14.571   4.627  13.616  0.0947 -0.3069 -0.4390
13127W        W28596   3.024   6.300   0.516  0.0288  0.3972 -0.1805
13128W        W28597   7.896  17.148   6.039  0.3309  0.1199  0.3316
13129W        W28598   8.622   0.086  14.671  0.0303 -0.0339 -0.2594
13130W        W28599   6.165   4.765  15.294 -0.1310  0.0598  0.2367
13131W        W28600   4.966  16.770   6.299  0.0572 -0.3202  0.2496
13132W        W28601  17.525   8.713   3.577 -0.1863 -0.0472  0.0877
13133W        W28602  13.026   3.955  15.125 -0.0507  0.2326 -0.0815
13134W        W28603   3.321  12.785   1.520 -0.2565  0.0782 -0.3546
13135W        W28604  11.186   2.260   4.059  0.0463 -0.4053 -0.3362
13136W        W28605   3.650  13.488   2.097  0.1233  0.1897 -0.3803
13137W        W28606   0.778  13.859   2.211 -0.2304 -0.1693  0.1509
13138W        W28607   9.874   0.140   1.273  0.1218  0.0033 -0.1834
13139W        W28608   3.678  11.045   1.298  0.0024  0.2501 -0.4383
13140W        W28609  11.659  11.563   2.347 -0.2499 -0.0563  0.1585
13141W        W28610  13.152   2.124  15.328  0.3927  0.3695 -0.0119
13142W        W28611   5.116   5.930  13.773  0.1383  0.0779  0.0706
13143W        W28612  10.914   7.988  13.773  0.0583 -0.0150  0.1237
13144W        W28613  12.585  10.242   0.914  0.1172 -0.0955  0.3858
13145W        W28614  14.526   8.609  14.869  0.2266 -0.3798 -0.0608
13146W        W28615   1.144  17.572   0.012 -0.1086 -0.2134 -0.1382
13147W        W28616   2.597  13.494   4.441 -0.1003  0.0878  0.1393
13148W        W28617   7.375   5.337   2.348  0.0201 -0.0353  0.0790
13149W        W28618  10.429   3.626   4.901 -0.2186  0.3045  0.0867
13150W        W28619  18.091  10.355  11.469  0.1517 -0.0422  0.1156
13151W        W28620   4.749   1.545  12.451 -0.1362  0.1963 -0.2027
13152W        W28621  16.801  12.376  12.777  0.1838  0.1473 -0.0475
13153W        W28622   5.394  17.861   3.585  0.2950  0.2267  0.2869
13154W        W28623  15.145  17.781  12.309 -0.0687 -0.2112 -0.0004
13155W        W28624   4.510   8.909  13.699 -0.3904  0.2509 -0.1376
13156W        W28625   9.989   1.689  11.731 -0.0597  0.0874  0.0111
13157W        W28626   9.015   6.482  15.856 -0.0139 -0.0890 -0.1317
13158W        W28627   8.436   8.732   2.088  0.0038 -0.2260 -0.1692
13159W        W28628  14.592   8.388  10.999 -0.2632 -0.2339  0.0981
13160W        W28629  12.624  12.698  11.296 -0.3579  0.1412 -0.1597
13161W        W28630   9.157  12.450   3.131  0.0255 -0.0647 -0.0988
13162W        W28631   3.441   5.491   4.213 -0.3106 -0.2201  0.3802
13163W        W28632   0.830   7.911  15.696 -0.4451  0.0857  0.0809
13164W        W28633  10.892   5.664  15.028  0.1162  0.0592  0.1616
13165W        W28634   7.115   1.834   1.020  0.1492 -0.1172 -0.0250
13166W        W28635  12.300   9.735   0.777 -0.3421 -0.3220 -0.0585
13167W        W28636  16.145   9.104   4.704 -0.1623 -0.2899 -0.0080
13168W        W28637   5.613   9.714  13.505  0.1804 -0.0337  0.1500
13169W        W28638  16.231   8.015   3.193 -0.1267 -0.0862  0.2730
13170W        W28639  10.073  16.292   4.713  0.1738 -0.2015  0.0278
13171W        W28640   5.510  10.872  11.376 -0.0360 -0.0724 -0.1888
13172W        W28641  13.257   6.245   0.717  0.2667  0.0970  0.2500
13173W        W28642   9.759   6.742   2.772  0.0944 -0.1763 -0.2083
13174W        W28643   9.098   7.080  12.317 -0.0349  0.3315 -0.1082
13175W        W28644   7.858   1.157  12.327  0.2881 -0.2045 -0.1126
13176W        W28645   5.077   0.303  11.686  0.1757  0.1722  0.2360
13177W        W28646   1.689  14.427   3.872  0.3212  0.0235 -0.0406
13178W        W28647  15.093   3.129   4.837  0.0507 -0.0059 -0.0529
13179W        W28648   3.320  15.858  11.494 -0.1148 -0.2510 -0.2805
13180W        W28649  15.509   4.408  10.975 -0.3879 -0.1501 -0.2533
13181W        W28650  16.815  17.826  10.429 -0.2375 -0.0291  0.3484
13182W        W28651  14.936   9.886   2.549  0.1657 -0.0756  0.0479
13183W        W28652  17.184  11.992   2.197 -0.2562  0.0264 -0.0401
13184W        W28653  10.379   9.067  11.522  0.3698 -0.1571  0.0099
13185W        W28654   3.257  14.215  11.403  0.0136 -0.0217 -0.0584
13186W        W28655  12.570   2.357   3.388  0.1338 -0.3029 -0.4936
13187W        W28656  13.653  10.218   1.810  0.3584  0.1559  0.0213
13188W        W28657  13.605   7.208  14.362 -0.0937 -0.3680  0.1024
13189W        W28658   9.518   1.339  15.578 -0.1062 -0.2640  0.1428
13190W        W28659   4.282   0.045   2.542  0.0857  0.0638 -0.0970
13191W        W28660   5.711   1.023   1.459 -0.0983 -0.1120  0.1467
13192W        W28661  12.236   7.239   0.175  0.1397  0.0718 -0.0534
13193W        W28662   4.533   0.179  14.634  0.0252 -0.2440  0.3767
13194W        W28663  12.005  18.461   0.687  0.3582 -0.5066  0.0558
13195W        W28664   1.454   0.771   1.440  0.0342 -0.0945 -0.4042
13196W        W28665  11.261   2.817  13.266 -0.3487 -0.0625  0.1189
13197W        W28666   9.109   5.059   0.247  0.1366  0.1121  0.3365
13198W        W28667  17.672   1.159  15.450 -0.0476  0.2766 -0.0242
13199W        W28668   3.645   4.814  11.188 -0.1263 -0.3211 -0.3596
13200W        W28669  16.211   2.932   1.087  0.2238  0.0884  0.0501
13201W        W28670   6.493   3.666   2.628 -0.1621  0.1207 -0.2988
13202W        W28671  12.424   9.431  14.379  0.2550 -0.1642  0.3565
13203W        W28672  16.203  16.225  14.981 -0.1462 -0.3853  0.3071
13204W        W28673   5.346  14.029   1.313  0.0914 -0.1974  0.0349
13205W        W28674  12.952  15.682   3.432 -0.2456  0.1856 -0.0325
13206W        W28675  15.204   8.256  11.763  0.3343  0.2016  0.2351
13207W        W28676  12.166   3.760  13.752 -0.1418  0.0590  0.1823
13208W        W28677  13.658   4.376  14.694  0.0433  0.0029  0.1660
13209W        W28678  10.295   6.592   2.819 -0.1799 -0.0931  0.1889
13210W        W28679   5.344   5.626  13.466  0.0033 -0.2249  0.2491
13211W        W28680   9.335   5.103  11.181  0.0960  0.0887 -0.0223
13212W        W28681   5.423   8.260  12.253 -0.3179  0.2879 -0.5252
13213W        W28682  14.798   0.520  15.167 -0.1266  0.0612 -0.2372
13214W        W28683  12.129   3.394   4.925  0.0130 -0.1128  0.2190
13215W        W28684  18.419  14.924  11.481  0.0439 -0.0244  0.1327
13216W        W28685   0.950   4.488   3.115  0.0145 -0.1614 -0.0226
13217W        W28686   7.661   7.658  11.894  0.0244  0.0614 -0.2743
13218W        W28687   4.244  17.986   5.700  0.0552 -0.0046  0.2623
13219W        W28688   6.602  17.301  15.694 -0.0915  0.0136 -0.0606
13220W        W28689  11.216  11.695  12.379  0.2389 -0.2156 -0.1147
13221W        W28690   6.421  15.927   4.533 -0.1264  0.1397 -0.2242
13222W        W28691   2.916   5.195   3.561  0.1114 -0.0284 -0.0961
13223W        W28692   5.774   9.444   1.859  0.4687  0.2016  0.0566
13224W        W28693   9.535   3.838   2.089  0.2128 -0.2546  0.0695
13225W        W28694   9.499  15.214  14.118  0.1157 -0.2310 -0.0166
13226W        W28695   7.545  14.021  13.383 -0.0835 -0.2067 -0.0815
13227W        W28696  18.132  16.229  14.812  0.3041  0.2080 -0.4336
13228W        W28697   9.257  16.934   5.599 -0.0985 -0.0311  0.1812
13229W        W28698  14.225  16.820   3.841 -0.1602  0.0537 -0.0386
13230W        W28699   9.623   3.387   1.494  0.0433 -0.1201  0.1538
13231W        W28700  15.085   9.301  14.374 -0.0212  0.2768 -0.2738
13232W        W28701  12.805   6.162   1.836 -0.1336 -0.0452 -0.0700
13233W        W28702   3.304   7.923  14.236  0.1046  0.1083 -0.0389
13234W        W28703   1.604  12.367  14.115 -0.4464  0.2600  0.1776
13235W        W28704   3.681  10.927  11.229  0.1508  0.1813 -0.1173
13236W        W28705  10.861   6.878   0.403  0.3691  0.2077  0.0450
13237W        W28706  17.547  16.074   2.960 -0.1944  0.0308 -0.1687
13238W        W28707  15.819   5.105   2.133 -0.0491 -0.0863 -0.0040
13239W        W28708   7.843   6.928   0.361 -0.2123 -0.0943  0.2182
13240W        W28709   4.310  18.216  14.302 -0.1140 -0.0698  0.0410
13241W        W28710  12.708  16.558   2.691  0.1429  0.0819 -0.1254
13242W        W28711  14.174   2.835  13.068  0.0511 -0.0534 -0.0815
13243W        W28712   0.328   4.285  11.443  0.0577  0.1779  0.2497
13244W        W28713   6.231   1.385  13.037 -0.0073  0.3736  0.0564
13245W        W28714  13.061   3.920   4.105 -0.0873 -0.0628 -0.0435
13246W        W28715  15.706   7.137  14.164  0.0581 -0.1606  0.0104
13247W        W28716   8.486   6.150  14.650  0.0180  0.1485  0.3252
13248W        W28717   5.061  15.317   2.922  0.0948 -0.1164 -0.2410
13249W        W28718  13.019   8.597  11.825  0.1135 -0.0150  0.1989
13250W        W28719   5.276   5.501   2.857 -0.0370 -0.1188  0.0956
13251W        W28720   9.336  10.285   2.341 -0.2973 -0.2425 -0.0784
13252W        W28721  16.635  16.495  13.269 -0.0089 -0.1084  0.0167
13253W        W28722   7.228   1.818  15.809 -0.3230 -0.1299  0.0792
13254W        W28723   3.123  10.171  13.249  0.0020 -0.0586  0.0026
13255W        W28724   8.057   8.381   0.294 -0.0857 -0.3041  0.0902
13256W        W28725   9.451   3.844  10.798 -0.1443 -0.3583  0.0567
13257W        W28726   5.593  13.356   0.533  0.0666 -0.0590  0.0460
13258W        W28727  10.617   0.093   3.870 -0.0973  0.3748 -0.1313
13259W        W28728   8.701   6.905   0.044 -0.0113  0.0984 -0.0880
13260W        W28729  14.607  14.258   6.028  0.2051 -0.0573 -0.1486
13261W        W28730   9.006   3.237  12.411  0.1539 -0.0319  0.1980
13262W        W28731   2.825   5.361  12.008 -0.1581  0.3810 -0.1014
13263W        W28732   5.646  12.298  11.832 -0.3616 -0.0941 -0.2937
13264W        W28733  15.914   8.971   0.956  0.1839  0.3247  0.1000
13265W        W28734  12.487  16.475  12.111  0.0635  0.1559 -0.1482
13266W        W28735   8.383   4.483   0.367 -0.0647  0.0399 -0.0093
13267W        W28736   4.953  11.778   9.667  0.1678 -0.1174  0.2253
13268W        W28737  14.420  13.876  10.746 -0.1673 -0.0239  0.1479
13269W        W28738  15.740  15.064   5.969  0.1848 -0.0323 -0.2832
13270W        W28739  17.177  14.741   2.735  0.2261  0.3193 -0.0491
13271W        W28740  11.861  18.110   6.600 -0.0233 -0.3543 -0.1096
13272W        W28741  13.386  17.510  12.017  0.3350 -0.1648  0.0348
13273W        W28742   1.457   2.442  11.286 -0.0175  0.1039  0.1078
13274W        W28743  16.593  12.683  15.500  0.1861 -0.3236  0.1557
13275W        W28744   5.340  11.909   0.019  0.0706 -0.1176 -0.2760
13276W        W28745  13.300   2.798  14.024 -0.0829  0.2047  0.1737
13277W        W28746  11.229  13.301   3.844  0.3994 -0.2005  0.0761
13278W        W28747  15.731  17.448  14.187  0.0455  0.0480  0.0659
13279W        W28748   2.215  16.214   1.326  0.1629 -0.1169  0.0814
13280W        W28749  17.256  10.829  14.733 -0.0926  0.2526  0.2160
13281W        W28750  14.277   5.172  14.177 -0.0597 -0.3156  0.1058
13282W        W28751  10.073  12.905   2.142 -0.0423 -0.4173  0.3036
13283W        W28752  17.416  16.429  13.540  0.0995 -0.1443 -0.3812
13284W        W28753   6.177  14.454   3.787  0.0352 -0.1612 -0.1366
13285W        W28754   9.730   1.118  11.559 -0.0390 -0.0158  0.2856
13286W        W28755  17.950   5.722  11.270 -0.0540  0.0782  0.2043
13287W        W28756  14.167  16.735  15.212  0.3717 -0.1570 -0.2978
13288W        W28757   1.437  10.126  14.861  0.1685 -0.2253  0.0696
13289W        W28758   0.208   0.359   0.861 -0.0283  0.3659  0.3258
13290W        W28759   2.799   5.452   4.804  0.3059  0.1500  0.1829
13291W        W28760   4.601  14.283   2.473 -0.0651  0.0627  0.1176
13292W        W28761  11.968   4.070   0.699  0.1541 -0.3902 -0.1230
13293W        W28762   8.869  16.729  15.160  0.2554  0.2574 -0.0134
13294W        W28763  10.669  12.328  10.978  0.4883 -0.2056 -0.1185
13295W        W28764   8.569   7.812  13.635 -0.3361  0.2139  0.0975
13296W        W28765  12.958  15.197   3.383 -0.0661 -0.2791  0.1149
13297W        W28766   6.900   5.644   5.082  0.1394  0.4331 -0.0259
13298W        W28767   2.188   3.520   3.442 -0.1957  0.0617  0.2284
13299W        W28768  15.947   0.642  13.804  0.3957  0.2663 -0.0612
13300W        W28769   9.400  18.230  12.067  0.1339  0.2466 -0.0739
13301W        W28770   1.544   9.030   0.622  0.0562 -0.0417  0.4993
13302W        W28771  10.800   4.105   4.492 -0.2602 -0.1010  0.2833
13303W        W28772   9.448   8.976  11.411  0.0417 -0.0160 -0.3556
13304W        W28773  17.602   1.796   2.758  0.0240 -0.0937 -0.2626
13305W        W28774  16.531  16.850  11.529 -0.1599  0.2402 -0.1268
13306W        W28775  13.011   3.977   1.050 -0.4399 -0.3522 -0.0744
13307W        W28776  14.898   5.089   3.173 -0.2662  0.0308  0.3009
13308W        W28777  10.963  13.776  12.363  0.0780  0.0475 -0.2940
13309W        W28778  12.157  14.543  15.680 -0.2938  0.2055 -0.0333
13310W        W28779  14.135  15.916  13.797 -0.1341 -0.1099 -0.0938
13311W        W28780   8.136  12.802  10.950 -0.1354  0.0310 -0.1443
13312W        W28781   3.517  18.282  13.255  0.0047 -0.2193  0.1247
13313W        W28782  11.112   4.895   0.589  0.0787  0.0280 -0.0036
13314W        W28783  14.089  14.590  10.884  0.2459  0.0290 -0.0272
13315W        W28784  17.989  18.352  12.784  0.1209 -0.0739 -0.1235
13316W        W28785  14.565  14.397  15.834 -0.2591  0.0368 -0.0990
13317W        W28786  15.139   0.773   2.726 -0.1684  0.1447 -0.0957
13318W        W28787   3.985   7.181  12.792 -0.1016 -0.4598  0.2318
13319W        W28788   5.437   9.438   4.778  0.0485  0.2544 -0.2031
13320W        W28789   6.686  17.797   5.903 -0.0246 -0.1745  0.4895
13321W        W28790  15.349  13.417   3.836 -0.1935  0.0136  0.2136
13322W        W28791  15.178   2.931  12.158  0.2795 -0.0517 -0.1947
13323W        W28792  13.326   1.077  14.910 -0.0576  0.0878 -0.1381
13324W        W28793  10.438   6.969  11.938  0.0685  0.2116  0.1534
13325W        W28794  14.608  13.939   3.783 -0.1799 -0.1648  0.0508
13326W        W28795   7.350  12.254   5.086  0.0050  0.0709  0.2581
13327W        W28796   8.611  14.910  13.655  0.2332 -0.1108  0.1124
13328W        W28797   0.760   7.464   4.699  0.2088 -0.1863 -0.0362
13329W        W28798   9.596  11.976  12.349 -0.1920  0.1797  0.0054
13330W        W28799   1.814  16.805  13.678  0.2151  0.1065  0.0746
13331W        W28800   9.809   3.638   3.861 -0.1494 -0.2333  0.0500
13332W        W28801  14.421  10.739   3.578 -0.1470 -0.2552 -0.2505
13333W        W28802  10.898  16.230   5.296  0.2618  0.1491  0.0301
13334W        W28803  15.794   4.320   1.947 -0.2771  0.2807  0.0472
13335W        W28804  14.869  18.402  13.685 -0.0604  0.1965 -0.0020
13336W        W28805   9.196   2.142  15.778 -0.2927  0.1870 -0.1779
13337W        W28806   4.553   4.481  13.990 -0.0057  0.1015  0.2037
13338W        W28807  17.514  17.735   0.743 -0.1174  0.1022 -0.0441
13339W        W28808   8.371   8.930  12.858 -0.1133 -0.4042  0.1579
13340W        W28809   4.601   2.658  10.941 -0.0769  0.0226 -0.1334
13341W        W28810  17.698   4.574  12.440  0.2153  0.0625 -0.0208
13342W        W28811   8.848   5.339  11.548 -0.0069  0.2284  0.1229
13343W        W28812   9.260   4.641   0.443 -0.1166 -0.0912 -0.0918
13344W        W28813  10.654  10.489  14.123  0.0996 -0.2651 -0.1136
13345W        W28814  12.300   5.162   4.630  0.4528  0.0506  0.0539
13346W        W28815   8.694  15.709   3.027 -0.0718  0.2483  0.6397
13347W        W28816  16.709   7.564   1.637 -0.2339  0.0945  0.0079
13348W        W28817   6.993   0.525  11.144  0.0381  0.0812 -0.1989
13349W        W28818   9.732   1.383   0.118 -0.0551  0.3742 -0.1213
13350W        W28819   5.079   7.805   1.295 -0.0433  0.3762 -0.1444
13351W        W28820   8.886   6.296   0.952 -0.0476 -0.2510 -0.0597
13352W        W28821   0.872   1.273  15.089  0.3429  0.1061  0.0605
13353W        W28822  11.028  10.590   3.708 -0.1531  0.0957  0.2299
13354W        W28823   1.233  16.180  14.202  0.0936 -0.1468  0.1762
13355W        W28824   9.386  18.395   5.350  0.2754 -0.0640  0.1822
13356W        W28825   6.365  11.803   3.277  0.0965  0.3249 -0.0942
13357W        W28826   7.152   5.972   4.712  0.2934 -0.0725 -0.1587
13358W        W28827  14.198  18.112   3.864  0.0494 -0.1372 -0.1603
13359W        W28828  13.526  15.691  14.698  0.0142 -0.1126  0.1545
13360W        W28829  13.408  13.195  15.731  0.1201 -0.1010  0.3334
13361W        W28830   0.624  13.283   1.473  0.2766  0.0722 -0.3266
13362W        W28831   3.373  16.839   0.039 -0.1741 -0.3569 -0.1026
13363W        W28832   1.795   1.442   4.475  0.0644 -0.0571  0.0053
13364W        W28833   9.281   0.033  15.751 -0.1158  0.1543 -0.0626
13365W        W28834   6.627   6.663   2.429 -0.0565  0.0482 -0.0765
13366W        W28835   4.403   8.488  10.794  0.2582  0.0044  0.0899
13367W        W28836  16.718  17.134  12.018 -0.0589  0.3023 -0.2077
13368W        W28837  13.632   6.267  12.149 -0.2397 -0.0780 -0.1218
13369W        W28838   7.848   4.237  12.014  0.0803 -0.6148  0.3677
13370W        W28839   5.273   3.363  14.003 -0.0252 -0.1581 -0.1759
13371W        W28840  12.038   1.896   0.208  0.0492 -0.0373  0.1095
13372W        W28841   8.275   0.046   4.738 -0.1836  0.4160  0.3639
13373W        W28842   0.899   6.651  12.292 -0.0784  0.0195 -0.1004
13374W        W28843  14.973   4.418  12.903  0.0868  0.3081 -0.1246
13375W        W28844   8.518   1.478   0.236 -0.2552  0.1457  0.0205
13376W        W28845   4.205  14.414   4.828  0.2882 -0.0988 -0.0199
13377W        W28846  17.602  15.206  12.730 -0.0418  0.3038  0.0103
13378W        W28847   9.595  16.667  13.409  0.4343 -0.0978  0.1687
13379W        W28848  16.548   5.344   9.769  0.2204 -0.1706 -0.3483
13380W        W28849   0.002  11.703   0.801  0.1601  0.1443  0.4349
13381W        W28850   0.397  18.413   3.442  0.0270  0.1305 -0.0897
13382W        W28851   4.956  14.476  13.797  0.0360  0.4637  0.1294
13383W        W28852   0.749   7.375   3.314  0.0202  0.0477 -0.0741
13384W        W28853   5.750   0.868  14.483  0.2455 -0.1339 -0.2355
13385W        W28854   0.582  18.447  11.955 -0.0710 -0.1570 -0.0415
13386W        W28855  15.452   0.783   4.970  0.0320 -0.1711  0.0237
13387W        W28856   3.582  14.376   1.130 -0.1890 -0.0244 -0.0914
13388W        W28857   1.283  15.016  13.704 -0.2646  0.0754 -0.0557
13389W        W28858  17.446  12.556   4.257 -0.0271 -0.1392  0.3084
13390W        W28859   9.789  17.172   1.743  0.1067  0.1364  0.1085
13391W        W28860  17.715  12.155   4.335  0.1161 -0.2485  0.2623
13392W        W28861  10.854   0.116   1.897 -0.3071  0.1795 -0.3615
13393W        W28862   3.561  18.305  14.669 -0.0677  0.0206  0.1163
13394W        W28863   2.620   1.559   2.076  0.2477 -0.1842  0.0959
13395W        W28864  15.452  18.291  14.024  0.0770  0.1289  0.1190
13396W        W28865   3.553   5.660  11.667 -0.1587  0.0395  0.0235
13397W        W28866   9.146   1.633   5.034 -0.3583 -0.0889  0.0833
13398W        W28867  16.104   2.620  15.784  0.0868 -0.1406 -0.0370
13399W        W28868  17.984   0.221   4.934  0.1780  0.0007 -0.0368
13400W        W28869   6.660   6.752   9.876  0.0928  0.1848  0.2840
13401W        W28870  13.509  14.609  13.487  0.0940  0.2625 -0.0065
13402W        W28871   0.603   1.396   3.130 -0.0005  0.1456  0.2477
13403W        W28872   3.154  14.803  13.851 -0.1604 -0.0129  0.2940
13404W        W28873   4.961   2.047  15.158  0.0585 -0.5440 -0.2195
13405W        W28874  11.856  16.802  14.024 -0.2109 -0.2992  0.1405
13406W        W28875  10.067  11.057  12.086 -0.3237  0.0933 -0.0913
13407W        W28876  11.706  17.016  11.771  0.0732  0.3062 -0.3333
13408W        W28877  16.880   7.442  15.816  0.0639  0.0723 -0.1591
13409W        W28878   0.785   6.245   1.086 -0.1258 -0.0067  0.1439
13410W        W28879   2.832   2.265   0.314 -0.0929  0.3455 -0.1178
13411W        W28880  11.063  13.422   1.457 -0.3568 -0.2968 -0.2808
13412W        W28881   9.403   1.439  12.516  0.0376 -0.0993 -0.2067
13413W        W28882  16.591   9.867  13.666  0.3600  0.0171 -0.2424
13414W        W28883  14.934   1.905   0.201  0.0838 -0.2046  0.2747
13415W        W28884   4.378   4.265   0.920 -0.2905  0.1062 -0.0278
13416W        W28885  15.478   5.035  14.586  0.2087  0.0804  0.0897
13417W        W28886  10.076   6.656  15.651 -0.2387  0.0441 -0.1272
13418W        W28887  11.470   0.662   4.706 -0.1939 -0.4993  0.2047
13419W        W28888   2.467  12.366  15.109  0.2408  0.3348 -0.2755
13420W        W28889   5.978   1.492   1.387 -0.0610  0.0624 -0.2270
13421W        W28890   6.682   7.194   5.042 -0.0540 -0.3819  0.1413
13422W        W28891   3.357  10.769  12.642 -0.2870 -0.1000  0.0005
13423W        W28892  10.615   9.095   0.534 -0.0267  0.1533 -0.2558
13424W        W28893  12.311   1.235   3.909 -0.0781  0.0828 -0.1611
13425W        W28894  10.194   3.970  10.697  0.0749 -0.3172  0.0997
13426W        W28895   1.912  10.650  15.363 -0.0620 -0.1500 -0.0118
13427W        W28896   5.124   8.517   2.641 -0.0078  0.0775 -0.0904
13428W        W28897  14.624   8.550  12.733 -0.0435 -0.1648  0.1854
13429W        W28898   6.908  17.513  12.858 -0.0541 -0.0927 -0.3000
13430W        W28899  12.765   4.755  11.231 -0.2035 -0.3294  0.1976
13431W        W28900  15.353   5.933  12.237 -0.0479 -0.3018  0.2587
13432W        W28901   6.796  10.934  13.462  0.3969 -0.0346  0.2235
13433W        W28902   6.401  15.705   0.364 -0.1197 -0.1251 -0.0105
13434W        W28903   8.547  18.431  12.370  0.2466 -0.2941  0.0950
13435W        W28904   0.172   6.625  12.797  0.0739  0.2872  0.0865
13436W        W28905   7.843   1.360   4.278  0.1499 -0.1315  0.0824
13437W        W28906   5.195  13.759  11.740 -0.1075 -0.0415  0.0864
13438W        W28907  15.663  12.561   0.024 -0.2186  0.0168 -0.2003
13439W        W28908   9.473  11.024   2.877  0.2619 -0.2508 -0.0514
13440W        W28909   4.161  10.644  14.097 -0.1091 -0.2287  0.1769
13441W        W28910  12.982   5.605  11.105  0.1986  0.0623  0.1618
13442W        W28911   8.877   0.316  14.332 -0.1183 -0.3012  0.2235
13443W        W28912   6.660  17.623  12.379  0.2833  0.0612 -0.2490
13444W        W28913   6.033  15.531   2.856 -0.0940  0.3327  0.1602
13445W        W28914   0.989   7.505  13.287 -0.2657 -0.1199  0.1617
13446W        W28915   7.352   9.517  14.632  0.0807  0.2195 -0.1319
13447W        W28916  12.467   4.637  15.530  0.2780  0.1888 -0.0988
13448W        W28917  12.288   1.831  12.961 -0.1546 -0.0158  0.1766
13449W        W28918  12.654  13.382   3.301  0.1266  0.0727  0.1586
13450W        W28919  17.549   7.847   4.237  0.1720 -0.1829  0.3190
13451W        W28920  14.042  10.096  11.671  0.0319  0.1590  0.2150
13452W        W28921  17.490   0.402   4.966 -0.1965  0.1711  0.0361
13453W        W28922   0.989   6.357   2.133 -0.1381 -0.0732 -0.2534
13454W        W28923   0.928   7.494   0.105 -0.3791  0.2501  0.2410
13455W        W28924  10.268   1.577   5.640 -0.0710 -0.2548 -0.4280
13456W        W28925  12.951  17.904   2.633  0.3695  0.0490  0.2241
13457W        W28926   1.470  11.233  11.837 -0.0441 -0.0043 -0.0176
13458W        W28927   9.158   7.603  11.982 -0.0578 -0.4280  0.2407
13459W        W28928   8.414   6.129   4.954  0.0311 -0.1109 -0.2020
13460W        W28929   0.387  15.704   4.905  0.0898 -0.3177  0.2482
13461W        W28930  13.212   2.677  14.510  0.1527 -0.1621  0.0450
13462W        W28931   5.552   3.588   0.943  0.3333  0.2480 -0.1217
13463W        W28932   2.848   1.119   2.165 -0.2337 -0.2193 -0.0648
13464W        W28933  14.130  15.102  11.772 -0.1273 -0.1164  0.0080
13465W        W28934  10.155   2.808  14.569  0.0225  0.2815 -0.0019
13466W        W28935   4.137  10.175  12.538  0.0016 -0.0455 -0.0402
13467W        W28936  16.465  10.605  11.189 -0.2432  0.3337 -0.1727
13468W        W28937   1.810  14.965  11.282 -0.0941  0.0123  0.2756
13469W        W28938  14.067  13.276   0.772  0.0698  0.1301 -0.2104
13470W        W28939  11.157   9.935  11.919 -0.0821  0.0802  0.2686
13471W        W28940  15.496  12.861  11.007 -0.1140 -0.0642 -0.0003
13472W        W28941  11.643   0.622  12.170  0.2364  0.1735  0.2684
13473W        W28942   5.396   9.884   5.013 -0.0555  0.0767 -0.1612
13474W        W28943   3.740   7.155  10.893 -0.0695 -0.0660  0.0420
13475W        W28944   6.226   1.248  15.345  0.0423  0.2122  0.0902
13476W        W28945   3.080   2.477  15.247  0.1034 -0.3817  0.0803
13477W        W28946   3.383  12.886   4.163  0.1067  0.1553  0.2105
13478W        W28947   2.375  11.569   5.387  0.0531  0.1664 -0.2633
13479W        W28948   9.221   1.384  14.579 -0.3235 -0.1028  0.3840
13480W        W28949  17.195  16.765   3.324 -0.1721 -0.2400 -0.3296
13481W        W28950   3.353  16.025   9.917 -0.1995  0.1236 -0.2691
13482W        W28951   0.707   0.040   5.816 -0.0790 -0.2267  0.0482
13483W        W28952   8.120   2.336  13.102 -0.1323 -0.2950  0.2606
13484W        W28953   9.359   7.262   0.299  0.0564 -0.0836  0.1291
13485W        W28954   2.862   9.115  11.138  0.2766  0.0632 -0.1541
13486W        W28955  13.605   5.422   1.646 -0.1406  0.0743 -0.2967
13487W        W28956  15.794  10.363   2.082 -0.1909  0.0112 -0.0863
13488W        W28957  16.335   2.077  11.269 -0.0120 -0.1805 -0.2404
13489W        W28958  13.738  16.787   4.981  0.0057 -0.0462 -0.3867
13490W        W28959   1.302   3.916   4.362  0.2970  0.1448  0.0815
13491W        W28960   7.430   9.213   3.475  0.3175 -0.1160 -0.2497
13492W        W28961   7.583  11.776   3.514  0.1708 -0.0371  0.4761
13493W        W28962  16.478   6.626   9.891 -0.0128 -0.0911  0.0689
13494W        W28963   1.573  12.703   0.437 -0.0715  0.2234 -0.1651
13495W        W28964  14.579   9.874   5.088  0.0769 -0.1845 -0.3699
13496W        W28965  16.774  11.754  13.000  0.1544 -0.2177  0.1289
13497W        W28966  10.300   8.566   2.493 -0.0794 -0.0636 -0.0232
13498W        W28967   7.418  12.236   3.415 -0.0448 -0.0968  0.0701
13499W        W28968   8.597   4.515   5.162 -0.0332 -0.1971  0.2091
13500W        W28969  18.353  17.946   5.804  0.1532 -0.2121  0.1749
13501W        W28970  14.379   3.807   3.425  0.0408 -0.3587 -0.1361
13502W        W28971   1.353   4.659   0.906 -0.3090 -0.1809  0.3832
13503W        W28972  16.087  17.156  14.945  0.1419 -0.2436 -0.0985
13504W        W28973   1.641   7.729   0.674  0.0231  0.1957  0.0742
13505W        W28974   5.326   4.439   9.808  0.1607  0.1014 -0.2203
13506W        W28975  17.265  13.340  13.805  0.1742 -0.0044  0.0267
13507W        W28976  17.126  12.613  13.533  0.0441 -0.1985  0.1346
13508W        W28977   4.496  18.404   6.029  0.1190  0.0302  0.1561
13509W        W28978  14.456   6.091  14.484  0.0028 -0.0255  0.2026
13510W        W28979  17.311  15.808  11.648 -0.3459 -0.1416  0.0954
13511W        W28980  10.646   2.677   4.651 -0.1603 -0.0155  0.1408
13512W        W28981  11.965  14.871  11.828 -0.1097  0.1177  0.2125
13513W        W28982   2.913  16.002   4.436 -0.1156 -0.0894 -0.0454
13514W        W28983   2.225   0.060  15.181 -0.1214 -0.2593 -0.2433
13515W        W28984   7.874  14.198   3.815  0.3135 -0.2923 -0.0120
13516W        W28985   4.472   8.151   3.997  0.2253 -0.2938 -0.0311
13517W        W28986  10.319   6.102  13.173  0.0225  0.1851 -0.0749
13518W        W28987  15.472   4.480  12.742  0.0371  0.0161  0.0056
13519W        W28988  15.312   7.690  11.371  0.1295  0.2828  0.1794
13520W        W28989   2.164  11.701   4.929  0.0360  0.1654 -0.0971
13521W        W28990   3.779   5.846   1.088 -0.0778 -0.1916  0.2919
13522W        W28991  13.353   4.009  13.305 -0.0151 -0.1934  0.0477
13523W        W28992   6.079  13.519   4.744  0.2738 -0.2637  0.2202
13524W        W28993   3.265   2.941  10.788 -0.0002 -0.4154  0.0631
13525W        W28994  12.924   0.063   4.173 -0.2325  0.1036  0.0101
13526W        W28995  11.344  14.165  11.313  0.1261  0.2020 -0.0060
13527W        W28996   6.028   8.784  14.619 -0.0654  0.2493  0.0852
13528W        W28997   8.337  13.905   4.932  0.0619  0.0343 -0.0889
13529W        W28998   8.493  16.674   3.182 -0.0883 -0.1984  0.2059
13530W        W28999   2.723   3.443  13.307 -0.3358  0.1359  0.3126
13531W        W29000   1.469   5.825   1.821 -0.0626  0.0805  0.6880
13532W        W29001   5.921  10.956   2.872 -0.0361  0.0618  0.2643
13533W        W29002   5.309   8.957   4.908 -0.0686  0.2550  0.2443
13534W        W29003   2.642   9.054  12.667  0.1266 -0.1673 -0.2743
13535W        W29004   0.387  13.815   0.159  0.1941  0.4535 -0.2309
13536W        W29005  14.570  12.100   0.793  0.0474 -0.1981 -0.3094
13537W        W29006   7.964   9.480  11.673  0.1050  0.3357 -0.0771
13538W        W29007  14.475  16.624   2.881 -0.0379  0.2996  0.3070
13539W        W29008  14.896   5.484   9.858 -0.0100  0.1892  0.1119
13540W        W29009   2.928   0.262  11.668 -0.1543 -0.0385  0.2286
13541W        W29010   7.673  14.939   1.110 -0.0836 -0.1591 -0.2879
13542W        W29011   6.734   7.340  13.635 -0.1651  0.0263  0.1688
13543W        W29012  14.269   4.988  15.883  0.1536 -0.2191  0.1511
13544W        W29013  12.580   5.870  13.648  0.0338  0.0582  0.0044
13545W        W29014   6.241  18.317   5.180 -0.2959 -0.1048  0.4259
13546W        W29015   2.209   2.572  14.911  0.2130  0.3850 -0.0848
13547W        W29016   1.571  16.176   4.745 -0.1811  0.1920  0.0445
13548W        W29017  13.308   4.443   2.436  0.0435  0.1998  0.0353
13549W        W29018  12.117   0.628   3.722 -0.0470 -0.1650 -0.2789
13550W        W29019   9.285   5.659  14.987  0.1494  0.0511  0.0662
13551W        W29020   6.714  15.035  13.953  0.2456 -0.0701  0.5008
13552W        W29021   9.348  11.074  13.829  0.2927  0.1171 -0.2249
13553W        W29022  15.423   4.181  12.324 -0.0574  0.2251  0.2483
13554W        W29023   4.470   4.125   5.522  0.3442 -0.1987  0.0005
13555W        W29024   8.262   8.981  13.463 -0.2113 -0.0981  0.0673
13556W        W29025   0.328   7.728   3.280 -0.0075  0.0763  0.0193
13557W        W29026   2.300  16.988  13.413  0.1050  0.0829 -0.0650
13558W        W29027  12.265   5.785   4.812  0.2066  0.1331  0.1360
13559W        W29028   0.487  16.139  14.715 -0.2170 -0.2185 -0.1501
13560W        W29029   9.788   4.860  10.863  0.0987  0.0475  0.3011
13561W        W29030  17.392   7.829   2.114 -0.2261 -0.2461 -0.0494
13562W        W29031   8.919   2.078   5.791  0.1901 -0.1222 -0.0071
13563W        W29032  13.194  13.940  11.468 -0.1524  0.1078  0.0440
13564W        W29033   7.616   8.792  15.434 -0.0648  0.1568  0.3626
13565W        W29034  10.208   9.320  12.621  0.0534 -0.4722  0.0916
13566W        W29035   9.759  17.532  14.497  0.0858  0.2415  0.0921
13567W        W29036  12.842   6.188   1.246 -0.2898 -0.0095  0.1844
13568W        W29037  12.398   4.284  13.595  0.1753 -0.0267  0.0849
13569W        W29038  16.306  16.767  15.719 -0.1024  0.3849 -0.4425
13570W        W29039   8.541   4.026  13.034 -0.0509 -0.0389 -0.0477
13571W        W29040   9.114   4.883  14.468  0.0691 -0.2890 -0.0029
13572W        W29041   0.776  16.080   4.825  0.1157  0.2884 -0.1886
13573W        W29042   1.760   3.756  13.083 -0.0279  0.0378 -0.0968
13574W        W29043   1.395  14.608  11.481 -0.0904  0.0540 -0.2195
13575W        W29044  13.608   4.079  14.290  0.0571  0.0546  0.0287
13576W        W29045  13.676  13.688   5.772  0.2283 -0.0039 -0.0885
13577W        W29046   2.556  15.109   4.359 -0.0844 -0.1414  0.0283
13578W        W29047  12.362   9.854  14.764  0.0514 -0.2655  0.0260
13579W        W29048  12.372  11.142   0.454 -0.0406  0.0094 -0.0483
13580W        W29049   3.744  17.774   4.764  0.1897 -0.0992 -0.0990
13581W        W29050   3.409  17.163  14.726  0.1741  0.0641  0.0892
13582W        W29051  17.918   1.521   9.798 -0.0212  0.1673 -0.0714
13583W        W29052   3.396   7.977  13.268 -0.0255  0.0259  0.2730
13584W        W29053   5.889   2.653   4.533  0.1975  0.1226 -0.1194
13585W        W29054  14.370   3.198  13.314  0.2840  0.1027  0.1387
13586W        W29055   2.424  17.912   4.978  0.2511  0.0636  0.1900
13587W        W29056  16.589  15.765   6.034  0.0191 -0.3517  0.1633
13588W        W29057  13.441   6.103   0.256  0.2182 -0.0457  0.1399
13589W        W29058  17.593   5.065   2.600  0.0429  0.0854  0.0019
13590W        W29059   8.571  13.714   5.930 -0.0864  0.0592 -0.1350
13591W        W29060   6.401  11.836   5.561 -0.2590 -0.2503  0.0646
13592W        W29061   3.065   3.892   2.421 -0.2441  0.3129 -0.2477
13593W        W29062  17.022   2.164  14.018  0.3089  0.1199  0.0140
13594W        W29063   0.817   5.745   2.384 -0.0579  0.0252 -0.0947
13595W        W29064  17.047  14.955   3.204 -0.0475  0.1240 -0.2480
13596W        W29065   9.361  11.964  14.356  0.0976  0.0019  0.1198
13597W        W29066  13.384  15.334  13.997  0.0917  0.2893 -0.1205
13598W        W29067  10.383   8.076   1.170  0.0264  0.0294  0.1663
13599W        W29068  10.404   8.788  10.711 -0.2129  0.2079  0.0338
13600W        W29069   5.385   6.339   0.645 -0.3326  0.0719 -0.0039
13601W        W29070   5.749  14.925  11.272 -0.0449 -0.0656 -0.2836
13602W        W29071  17.544  17.228  13.215 -0.0849  0.2513  0.0775
13603W        W29072  11.245   4.277   3.348  0.1627 -0.0178 -0.0637
13604W        W29073   1.159   1.832  13.729 -0.2192  0.0256  0.1948
13605W        W29074   5.566  13.127   1.701  0.0738  0.2893  0.3314
13606W        W29075   1.665  17.977  12.682 -0.3444  0.1113  0.3353
13607W        W29076   3.809  14.315  14.994  0.0521 -0.1673 -0.1674
13608W        W29077   1.714  14.790  12.626 -0.0396  0.1023 -0.1445
13609W        W29078   9.200  17.830   3.663  0.0424 -0.1760  0.2337
13610W        W29079  13.381   6.607  12.742  0.0182 -0.0431 -0.3446
13611W        W29080   5.134   5.132  13.227 -0.2192  0.2800  0.4065
13612W        W29081  14.836   2.240  11.509  0.0167 -0.1373  0.0322
13613W        W29082   4.361   1.356  11.587 -0.2473 -0.2738 -0.1462
13614W        W29083  10.295  13.678  15.864 -0.0005 -0.0057 -0.0644
13615W        W29084   0.904  17.703   4.007 -0.3799 -0.1185 -0.2839
13616W        W29085  16.300   4.612  12.079 -0.3739  0.3077  0.1675
13617W        W29086   6.108   3.255  10.944  0.2565 -0.0083  0.0139
13618W        W29087  15.737   8.976   0.497  0.1501 -0.0878  0.2270
13619W        W29088  13.530   1.908   3.626 -0.2298  0.0888  0.0307
13620W        W29089   1.838  11.364   4.149  0.1149 -0.1606 -0.2920
13621W        W29090  16.347   5.669   1.963 -0.2132  0.0081  0.0812
13622W        W29091  11.864  12.854  11.064  0.1367  0.1842  0.2748
13623W        W29092  16.970   1.622  15.024  0.2790  0.4889 -0.3149
13624W        W29093  11.782   5.338   0.152 -0.0364 -0.0020 -0.3030
13625W        W29094   2.010   8.358  10.404 -0.2387 -0.0879 -0.3453
13626W        W29095  11.836  16.310   4.110 -0.2487 -0.1260  0.1711
13627W        W29096   6.390  16.469   1.396 -0.1786  0.0559  0.1755
13628W        W29097   2.173  16.221  14.579 -0.0677  0.3601 -0.1930
13629W        W29098  10.260  10.110  15.137  0.3813  0.4584 -0.0793
13630W        W29099   9.281   0.217  12.857  0.1221 -0.4749 -0.3118
13631W        W29100  14.223  15.953   0.208 -0.3554  0.0576 -0.1049
13632W        W29101  11.605  15.057  11.432 -0.1698 -0.1284  0.0608
13633W        W29102   6.957  11.221  11.258 -0.1092 -0.1213  0.1698
13634W        W29103   6.706   3.476   0.194  0.0371  0.3399 -0.2618
13635W        W29104  10.061  14.569   4.293  0.0174 -0.2218 -0.0677
13636W        W29105   4.161  10.112   1.475  0.1031 -0.0431 -0.1617
13637W        W29106  14.559  13.050   3.465 -0.1916 -0.1374  0.0550
13638W        W29107  14.472   1.451   0.226 -0.0293  0.1128 -0.2956
13639W        W29108   6.425  14.258  11.443  0.0826 -0.1392 -0.6390
13640W        W29109   2.384   2.536  13.444  0.3440 -0.2366 -0.2834
13641W        W29110   3.505   7.041   4.271 -0.0013 -0.0375 -0.1700
13642W        W29111  12.853   6.031   3.541 -0.0735  0.1050 -0.1383
13643W        W29112   3.734  13.651  10.182 -0.1400 -0.0276 -0.2010
13644W        W29113   4.351   6.888  14.718 -0.0094 -0.2677  0.1124
13645W        W29114   5.481   8.138   0.571 -0.1018  0.4221 -0.2451
13646W        W29115   7.584   6.550   2.166 -0.2478  0.2017 -0.1042
13647W        W29116  13.611   1.213  11.139 -0.2517  0.4387 -0.0016
13648W        W29117   4.221   7.309  11.837  0.0213  0.0244  0.1600
13649W        W29118   0.334   6.959   3.315  0.3767  0.2245  0.1622
13650W        W29119  17.566   4.722   2.947  0.3207 -0.0702 -0.1396
13651W        W29120   5.612   6.176   5.081  0.1065 -0.0668  0.1750
13652W        W29121  10.697   9.297   1.089 -0.1097  0.1128 -0.1672
13653W        W29122   2.986  11.314  13.994 -0.1189 -0.0484  0.0874
13654W        W29123  17.582  16.520   4.762  0.1165 -0.2027  0.0327
13655W        W29124   3.219   3.436  14.775 -0.2960  0.1237  0.0588
13656W        W29125   9.275   1.446   3.678 -0.1586 -0.1121  0.0840
13657W        W29126  14.327  15.602   0.631 -0.1390  0.0972  0.4292
13658W        W29127  17.288   5.588  14.184 -0.5200 -0.0265 -0.0835
13659W        W29128  10.638   3.298  15.709 -0.1742  0.0864  0.2476
13660W        W29129   2.790  15.365   0.332  0.1796  0.3591  0.3012
13661W        W29130   5.645  13.890  13.262  0.3025 -0.3495  0.0366
13662W        W29131  10.503   3.248  14.194 -0.0951 -0.0618  0.0071
13663W        W29132  16.982  11.336  11.509 -0.0173  0.0751  0.1659
13664W        W29133   8.213  12.791   3.112  0.0043  0.0402  0.3100
13665W        W29134   1.069   9.658   5.028 -0.2489 -0.2528  0.0380
13666W        W29135   6.524   7.174   1.434 -0.0085  0.1522  0.1685
13667W        W29136   7.103   0.491   4.479  0.0743  0.3780  0.0834
13668W        W29137  16.595  13.304   3.892  0.0893  0.1875  0.0031
13669W        W29138  17.592  14.350   4.613 -0.0779  0.1714  0.0563
13670W        W29139   3.062  18.239   3.667 -0.2529 -0.1764 -0.1595
13671W        W29140   9.501   7.773  13.839  0.1691 -0.1254  0.3427
13672W        W29141   6.783   3.955  11.322  0.3412  0.1103 -0.1437
13673W        W29142  17.561  10.097  13.330 -0.2554  0.0207  0.2145
13674W        W29143   5.377  11.356   4.588 -0.0066 -0.0856  0.0646
13675W        W29144  16.947   8.736   1.718  0.3066  0.1400 -0.0858
13676W        W29145   5.559   7.206  10.887 -0.5624 -0.0287  0.1668
13677W        W29146   6.754  16.717  12.757  0.2999  0.0983 -0.0542
13678W        W29147   5.293  13.216   1.299  0.1731  0.0291  0.0533
13679W        W29148   8.025  11.428   0.104  0.1084 -0.0755 -0.1069
13680W        W29149   9.218   6.037  15.690 -0.1700 -0.1108  0.0372
13681W        W29150   5.088  14.997  13.284  0.0193  0.0488 -0.5857
13682W        W29151  15.234   4.948   4.398  0.1264 -0.0864  0.2947
13683W        W29152  11.030  16.014   0.139 -0.1709 -0.0134 -0.1523
13684W        W29153   4.948   3.778   0.838 -0.2287  0.0449  0.0217
13685W        W29154   6.698   9.596  13.340  0.2252 -0.0771  0.0937
13686W        W29155   0.514  12.474   2.505  0.0908 -0.1559 -0.0518
13687W        W29156  16.884   2.158  15.573  0.1305 -0.0683 -0.2958
13688W        W29157  10.445   1.699  11.005  0.0265 -0.0012 -0.0220
13689W        W29158  13.331  10.505   3.832 -0.2100  0.0977 -0.3809
13690W        W29159  13.556   5.301   8.986  0.1047  0.2518  0.2111
13691W        W29160   9.149   3.551   0.884 -0.0851 -0.1874  0.1170
13692W        W29161   8.883   8.435   1.849  0.2247 -0.1362 -0.1817
13693W        W29162  16.001  13.361   3.900  0.1936  0.0596 -0.0398
13694W        W29163   6.151   1.108   1.673 -0.2732 -0.1574  0.2554
13695W        W29164   5.397   3.840   4.743 -0.0311  0.2603  0.0377
13696W        W29165   9.404  16.117  14.700  0.1674  0.1328  0.1170
13697W        W29166   4.982  11.642  11.347 -0.2268 -0.0338 -0.0527
13698W        W29167   0.680  12.115   0.483  0.2472 -0.3904 -0.0854
13699W        W29168   9.347  12.821  14.969  0.0410  0.2808 -0.1023
13700W        W29169  16.872   7.956  13.488  0.0783  0.1854 -0.1953
13701W        W29170  15.946   1.711   3.795 -0.1556  0.1363 -0.1225
13702W        W29171   8.506   0.451   5.060 -0.2847  0.2001  0.1204
13703W        W29172  11.064   5.287   5.108  0.2775 -0.0531  0.0407
13704W        W29173   4.042   8.316  11.114 -0.1951 -0.1684  0.1143
13705W        W29174   6.783   1.087   2.379 -0.0248 -0.0366  0.1328
13706W        W29175   5.474  14.108   4.956  0.3484  0.1757  0.2721
13707W        W29176  14.222  11.154   3.222 -0.1375 -0.2777  0.0600
13708W        W29177   7.922  17.601   3.869  0.2180  0.0534 -0.0956
13709W        W29178   2.860  10.436  15.614 -0.2057  0.0299 -0.0426
13710W        W29179   0.657  10.661   1.250  0.1118 -0.0267 -0.0378
13711W        W29180   4.916   1.807  11.071  0.2861 -0.0580 -0.1558
13712W        W29181   9.364  13.109   4.510  0.0396  0.0485 -0.0167
13713W        W29182   5.231  17.833  13.049  0.1367  0.0633  0.1932
13714W        W29183  13.683  12.931  12.047 -0.1285 -0.0874  0.0067
13715W        W29184  17.384  17.169   2.987  0.4332 -0.1280 -0.1574
13716W        W29185   0.218   8.252   4.551 -0.0423 -0.4815  0.1462
13717W        W29186  17.435  18.213   0.099 -0.2090  0.0373  0.1362
13718W        W29187   5.664  10.761  10.289  0.0494  0.1695  0.0243
13719W        W29188   1.840  18.271   1.248  0.2655 -0.2141  0.3302
13720W        W29189  13.570   1.838  14.002  0.0791  0.0580  0.1234
13721W        W29190   2.145  18.285  11.284  0.0149  0.2308 -0.0530
13722W        W29191   2.743   0.717   3.858  0.2513 -0.0159 -0.2662
13723W        W29192   2.646   5.115  11.218 -0.0150  0.0856 -0.0580
13724W        W29193  12.644  17.573   5.663  0.2194 -0.1976 -0.0780
13725W        W29194  15.587   6.616   5.232  0.4267  0.0652 -0.0083
13726W        W29195  15.035  13.689  15.242  0.0513  0.0270 -0.1442
13727W        W29196  15.217   4.551  14.353  0.1132  0.1654  0.2147
13728W        W29197  16.224   2.040   3.091 -0.3836  0.1168  0.0020
13729W        W29198   2.654  17.104  14.112  0.0863 -0.0402  0.2634
13730W        W29199  14.325  10.194   1.173 -0.1274  0.0576  0.1384
13731W        W29200   5.561  16.227  15.799  0.0631  0.1863 -0.2549
13732W        W29201  14.949  17.416  15.671  0.0663  0.1512 -0.1739
13733W        W29202   3.786  13.444   4.665 -0.0768 -0.0323 -0.1333
13734W        W29203   0.605  11.288   2.072  0.0911 -0.0089 -0.3280
13735W        W29204   9.942   0.050  10.850  0.0915  0.3291  0.0877
13736W        W29205   8.039   6.536   2.452  0.0396 -0.0403  0.1323
13737W        W29206  12.179   2.409  15.657 -0.0135 -0.0946 -0.0072
13738W        W29207  16.245   6.189   0.684  0.0538  0.4373  0.1853
13739W        W29208   4.240   0.823   1.242 -0.2543  0.1960  0.1625
13740W        W29209  16.366  11.901   3.596  0.1822 -0.2225  0.1699
13741W        W29210   3.107   4.619  13.379  0.2947 -0.2093 -0.0863
13742W        W29211  11.697   7.890  12.095  0.3807  0.1071 -0.0851
13743W        W29212   9.155  14.109  12.171 -0.2282 -0.0001 -0.1860
13744W        W29213  10.013  12.007   3.482  0.1818 -0.2304  0.2551
13745W        W29214   7.184   8.259   0.626 -0.0380 -0.2057  0.0477
13746W        W29215   5.341   7.016  12.597  0.0298  0.1094 -0.0969
13747W        W29216   9.186  11.353   0.392  0.2743 -0.0840 -0.0087
13748W        W29217   0.231   8.384  12.300 -0.2964  0.2076  0.0464
13749W        W29218   1.599   0.679   2.374  0.2290  0.1589  0.0168
13750W        W29219  10.337   8.420  15.888  0.0636 -0.1875 -0.1675
13751W        W29220   1.553  15.001  15.266 -0.4766 -0.1037  0.1773
13752W        W29221  10.772   2.589  14.094  0.1476  0.0350  0.2189
13753W        W29222  17.177  11.992  12.816  0.2040 -0.2600 -0.0750
13754W        W29223   2.735  15.794   3.352 -0.2770 -0.0989  0.5608
13755W        W29224  14.846   3.233  11.125  0.0723  0.0525  0.4307
13756W        W29225  16.649  18.360  12.633 -0.0075 -0.0686  0.2536
13757W        W29226  11.769   5.432  12.533 -0.0593  0.0376  0.4736
13758W        W29227   6.663   5.587  12.549  0.0028  0.2964 -0.1228
13759W        W29228  17.843   6.224   0.810 -0.2144 -0.1309 -0.1509
13760W        W29229   6.501   7.583  14.983  0.0112  0.0418 -0.3522
13761W        W29230  10.950  14.988   3.373 -0.0729 -0.1019  0.1700
13762W        W29231  17.873   3.455   1.912  0.3310  0.0865 -0.1886
13763W        W29232  12.576   4.799   3.200  0.1741  0.5283  0.0405
13764W        W29233   0.480   8.740  15.644  0.2091  0.2734  0.0681
13765W        W29234   8.542  11.524  15.907 -0.1992 -0.0169  0.0848
13766W        W29235   4.831  10.273  10.546 -0.1631  0.2057 -0.0516
13767W        W29236   8.419   9.950   1.077 -0.0355 -0.0635 -0.0072
13768W        W29237  11.924  14.405  13.931 -0.1040  0.1666 -0.1007
13769W        W29238   1.391  11.771  11.015 -0.3234  0.0448  0.0390
13770W        W29239  13.504   0.399  15.369 -0.2813  0.0121 -0.2588
13771W        W29240  15.721  11.824   2.990  0.0309  0.0524  0.1785
13772W        W29241  10.666  16.216   1.841 -0.0589 -0.1176  0.3583
13773W        W29242   8.780  10.883   0.728 -0.2063 -0.2051 -0.0556
13774W        W29243  17.777   4.940  11.181  0.0829 -0.0994 -0.0131
13775W        W29244  12.055  10.184  11.479 -0.2329 -0.0265  0.0764
13776W        W29245  11.505   8.150  15.311 -0.1110  0.0026  0.3979
13777W        W29246  12.724  16.534  12.564 -0.0165 -0.1617  0.1493
13778W        W29247  15.619  10.139  12.936 -0.0443 -0.0158  0.0942
13779W        W29248  15.883   7.788   5.151  0.0336  0.3277  0.3274
13780W        W29249  12.342   6.123   3.697 -0.0822  0.1033 -0.0179
13781W        W29250  15.426   7.845  11.882  0.0527 -0.0972 -0.2277
13782W        W29251  15.316  16.220   4.763 -0.2816 -0.0734 -0.1328
13783W        W29252   1.446  16.747   4.995  0.0832 -0.1059  0.1167
13784W        W29253   7.841  13.031  14.578  0.0376  0.0057 -0.1890
13785W        W29254   3.928   1.799   5.220 -0.1213 -0.1688 -0.2424
13786W        W29255  16.716  18.267  13.592  0.3832 -0.0720 -0.0977
13787W        W29256   0.753   7.276  14.064  0.1040 -0.2354 -0.2397
13788W        W29257  10.082  14.235   0.691 -0.3001  0.0336  0.2044
13789W        W29258   9.187   9.006   1.044  0.2536 -0.1504 -0.1713
13790W        W29259  11.998  15.381   3.744  0.1620 -0.0100  0.0754
13791W        W29260   3.930  16.220  12.139  0.0173 -0.1864 -0.3444
13792W        W29261   6.864   0.803  11.589 -0.1487  0.1995 -0.1829
13793W        W29262  10.401   0.350  15.090  0.1370  0.1118 -0.2955
13794W        W29263  18.359   6.778  13.842  0.0477  0.1090  0.3002
13795W        W29264   7.808   7.451  15.695  0.1945  0.2509  0.1143
13796W        W29265   8.117  17.139   1.378  0.1007  0.1659 -0.1682
13797W        W29266  15.877  16.640  12.287 -0.1705 -0.2198  0.3370
13798W        W29267   1.562  18.215  11.939 -0.2476  0.0778  0.0725
13799W        W29268   4.655  14.461   4.691 -0.4208  0.0473 -0.0391
13800W        W29269  10.383  16.922  14.408 -0.2591 -0.0565 -0.3177
13801W        W29270  14.096  17.495  10.791 -0.0200  0.1813 -0.2692
13802W        W29271   3.754  12.766  15.055 -0.0014 -0.2668  0.0537
13803W        W29272   8.168   8.434  12.050 -0.1782 -0.0432  0.0376
13804W        W29273  16.133  10.715   2.359  0.0900  0.2301 -0.1450
13805W        W29274  10.650  16.873   3.339 -0.1635  0.0546 -0.1310
13806W        W29275  16.563  14.634  14.435  0.1402  0.0439  0.1374
13807W        W29276   4.383   4.071   4.683 -0.1836 -0.1724  0.1288
13808W        W29277   8.214   3.967   3.218 -0.4347 -0.1858  0.0116
13809W        W29278   9.836  17.293   3.314 -0.2053  0.0461  0.0152
13810W        W29279   4.240   5.469   2.455  0.0262  0.1664 -0.4882
13811W        W29280  13.617   6.067  15.037  0.1690  0.1259 -0.0613
13812W        W29281  15.658   4.334   2.498 -0.1887  0.1277 -0.1472
13813W        W29282   5.840   6.875   2.923 -0.2817  0.0041  0.3760
13814W        W29283   9.388   7.501   4.358 -0.1898 -0.0317  0.2925
13815W        W29284  13.512  17.794  15.499 -0.0931  0.0387  0.1054
13816W        W29285   0.311  17.054  13.517  0.2004 -0.3555 -0.0573
13817W        W29286  11.377   6.679  11.586 -0.0224 -0.3984  0.4130
13818W        W29287   9.647   2.219   2.892  0.1245  0.2917  0.0519
13819W        W29288  10.353   1.735   1.880  0.1315  0.0547  0.1064
13820W        W29289   4.620   1.054   1.609 -0.0007 -0.1597 -0.0357
13821W        W29290   7.741   3.492  15.546  0.0905  0.1622  0.2291
13822W        W29291  15.969   7.517   1.533 -0.1021  0.2049  0.1120
13823W        W29292  14.798  11.682   4.510 -0.1489  0.1147 -0.2548
13824W        W29293   7.124   0.413  10.660  0.0812  0.3166  0.1479
13825W        W29294   2.804  16.075   5.751 -0.2161  0.3209 -0.1631
13826W        W29295   6.383  11.581  15.811 -0.4500 -0.2770  0.2627
13827W        W29296   2.635  14.536  12.078  0.1486 -0.3454 -0.1037
13828W        W29297   9.563  11.188   1.994 -0.0915 -0.0667 -0.0803
13829W        W29298  16.246  11.148   2.872 -0.2508  0.0837 -0.3505
13830W        W29299  11.679  12.570  12.386  0.2241  0.4347  0.0514
13831W        W29300  12.519  14.786   2.433 -0.0195 -0.1829  0.0757
13832W        W29301   8.390  12.388   3.343  0.0412  0.1409  0.0480
13833W        W29302   9.896   5.341  10.680  0.1652  0.0600 -0.0935
13834W        W29303  12.206   7.577  15.709 -0.0199 -0.1225  0.0323
13835W        W29304   6.687  12.335  14.402  0.1281  0.1260  0.0117
13836W        W29305   7.015  16.333   1.559  0.1699  0.1064 -0.0712
13837W        W29306  18.100  18.451  15.400  0.2617 -0.2080  0.0939
13838W        W29307   5.943   3.172   1.098 -0.0494 -0.3672 -0.2755
13839W        W29308   4.557   8.362  12.938 -0.2087  0.0503 -0.3441
13840W        W29309   8.238  18.244   2.709  0.1075  0.0289  0.0367
13841W        W29310  15.372  18.098   2.317 -0.1910  0.0532 -0.0418
13842W        W29311  10.274  13.627  11.942  0.0284 -0.0505  0.1737
13843W        W29312   9.149  11.423   2.929  0.2368 -0.0809 -0.1180
13844W        W29313  15.749   9.853  11.725  0.0174 -0.1618  0.2365
13845W        W29314   6.723   2.354  15.375  0.0492  0.1430 -0.0116
13846W        W29315   9.534   0.602  11.514 -0.0702 -0.1717  0.4263
13847W        W29316   1.112   7.535   0.828  0.1933  0.2237 -0.1063
13848W        W29317   7.065   8.398   0.056 -0.5097 -0.4104  0.0868
13849W        W29318  10.584  12.013  12.404 -0.2134 -0.2621 -0.1873
13850W        W29319   9.528  17.116  12.702 -0.1568  0.1312  0.0513
13851W        W29320  11.295   0.964  15.314 -0.4038 -0.1867 -0.2803
13852W        W29321  16.991  12.155  13.313 -0.3780  0.2671  0.1743
13853W        W29322   2.411  17.001   1.914 -0.2113 -0.3661 -0.2868
13854W        W29323  10.344   1.094  14.921  0.0654  0.1730 -0.0082
13855W        W29324   3.641   8.646  12.350 -0.3190  0.0593  0.1644
13856W        W29325   8.643  16.233  12.647  0.2713 -0.2868 -0.3321
13857W        W29326  11.440  16.279   0.215  0.1116  0.0426  0.3049
13858W        W29327   8.008  18.062  12.816 -0.0146 -0.3463  0.1451
13859W        W29328   1.211  10.367  15.280  0.1795  0.0485  0.2200
13860W        W29329   8.472  13.266  11.544 -0.0203  0.0578 -0.1075
13861W        W29330  10.540   2.439  14.619  0.2523 -0.0373  0.0658
13862W        W29331  17.158  12.187   4.259  0.0178  0.1497 -0.1740
13863W        W29332  16.062   5.004  11.099  0.0709 -0.2604  0.2669
13864W        W29333   4.115   2.846  12.130  0.2253 -0.0995 -0.0052
13865W        W29334  14.935   1.277   4.456  0.2660 -0.0440 -0.0843
13866W        W29335  10.221  14.692   2.807 -0.0933  0.1422  0.0538
13867W        W29336  17.545  11.007   5.460  0.0321  0.0495  0.1902
13868W        W29337   7.754  11.695   6.053  0.0843  0.1078  0.4496
13869W        W29338   8.736  15.326  11.460  0.0270  0.0740  0.0095
13870W        W29339   6.926  18.284  15.616  0.3687 -0.0348 -0.1180
13871W        W29340   3.134  18.261   2.709 -0.0029 -0.0340 -0.3635
13872W        W29341   9.182   6.152   0.409 -0.2102  0.3589  0.3293
13873W        W29342  10.015  15.932   3.029  0.0459 -0.2452  0.1875
13874W        W29343   3.243   4.146  11.448  0.0364  0.1888  0.1996
13875W        W29344   6.723   0.261  13.016 -0.1893 -0.3676 -0.2846
13876W        W29345  15.470  14.548  15.552 -0.0581 -0.2975 -0.2494
13877W        W29346   7.225  12.328  12.234  0.2640 -0.0877 -0.0919
13878W        W29347   6.380   9.982   3.721 -0.1441 -0.0578 -0.1113
13879W        W29348  11.100  10.481  12.767 -0.0259  0.2044  0.1807
13880W        W29349  14.209  17.947  11.487 -0.1669 -0.1854  0.0241
13881W        W29350  14.580   2.616   1.974 -0.2842  0.1621 -0.0623
13882W        W29351  11.470   2.024  14.546 -0.0020 -0.2313 -0.2583
13883W        W29352  11.351   2.854  11.849 -0.0781 -0.0868 -0.0943
13884W        W29353  17.050   3.014   1.850 -0.3164  0.0420 -0.1932
13885W        W29354   9.929   7.964   5.947 -0.0771  0.1147 -0.0584
13886W        W29355  15.297   6.173  10.581 -0.0076 -0.0905  0.1187
13887W        W29356  11.739   8.437   3.943  0.1132 -0.0004 -0.0422
13888W        W29357  14.090  16.926  13.730 -0.3020 -0.1476  0.0971
13889W        W29358   9.709  15.159   5.325 -0.0115 -0.0346  0.0842
13890W        W29359   2.950   2.174   4.030  0.1936  0.1070  0.3126
13891W        W29360  13.141  14.405  14.108  0.1494  0.0240  0.1371
13892W        W29361  16.104  10.932   1.225 -0.2809 -0.0207 -0.2012
13893W        W29362   6.631  16.528   1.836 -0.0787 -0.2310  0.2639
13894W        W29363  14.829  13.461  10.876  0.0103 -0.0162  0.0038
13895W        W29364  13.098  18.142   2.153  0.1343 -0.1701  0.1174
13896W        W29365  11.807  18.278   3.652 -0.1365  0.0233  0.0433
13897W        W29366   9.040   5.185   0.688  0.0939  0.1233 -0.2006
13898W        W29367  16.724  15.583   5.571 -0.0935  0.0287  0.2416
13899W        W29368   2.980  12.415   3.729  0.0087  0.1764  0.1919
13900W        W29369   8.052   7.871  11.567  0.0118 -0.0642  0.2162
13901W        W29370   9.950  16.467   3.403 -0.0483 -0.0466 -0.1882
13902W        W29371  17.528   2.759   5.299  0.3230  0.1119 -0.0559
13903W        W29372  14.181   0.462  13.381  0.0540 -0.0639 -0.0826
13904W        W29373  11.702   6.670   3.583 -0.0498  0.2334  0.0602
13905W        W29374   6.778  14.534   1.072 -0.0063  0.1891 -0.3468
13906W        W29375   4.958   1.857  11.599  0.0526 -0.0548 -0.0114
13907W        W29376   4.560   4.094  11.834  0.1132 -0.1242 -0.4069
13908W        W29377  13.998   2.587  15.303 -0.0363 -0.0994  0.3825
13909W        W29378  12.529   5.672   3.781 -0.1222  0.0222  0.0123
13910W        W29379  11.397   1.586   0.721 -0.0961  0.0682 -0.0001
13911W        W29380   5.056  13.608  15.118  0.1078 -0.1938  0.0370
13912W        W29381   8.612  10.947  14.164  0.1030  0.0853 -0.4069
13913W        W29382  10.225   9.917  11.387 -0.0176  0.3747  0.0677
13914W        W29383   1.938   4.912  13.706 -0.1126 -0.3686  0.0582
13915W        W29384  11.339  16.642  15.442  0.0707  0.1547 -0.1747
13916W        W29385   5.383  13.343   3.616 -0.0386  0.1501 -0.0230
13917W        W29386  18.214  12.122   0.713  0.0725  0.0674 -0.1140
13918W        W29387  15.656  13.160  11.942 -0.2096  0.2005 -0.1075
13919W        W29388   5.506   0.795  13.416 -0.0636 -0.2301  0.0144
13920W        W29389  11.808  16.817   1.159  0.1539  0.0761 -0.0623
13921W        W29390   9.389   3.805   0.177  0.1265 -0.3161  0.1666
13922W        W29391   7.691  11.161   4.709 -0.0677  0.4631 -0.0023
13923W        W29392   3.523  17.294   2.335  0.1106  0.2491  0.0634
13924W        W29393   1.761  15.214  10.413 -0.0934 -0.3381 -0.0057
13925W        W29394  16.447   9.889  12.539 -0.1292  0.1256 -0.1208
13926W        W29395   8.142  16.696  10.717 -0.1402 -0.4077 -0.1133
13927W        W29396   0.573  13.359   0.268  0.1062 -0.1579  0.0333
13928W        W29397   6.302  12.471  11.568 -0.0770 -0.0068 -0.2169
13929W        W29398   7.752  15.758   5.088  0.0856 -0.0265 -0.1678
13930W        W29399  10.226  16.662  15.609 -0.1031 -0.0594  0.2199
13931W        W29400  11.907  17.894   0.092  0.0370  0.0354 -0.2041
13932W        W29401   3.547   3.317   1.473  0.1750 -0.1264 -0.1610
13933W        W29402   2.294   8.013   4.709 -0.0013 -0.3173  0.0493
13934W        W29403  16.351  12.599  12.904 -0.0937  0.3253  0.1453
13935W        W29404   4.472   6.029   0.353  0.0102 -0.0109 -0.0993
13936W        W29405   8.379  13.643   4.487 -0.3693  0.0217 -0.0883
13937W        W29406  10.755   9.210   3.524  0.2025  0.1062  0.1373
13938W        W29407  16.150  17.147  13.581 -0.1894  0.1874  0.1656
13939W        W29408  18.094   0.950  11.531  0.2425 -0.2408  0.0038
13940W        W29409   3.965   9.200   2.923  0.0550  0.1243  0.0170
13941W        W29410   7.565  14.484  13.770  0.1069  0.2904 -0.5393
13942W        W29411  17.229   5.018   2.132 -0.0964  0.1790  0.1772
13943W        W29412   2.432   1.216  10.501  0.1336  0.0598  0.0843
13944W        W29413  16.575  16.717  12.816 -0.1741 -0.0125 -0.0582
13945W        W29414   2.924  15.497  15.157  0.1384 -0.2198 -0.1158
13946W        W29415   8.660  17.081  15.432 -0.1729 -0.0350 -0.0177
13947W        W29416   2.291   0.476  14.817  0.1159  0.0351 -0.0073
13948W        W29417  15.955  10.927  10.580 -0.0246 -0.3383 -0.3500
13949W        W29418   8.144   0.384   5.786 -0.1579 -0.1474 -0.0502
13950W        W29419  16.210   7.840  15.590 -0.2950 -0.2001  0.4443
13951W        W29420  13.070   4.998   3.213 -0.0375 -0.0407  0.0187
13952W        W29421  13.864   4.925  13.367 -0.2703 -0.0495 -0.0001
13953W        W29422   8.307   4.072   9.574  0.2049  0.1240  0.1490
13954W        W29423  18.157   9.250  11.452 -0.1770  0.3174  0.1065
13955W        W29424  11.529   3.824  12.390 -0.2032 -0.2295 -0.2177
13956W        W29425   8.618   5.691  13.880 -0.2266  0.0086 -0.1270
13957W        W29426  16.372   0.589   5.521 -0.2461 -0.0172 -0.1898
13958W        W29427   5.231   2.133   2.711  0.1513 -0.0109  0.1784
13959W        W29428  11.727   1.333   0.996  0.4997 -0.3514  0.1798
13960W        W29429  14.375  12.356  11.579  0.2742 -0.1848 -0.0328
13961W        W29430  12.071  16.848   3.594 -0.0859 -0.0358 -0.1178
13962W        W29431   3.484  13.771  11.538 -0.0975 -0.0109  0.1303
13963W        W29432  15.148   7.770  13.018 -0.0229  0.0522 -0.0525
13964W        W29433  12.740   5.699   2.147  0.3108  0.1695 -0.0251
13965W        W29434  12.466  17.517  11.960  0.1269  0.0728  0.0278
13966W        W29435  15.203  17.993  14.368  0.1663  0.0145  0.0461
13967W        W29436  10.182   0.871  12.414 -0.4096  0.1556  0.0679
13968W        W29437  11.905  13.713   4.067 -0.2921 -0.2529 -0.1684
13969W        W29438   5.212   8.839  14.967  0.5475  0.0180  0.2071
13970W        W29439  11.631  14.153   3.806  0.0373 -0.1992  0.2727
13971W        W29440   7.250   2.828   3.385  0.0205 -0.3371  0.0108
13972W        W29441  13.341   9.780   4.527 -0.1992  0.1940 -0.0066
13973W        W29442  14.453  14.675  11.570  0.3616 -0.1768 -0.0460
13974W        W29443   9.259  17.489   2.606  0.1230 -0.0702 -0.4038
13975W        W29444   2.198   4.335   0.723 -0.1150 -0.1999  0.2756
13976W        W29445   7.141   9.951   5.534  0.0664  0.4321  0.0309
13977W        W29446  11.331   5.649   1.305 -0.0489  0.1503 -0.1480
13978W        W29447   7.095  10.200   0.475  0.1355  0.1298 -0.2314
13979W        W29448   9.192   3.795   4.359  0.4098 -0.1878  0.2569
13980W        W29449  12.098  13.613  14.801 -0.2641  0.0638  0.1108
13981W        W29450   9.292   1.602  10.431  0.0639 -0.0026 -0.0500
13982W        W29451   1.780   4.612   4.042 -0.2071  0.0595 -0.2431
13983W        W29452   5.798   6.129   9.837 -0.2273 -0.1669  0.1216
13984W        W29453   1.236   6.102   5.740  0.0667  0.3066  0.2622
13985W        W29454   7.485  17.574  13.250  0.0579  0.0482 -0.0323
13986W        W29455   5.543   8.935  14.621 -0.0205  0.1723 -0.1469
13987W        W29456   8.065   4.957   5.755  0.1754  0.0823  0.0702
13988W        W29457   3.865   2.969  15.443  0.0885  0.1408 -0.0830
13989W        W29458  14.119  15.100   0.611  0.1697 -0.0954 -0.1370
13990W        W29459   6.565   7.214  13.040  0.0671  0.0192 -0.1274
13991W        W29460  16.485   1.410   4.351  0.0595  0.1397  0.0537
13992W        W29461   1.374   7.040   5.256 -0.0180 -0.2423  0.0578
13993W        W29462   9.130   6.734  11.400 -0.0200  0.1927  0.0028
13994W        W29463  11.264  12.093  13.668  0.2286 -0.0599  0.2795
13995W        W29464   3.497   7.940  10.153 -0.2171  0.4210 -0.1218
13996W        W29465  12.224   2.418   0.872 -0.0863 -0.2320  0.3130
13997W        W29466  16.465  12.719   3.081  0.2104  0.0450  0.1822
13998W        W29467   8.983   1.180  13.792  0.2514  0.1756 -0.1594
13999W        W29468  10.804  15.319  12.852 -0.1413  0.0733  0.3332
14000W        W29469   7.906   8.789   4.440 -0.2036  0.2549 -0.0034
14001W        W29470  11.796  12.354  15.360 -0.1827  0.1820  0.2243
14002W        W29471   0.450   9.236   0.477  0.0444  0.0637 -0.0665
14003W        W29472   9.099   9.545   4.939 -0.0087 -0.0375 -0.0161
14004W        W29473  14.092  13.932   0.053 -0.2414  0.2345 -0.1146
14005W        W29474  14.315  17.736   1.633 -0.3145 -0.2139 -0.2015
14006W        W29475  14.109  10.611   3.957  0.1602  0.1674  0.0280
14007W        W29476   6.587   3.010  12.238  0.1287  0.2051  0.1349
14008W        W29477   8.684  18.341   1.520 -0.0312  0.0878  0.0832
14009W        W29478  14.963  12.839  12.376 -0.0282  0.0095 -0.1458
14010W        W29479  17.155  17.822   4.742 -0.0794 -0.1771 -0.0885
14011W        W29480   6.838  15.541   3.960 -0.2597  0.1531 -0.0196
14012W        W29481  10.084  12.744   4.917  0.5144 -0.3345  0.1013
14013W        W29482  16.000   2.865  13.408 -0.0365  0.2853  0.2023
14014W        W29483   9.168  18.089   1.506 -0.0968 -0.2794 -0.1786
14015W        W29484   6.103  11.149   0.084  0.1403 -0.0139  0.3043
14016W        W29485  14.754   5.943   1.980  0.2353 -0.0838 -0.0172
14017W        W29486   1.613  13.328  15.714 -0.0244  0.0415 -0.1836
14018W        W29487   9.078  10.855  14.377  0.1399  0.2124 -0.0951
14019W        W29488   4.462  13.848   4.374  0.0342  0.2292 -0.0155
14020W        W29489  14.583   8.671  13.327  0.1429  0.0188 -0.0340
14021W        W29490   0.749  10.209   3.900 -0.1860 -0.1008  0.1735
14022W        W29491  10.062  16.141  11.458  0.3468  0.0861  0.0934
14023W        W29492   8.077   8.698  14.672 -0.1854  0.2866 -0.2500
14024W        W29493  16.021  10.625   0.339  0.1060  0.1140  0.0940
14025W        W29494  14.696  12.566  11.257  0.1038  0.0428  0.1656
14026W        W29495  13.228  15.321  15.640  0.1684 -0.1820  0.1526
14027W        W29496   3.852  11.239  10.472  0.1285  0.3060  0.0382
14028W        W29497  14.364  17.313  14.028  0.5151 -0.1156  0.3207
14029W        W29498   4.842  11.487  15.215 -0.2646 -0.3402  0.3078
14030W        W29499   5.727   2.950   1.636 -0.0862 -0.3256 -0.2978
14031W        W29500  14.025  11.166   2.302 -0.1304  0.0508  0.0542
14032W        W29501   0.294  11.770   1.251  0.1068  0.0699  0.1754
14033W        W29502  12.756   5.273  14.655 -0.1990  0.1068 -0.0309
14034W        W29503  15.711   5.302  11.355 -0.1378 -0.2026  0.2328
14035W        W29504  17.567   2.257   3.413  0.3248 -0.0237 -0.2347
14036W        W29505   4.554   1.031  14.830 -0.2161 -0.0848 -0.0415
14037W        W29506  13.555   9.300   4.278 -0.1371  0.0346  0.1963
14038W        W29507   8.966  17.616  14.856 -0.0015  0.0936 -0.0389
14039W        W29508   8.079  10.253   0.202  0.0785 -0.1590  0.3977
14040W        W29509   4.708   3.471   1.156  0.2876 -0.0685  0.0550
14041W        W29510   6.359  15.726   4.078  0.2128 -0.0083 -0.1769
14042W        W29511  17.981   8.548   1.771 -0.0034  0.1698  0.1121
14043W        W29512  16.843   7.932  10.278 -0.2249 -0.0287 -0.1892
14044W        W29513   5.566   3.045  13.222  0.0536 -0.0147  0.0478
14045W        W29514   7.168  14.245  15.356  0.1219 -0.0939  0.0744
14046W        W29515  17.049  14.154  15.315  0.0181 -0.0085  0.1266
14047W        W29516  10.925   4.109  15.313 -0.2201 -0.1878 -0.3481
14048W        W29517   5.965   5.762  15.341 -0.2673 -0.0158 -0.2038
14049W        W29518   2.478   3.468  11.527  0.3203 -0.0304  0.1408
14050W        W29519   2.133   7.148   2.175  0.0188  0.0095  0.0608
14051W        W29520  17.822   7.415   3.778  0.1460  0.0723  0.0494
14052W        W29521  16.983  12.995  14.531  0.0938 -0.0812  0.3013
14053W        W29522   3.282  12.706  15.417 -0.1496 -0.0858 -0.0309
14054W        W29523  16.426   9.807  10.827 -0.1896  0.1103  0.0810
14055W        W29524   8.066  16.174   6.134  0.0964 -0.0084  0.3073
14056W        W29525   4.348   4.341   1.846  0.2268  0.1493  0.0288
14057W        W29526   3.578   8.400   4.245  0.0981  0.1057 -0.0754
14058W        W29527  15.592  16.326  10.492  0.0467 -0.2208 -0.3303
14059W        W29528  16.828  11.659  15.568  0.0871 -0.1591 -0.2764
14060W        W29529   4.003  15.889  14.818  0.0845 -0.0134 -0.6163
14061W        W29530  12.655  11.601   0.506  0.1779  0.2613 -0.1293
14062W        W29531  14.012   0.182   3.076  0.1194 -0.2013 -0.1099
14063W        W29532  13.666  12.337   0.630 -0.1516 -0.5226  0.0065
14064W        W29533   8.583  14.032  12.712 -0.1605  0.3459 -0.1876
14065W        W29534   9.605  13.794  14.457 -0.4206 -0.2230  0.1151
14066W        W29535   2.889  13.916  14.871 -0.0959  0.3915 -0.0724
14067W        W29536  10.760  17.717   1.884 -0.1835  0.2212 -0.1066
14068W        W29537  12.591   9.330   2.019  0.1873 -0.2160 -0.0508
14069W        W29538  11.573   6.119  11.155  0.0054 -0.0333  0.1021
14070W        W29539   5.501  13.512   2.078 -0.0403 -0.0512  0.0535
14071W        W29540  10.316   7.131  12.489 -0.2095  0.0445  0.2401
14072W        W29541   4.422   7.388  11.019 -0.1465  0.2263 -0.0789
14073W        W29542  11.929   7.977  14.079  0.1188 -0.4857 -0.0237
14074W        W29543  16.830   5.163   0.253 -0.0989  0.2115 -0.0973
14075W        W29544   1.017  12.324  13.232 -0.0522  0.0449 -0.0701
14076W        W29545   2.542  13.531  12.353  0.0410  0.0204  0.1516
14077W        W29546  10.520   6.017   5.323 -0.0326  0.4524 -0.0764
14078W        W29547   9.407   9.877   2.606  0.0029 -0.0154 -0.2930
14079W        W29548   7.688   0.439   4.528  0.0143  0.0604  0.1909
14080W        W29549  13.731   7.297   1.465 -0.2448  0.2058 -0.1718
14081W        W29550  11.167  12.260   1.735  0.1678 -0.1481  0.2564
14082W        W29551  15.872  14.437  13.915 -0.2905  0.0209  0.1811
14083W        W29552   2.499   3.524  12.834 -0.0808 -0.3184 -0.2853
14084W        W29553  12.208   7.147  14.443 -0.3346  0.3371  0.1216
14085W        W29554  10.035  15.429  12.330 -0.0631 -0.0676  0.2067
14086W        W29555  12.919  12.494   3.770 -0.0664  0.1342 -0.0108
14087W        W29556  13.863   6.834   1.161  0.0402 -0.0229  0.0081
14088W        W29557  14.524  18.465  12.741  0.0201  0.1069  0.0083
14089W        W29558  10.616  17.314  13.483 -0.2823 -0.2311  0.0347
14090W        W29559  18.349  16.204  10.904 -0.2474  0.1491 -0.1000
14091W        W29560  12.754   4.375   5.427 -0.0717 -0.0074  0.2140
14092W        W29561   7.039  10.704  14.464 -0.3493 -0.1033  0.3798
14093W        W29562   4.248   4.498  11.663  0.1727 -0.3429 -0.1109
14094W        W29563  15.098  14.432  10.785 -0.0321  0.1860  0.1366
14095W        W29564  11.855  11.563   3.443 -0.1549  0.0550  0.2011
14096W        W29565  17.059   0.059   4.137  0.3125 -0.0139  0.0188
14097W        W29566  15.582   6.274   1.279  0.0779 -0.1641  0.2506
14098W        W29567   9.298   0.130   0.371  0.0328  0.0546 -0.3480
14099W        W29568  12.681  17.368  13.904 -0.3033  0.2503  0.3008
14100W        W29569  14.574  17.074  12.805 -0.0761 -0.0832  0.1400
14101W        W29570   7.019   6.130  11.301 -0.2314  0.1143  0.1245
14102W        W29571  14.399   3.348  10.896 -0.2116 -0.3144  0.1851
14103W        W29572   8.857  14.647   2.519 -0.1665  0.0567 -0.1977
14104W        W29573  15.359  16.936  13.480  0.1418  0.3936 -0.2363
14105W        W29574   6.162   5.681  11.200  0.2792 -0.2707  0.1535
14106W        W29575   0.435   2.266   3.557 -0.0510 -0.5402  0.2617
14107W        W29576   3.218  13.066   2.069  0.1290  0.0554  0.0178
14108W        W29577   7.142   0.096  11.024 -0.1820 -0.0845 -0.0146
14109W        W29578   9.076   6.230   4.485  0.0380 -0.0082 -0.1230
14110W        W29579  15.233  16.200   2.217 -0.0796 -0.0716  0.3404
14111W        W29580   6.614  15.502  12.683  0.0360  0.1583  0.1612
14112W        W29581   3.619   4.982   2.016 -0.0518  0.0384  0.2582
14113W        W29582  14.802  18.472   2.538  0.4312  0.0528  0.0129
14114W        W29583  15.370  18.433   0.094 -0.1370 -0.2171 -0.0631
14115W        W29584   3.459  13.197  11.564 -0.0422 -0.0461  0.2321
14116W        W29585  10.477   9.186  10.991 -0.1787  0.0820  0.4157
14117W        W29586   4.188   0.398  11.889 -0.2191 -0.0843  0.0948
14118W        W29587  16.746  12.689  13.184 -0.1703  0.0564 -0.0018
14119W        W29588  15.145  11.149  14.229  0.0210  0.0333  0.4972
14120W        W29589  13.806  15.820   0.518  0.0796  0.0533 -0.0661
14121W        W29590   2.067  13.011   1.833 -0.0574 -0.1702 -0.1028
14122W        W29591  13.154  14.534  11.849 -0.0091 -0.0642  0.1369
14123W        W29592  15.208   6.863  12.670 -0.1943 -0.2504  0.1415
14124W        W29593   0.404  10.409   3.051 -0.4488  0.1773  0.0133
14125W        W29594   8.342   2.355   0.570  0.2980 -0.1205 -0.0140
14126W        W29595  12.733  18.125   4.390  0.2608  0.0876  0.0836
14127W        W29596   8.800   1.681   3.509 -0.1507  0.2024 -0.0361
14128W        W29597  14.865   5.190   1.050 -0.0154  0.2208  0.2050
14129W        W29598  12.709   2.622  14.423 -0.1948 -0.1940  0.0608
14130W        W29599  14.239   7.883  15.354  0.2199  0.2095 -0.3825
14131W        W29600  10.787   3.652   0.755 -0.1313 -0.2753  0.2373
14132W        W29601   1.414  12.514   5.014  0.1802  0.1003 -0.1341
14133W        W29602  12.701   0.110  13.646 -0.0236  0.0667 -0.0302
14134W        W29603   4.075   2.229  11.463  0.3028  0.1666  0.1090
14135W        W29604  10.485  17.050  15.436  0.0240 -0.0284  0.2315
14136W        W29605  11.212   5.368   0.371  0.3132 -0.3173  0.0031
14137W        W29606  12.930   3.425   3.193 -0.1086 -0.2226 -0.0644
14138W        W29607   4.129  13.659   5.183  0.1884  0.0449 -0.0131
14139W        W29608   2.355  11.069  15.141  0.1511  0.0227  0.0502
14140W        W29609  10.456  13.787   4.270 -0.0999  0.3789 -0.1836
14141W        W29610  13.977   3.541   2.330 -0.0427 -0.1362  0.0962
14142W        W29611   8.742  14.593  10.936 -0.1192 -0.3239  0.2215
14143W        W29612  13.424  10.009   4.101 -0.0626  0.1348 -0.1931
14144W        W29613   4.268   3.089  12.912  0.3759 -0.0066  0.1302
14145W        W29614   4.964  17.570  11.890 -0.1524  0.3358  0.2510
14146W        W29615  18.307   0.081   5.879 -0.2387  0.0986 -0.2912
14147W        W29616   9.030   9.859  14.420 -0.1952 -0.2274 -0.0064
14148W        W29617   9.581  18.189   3.189  0.0257 -0.0264 -0.0910
14149W        W29618   3.648  12.500   0.703 -0.1447 -0.0644 -0.0691
14150W        W29619  14.117  18.173   1.487 -0.1408 -0.0548  0.0458
14151W        W29620   1.839   7.133  12.724  0.2137 -0.2161  0.1228
14152W        W29621   6.068   5.413  10.749 -0.2474 -0.1433 -0.1633
14153W        W29622   6.579  10.036   1.259 -0.4082  0.0258  0.0393
14154W        W29623   3.402   6.659  10.406  0.2927 -0.0346  0.3335
14155W        W29624   8.278  13.851   0.789 -0.1729  0.0849 -0.0399
14156W        W29625   1.965  14.721  14.628  0.3049  0.2614  0.3096
14157W        W29626   2.590  12.244  11.087 -0.0894  0.0140  0.2102
14158W        W29627  13.909  16.687   1.561 -0.1127  0.1286  0.1328
14159W        W29628   3.728  12.498   1.217 -0.0955 -0.1743 -0.1464
14160W        W29629  14.486   2.705   0.001 -0.1460  0.1747  0.1242
14161W        W29630   8.892   1.553  14.065  0.1571 -0.1902  0.2690
14162W        W29631  10.095   4.630   3.517  0.1285 -0.2329  0.1987
14163W        W29632  10.095   5.587  12.286  0.1329 -0.1778  0.1173
14164W        W29633   9.328  13.983  15.261  0.2524 -0.2054 -0.1462
14165W        W29634  16.656   7.427  13.473 -0.0002 -0.0064  0.2454
14166W        W29635  14.584   5.594   1.126  0.2204 -0.0413  0.0965
14167W        W29636   6.962  13.805  14.464 -0.1736  0.3593 -0.1693
14168W        W29637  13.308   3.043   4.536 -0.0112  0.0084 -0.1588
14169W        W29638  14.252   7.572   4.147 -0.5012 -0.2370  0.2989
14170W        W29639  17.794   5.233   3.229 -0.1667  0.0027  0.0307
14171W        W29640   3.018  14.476  13.152  0.1372  0.0560 -0.1533
14172W        W29641   3.002  10.470  13.606  0.0468 -0.0275  0.2150
14173W        W29642   3.732   7.209  12.007  0.0275  0.0682 -0.0614
14174W        W29643   1.232   6.755   2.951 -0.2472 -0.2405 -0.1960
14175W        W29644  16.447   6.835   1.311  0.4627 -0.1888 -0.2774
14176W        W29645   5.561   1.591  10.515 -0.1602 -0.0731  0.1181
14177W        W29646  12.430  13.974  13.322  0.1400 -0.0306  0.0563
14178W        W29647   3.828   4.411  11.332  0.1214  0.0539 -0.1948
14179W        W29648  18.355   3.301   0.887 -0.2936  0.1811 -0.0367
14180W        W29649   5.317   7.070   9.639  0.0288  0.0103  0.0157
14181W        W29650  14.158  10.707   5.301 -0.1775 -0.1887 -0.2945
14182W        W29651   3.028   3.276   1.555  0.1138 -0.3294  0.1016
14183W        W29652   9.423   9.706  10.804  0.1718  0.0201 -0.1358
14184W        W29653  16.567  15.389  11.868 -0.1301  0.0545 -0.0708
14185W        W29654   6.977   9.545  15.161 -0.0024 -0.2794  0.0555
14186W        W29655  15.205  16.429  15.409  0.1368 -0.1475 -0.0958
14187W        W29656  11.991   4.207  12.851  0.1576 -0.1543  0.1501
14188W        W29657   2.529  11.424  13.748  0.0225 -0.0264 -0.2230
14189W        W29658   0.170   2.904   1.067 -0.0875 -0.0435 -0.0279
14190W        W29659   0.202  15.026  15.635  0.3210  0.1213 -0.4735
14191W        W29660   0.821   4.227   4.197 -0.1096  0.1317 -0.3796
14192W        W29661  12.686  13.734   2.372  0.1513 -0.1264 -0.1203
14193W        W29662   3.568  10.127  10.824  0.0247 -0.2955 -0.0009
14194W        W29663   0.571  12.813  11.154  0.2221  0.0798 -0.1900
14195W        W29664  16.298   6.551  12.449 -0.0666 -0.1432  0.2231
14196W        W29665  16.192   2.147   0.049  0.0475 -0.4068 -0.4148
14197W        W29666   7.604   2.633   5.535 -0.0129  0.0909 -0.1114
14198W        W29667  14.469  11.321   4.622 -0.1536 -0.3417 -0.1898
14199W        W29668   5.888   4.028   1.224  0.2165 -0.0169  0.3860
14200W        W29669   0.222  13.625   4.021  0.0157 -0.0461  0.0481
14201W        W29670  10.042   0.972   3.894 -0.0553 -0.0162 -0.2905
14202W        W29671   5.598  10.499   3.165 -0.0974 -0.1738 -0.1260
14203W        W29672   8.760  11.167  13.711  0.3300 -0.0634  0.0103
14204W        W29673   8.129  12.483  12.144  0.1510  0.1988 -0.0843
14205W        W29674  11.274  11.661   3.933 -0.1326  0.1709 -0.0522
14206W        W29675   5.357  11.824   1.863  0.4130  0.2062 -0.0256
14207W        W29676   0.689   8.051  14.189 -0.0260  0.0189  0.1525
14208W        W29677   7.143  16.484   2.849 -0.3531  0.5062 -0.3128
14209W        W29678   9.088  17.918  11.831  0.0715 -0.0395 -0.0232
14210W        W29679  14.733  14.904   1.189 -0.2160  0.2951 -0.2145
14211W        W29680  14.606   5.463   5.065  0.1808 -0.1486 -0.0792
14212W        W29681   1.571  13.270   0.309  0.2855  0.0781 -0.0945
14213W        W29682  17.525   4.374   0.345  0.0481  0.0550  0.0968
14214W        W29683  12.096   4.639   3.273 -0.1851  0.0642  0.0861
14215W        W29684   6.987  15.386  12.395 -0.3083 -0.1877 -0.1929
14216W        W29685   9.102  11.995   1.375 -0.1488 -0.3695 -0.0289
14217W        W29686   4.214  16.478   1.490  0.0077  0.3179  0.2916
14218W        W29687  16.744  10.253  12.162 -0.2713  0.1278  0.1686
14219W        W29688   8.310  10.905   3.699  0.1716  0.1757  0.1531
14220W        W29689   0.366   1.506   2.142 -0.0319  0.0426 -0.0237
14221W        W29690  16.653  13.202   3.280 -0.4164 -0.1883 -0.2243
14222W        W29691   1.246   5.353   1.577  0.2666 -0.1350 -0.2690
14223W        W29692   1.355  11.787  12.908 -0.1376 -0.0166  0.0306
14224W        W29693   9.951   5.687   2.149  0.1224  0.2864  0.1643
14225W        W29694   8.755  17.652  13.050 -0.2041 -0.1426 -0.1447
14226W        W29695   3.292  11.583   0.967  0.0150 -0.0756  0.1235
14227W        W29696  11.821  16.249   2.837 -0.1682 -0.1410  0.0785
14228W        W29697  14.993   7.000  13.498 -0.0611  0.1569  0.2345
14229W        W29698   8.807  15.441  15.102  0.2531  0.4269  0.1246
14230W        W29699  13.429  14.422   2.341  0.0354  0.2334 -0.1257
14231W        W29700   4.527   1.294   0.319  0.1680 -0.0146 -0.4913
14232W        W29701   1.631   3.842  10.402  0.0711  0.1289  0.3777
14233W        W29702  16.603  13.942   1.331  0.0274 -0.1853 -0.2137
14234W        W29703  11.914   1.616   0.661 -0.0178 -0.4121  0.2248
14235W        W29704  16.669   4.294   0.220  0.0540  0.2754 -0.1054
14236W        W29705   6.948  12.548  14.825 -0.1547  0.1245  0.2809
14237W        W29706   4.433   0.376   1.501 -0.0140 -0.2337  0.0390
14238W        W29707  10.438   4.738   1.302  0.0291 -0.1653  0.0980
14239W        W29708  13.493  13.278  14.816 -0.0234  0.0613  0.1008
14240W        W29709   4.936  14.280   0.353  0.1642  0.2042  0.0974
14241W        W29710   5.577  16.754  12.636 -0.2596 -0.1272  0.1025
14242W        W29711   5.330  10.787  13.423 -0.1023 -0.0624 -0.0855
14243W        W29712  12.871  14.661   5.228  0.1564 -0.1471 -0.1338
14244W        W29713   2.934  16.441  10.786 -0.0462  0.1547  0.1844
14245W        W29714   9.359  10.207   0.662 -0.0519 -0.1412 -0.2497
14246W        W29715  13.913   0.926  14.219  0.1600  0.0563 -0.3131
14247W        W29716  13.602   2.752   0.163 -0.0263 -0.2657 -0.1606
14248W        W29717  14.794   8.496   1.529 -0.1084 -0.2375 -0.0806
14249W        W29718   0.246  13.993   2.633 -0.3370 -0.2463  0.4034
14250W        W29719  11.119  13.595  15.619 -0.0172 -0.1759  0.1970
14251W        W29720   1.703   5.558  15.055 -0.0244 -0.3151  0.1119
14252W        W29721   3.470   6.556  12.205  0.1158  0.1237 -0.0958
14253W        W29722   8.037   5.949   0.485  0.2334  0.0590 -0.1037
14254W        W29723  12.456   9.318   5.708  0.1175 -0.2076 -0.1353
14255W        W29724   1.369  15.082   2.533 -0.1651  0.3521  0.0348
14256W        W29725   2.407  10.505   5.518 -0.1088  0.0249  0.0944
14257W        W29726   8.213   4.130  11.644  0.3038  0.1339  0.3003
14258W        W29727  11.452   3.187   0.373  0.0776 -0.4187  0.2443
14259W        W29728  14.351   5.038   4.897 -0.1414  0.0761 -0.1486
14260W        W29729  10.809  18.122   1.425  0.2702 -0.1498  0.4320
14261W        W29730   6.635   4.886   6.291 -0.1418 -0.0065 -0.3139
14262W        W29731  12.698  16.676  10.510 -0.0239  0.0632  0.0592
14263W        W29732   3.434   3.518   3.704 -0.0751  0.3512 -0.0743
14264W        W29733   3.178   5.054   1.144 -0.1111  0.0980 -0.1291
14265W        W29734   6.675  16.019   1.700 -0.2018  0.1390 -0.0273
14266W        W29735   1.358   4.224  11.928  0.3469  0.3791  0.0560
14267W        W29736  12.087  17.528  13.895 -0.0237  0.1134 -0.0664
14268W        W29737  11.144   8.659   1.493  0.1348  0.3087 -0.1492
14269W        W29738   0.827   9.776   4.179  0.2257  0.0548  0.1111
14270W        W29739   1.616   4.030   5.203 -0.1365 -0.0614 -0.2627
14271W        W29740  16.818   7.675  11.137  0.1375  0.1051 -0.3041
14272W        W29741   7.173   4.620  13.001 -0.1980  0.3127  0.1562
14273W        W29742   6.557   9.009   3.237 -0.0266 -0.1274  0.0846
14274W        W29743  16.640   6.469  15.513 -0.0918  0.1770 -0.0756
14275W        W29744  13.304   2.467   4.924 -0.0627  0.0474  0.0796
14276W        W29745  16.337   3.062  12.198  0.1524  0.1137 -0.1849
14277W        W29746  12.980   5.526  11.639  0.1210 -0.0321 -0.0401
14278W        W29747   7.803   4.675  11.710 -0.1046 -0.0749  0.1557
14279W        W29748  13.010  16.723   4.557 -0.4901 -0.2249  0.3651
14280W        W29749  10.656  13.603   1.646 -0.0520  0.1830  0.1896
14281W        W29750  14.125   9.603  10.770  0.0889 -0.4461  0.0033
14282W        W29751   0.628   2.486   5.268  0.4904 -0.1533  0.0629
14283W        W29752   6.676   0.233   0.449  0.0891  0.2249  0.0051
14284W        W29753  11.286  12.482  14.019  0.1340 -0.2958  0.0300
14285W        W29754  12.706   5.440  14.204  0.2334  0.3651  0.1043
14286W        W29755   3.310   9.762   5.463 -0.1701 -0.0228  0.1286
14287W        W29756   6.289   1.617  14.066  0.0028  0.0258  0.4685
14288W        W29757  10.836  15.461   3.979  0.2737 -0.0560  0.0762
14289W        W29758   5.410   0.064  14.145 -0.0155 -0.0048  0.1034
14290W        W29759   0.183  13.393   3.520  0.0293  0.2206 -0.1370
14291W        W29760   4.010  14.225  14.559  0.1349 -0.0988  0.0633
14292W        W29761   6.060   3.579  11.409 -0.0082  0.2539  0.0598
14293W        W29762   7.110   7.884   1.379  0.0425 -0.3051 -0.0374
14294W        W29763  15.561   7.333   2.833  0.1290  0.0499 -0.0095
14295W        W29764  11.667   3.053  14.046 -0.3198 -0.1281 -0.0770
14296W        W29765  10.131   3.516  15.400 -0.0014  0.0359  0.1658
14297W        W29766  13.512   7.985   0.999  0.1391 -0.0759  0.2443
14298W        W29767  12.146   2.378   5.900  0.0810  0.0976  0.1033
14299W        W29768   1.013   9.965   1.858  0.0763  0.1241  0.1981
14300W        W29769   7.129  15.853   4.200  0.2274  0.1354 -0.1743
14301W        W29770  14.957  15.210  11.865  0.0178  0.2122 -0.2957
14302W        W29771  18.209  13.254  15.191  0.0891 -0.0119 -0.2534
14303W        W29772   9.447   4.715   5.213  0.2454 -0.0072  0.3205
14304W        W29773   9.311  14.307  11.585 -0.0657 -0.1424  0.2128
14305W        W29774  13.579   9.935  11.977 -0.1567 -0.0376  0.0992
14306W        W29775   8.892   6.490  15.334 -0.2649  0.0562 -0.2551
14307W        W29776   6.085  15.685   0.786  0.0716  0.0058 -0.3210
14308W        W29777  17.321  13.519   4.614 -0.2821 -0.1225 -0.2314
14309W        W29778  18.181   9.844  15.426 -0.1014  0.1496 -0.3254
14310W        W29779   7.241  11.877   2.824  0.1275 -0.1021  0.1546
14311W        W29780  12.750   7.862  14.975 -0.2081 -0.2393 -0.1113
14312W        W29781   2.806  17.863  14.434  0.1695  0.0261 -0.2473
14313W        W29782  18.157   3.571  14.149  0.2591 -0.0906  0.0251
14314W        W29783  16.097   6.108  13.491  0.1278  0.1255 -0.1794
14315W        W29784  14.915   8.064  11.289  0.0856  0.1945 -0.1368
14316W        W29785   9.330  10.369  14.549  0.2556  0.0258 -0.0654
14317W        W29786  18.064  16.541   0.318  0.2221  0.3481 -0.0882
14318W        W29787   8.487  15.700   0.377  0.1540 -0.1723  0.1788
14319W        W29788   5.923  12.989  12.851 -0.0185 -0.1757 -0.3909
14320W        W29789  13.758   7.752   2.055 -0.3493 -0.1772  0.0729
14321W        W29790   9.491  11.071   0.081 -0.1092 -0.2805 -0.1956
14322W        W29791   4.308  10.768   0.297 -0.1416  0.1482  0.1327
14323W        W29792   5.059  13.876   4.661 -0.0554  0.2825 -0.3061
14324W        W29793  13.666   5.931   0.764  0.0638 -0.0399  0.0287
14325W        W29794   5.471  11.967   3.420 -0.0025  0.1887 -0.0119
14326W        W29795   2.829  17.855   1.541 -0.1604 -0.0127  0.3069
14327W        W29796   7.280  14.966   4.669  0.0628  0.1073 -0.0132
14328W        W29797   9.067  14.982   0.633  0.2068 -0.2134  0.0303
14329W        W29798   0.511  10.264   1.018  0.1876 -0.2287 -0.1897
14330W        W29799  12.997  11.555   1.471 -0.3751 -0.1614 -0.2871
14331W        W29800   8.315  16.706   0.503 -0.1718  0.1593 -0.0088
14332W        W29801  15.965   8.286   2.035 -0.1910 -0.3576 -0.1390
14333W        W29802  17.930  13.608  11.925 -0.2279  0.1218 -0.0128
14334W        W29803  11.859   4.817  15.832  0.2133  0.1703  0.1178
14335W        W29804   3.252   2.886  12.834  0.2567 -0.1774 -0.1655
14336W        W29805  11.875   2.483  14.678  0.1789 -0.0361 -0.0965
14337W        W29806   2.614  15.264   1.959 -0.0765 -0.4574  0.0216
14338W        W29807   9.125  17.679  13.830  0.1510 -0.2580  0.2259
14339W        W29808   3.159  16.754   5.309  0.1425  0.1198 -0.0541
14340W        W29809   6.820   5.990   4.260 -0.1068 -0.1634 -0.0393
14341W        W29810   2.138  10.987   0.241 -0.0556 -0.2266 -0.2321
14342W        W29811   1.627   3.935   1.489 -0.0947  0.1287  0.0854
14343W        W29812   1.101  12.054   1.776 -0.1890  0.1505 -0.0122
14344W        W29813   4.266  14.984  12.101  0.2081 -0.1350 -0.2607
14345W        W29814   2.300  18.461  14.716 -0.2568 -0.2803  0.1231
14346W        W29815   3.171   5.838   0.490 -0.0367 -0.2894 -0.0063
14347W        W29816   3.606   3.190   4.602 -0.2040 -0.0768 -0.1322
14348W        W29817  12.519  16.493   4.706 -0.4317 -0.2136  0.3068
14349W        W29818   3.880  11.676   4.436  0.1140 -0.1017  0.2822
14350W        W29819  14.558   4.668  12.711 -0.2500 -0.3207  0.0308
14351W        W29820  10.120   7.296  12.925  0.0698  0.1085 -0.0068
14352W        W29821   2.303  16.015   4.000 -0.1177 -0.2643  0.1124
14353W        W29822   5.313  16.492  11.487 -0.1373  0.3347  0.1226
14354W        W29823   7.255   6.065  13.228  0.4889  0.0046 -0.4271
14355W        W29824  17.809  17.405  13.750 -0.2328 -0.1509 -0.0513
14356W        W29825  14.001   4.035  14.006  0.0729 -0.0062  0.0830
14357W        W29826   7.625   6.102   2.536 -0.2488  0.2520 -0.0652
14358W        W29827   8.281   9.023  13.995  0.0467 -0.1942 -0.1385
14359W        W29828   6.119   0.612  14.248 -0.1624  0.1477 -0.3993
14360W        W29829  16.328  12.543  10.692 -0.0122  0.1168  0.2828
14361W        W29830  14.035  16.614   3.337  0.1176 -0.1034  0.1035
14362W        W29831   8.516   4.912   3.035  0.1173  0.1967  0.1278
14363W        W29832   7.466   8.294   2.419 -0.2842  0.0593  0.4097
14364W        W29833   5.612   4.464  14.406  0.1676  0.0730 -0.3072
14365W        W29834   3.658  15.112   5.394  0.0280 -0.0057  0.0603
14366W        W29835   6.875  16.511  15.244  0.0816 -0.0868  0.3886
14367W        W29836   0.886  11.853   5.032  0.0763  0.2074 -0.2231
14368W        W29837   9.932   3.748   2.973  0.5779  0.0394  0.1951
14369W        W29838   0.023   7.549  13.125 -0.3960  0.1222  0.2129
14370W        W29839   3.784  13.491   1.026  0.3155  0.1014 -0.0401
14371W        W29840  17.300   2.272   1.810 -0.1734  0.2700  0.0664
14372W        W29841  10.819  13.846  14.354 -0.0895  0.3244  0.0173
14373W        W29842  16.845   0.076   1.821  0.2142 -0.1430  0.0717
14374W        W29843   8.830   5.662  15.884  0.1709 -0.3764 -0.1092
14375W        W29844   8.798   0.554  14.784  0.0015 -0.2225 -0.1079
14376W        W29845  18.046   8.845   3.436 -0.1350  0.3180  0.0531
14377W        W29846  17.227  12.611  11.403 -0.1302  0.1446 -0.1451
14378W        W29847   2.093  13.549   1.407 -0.1773 -0.3400 -0.2963
14379W        W29848   9.297  11.523   5.310  0.1676  0.0151 -0.1049
14380W        W29849   6.123   7.136  12.892  0.0887  0.0948 -0.0557
14381W        W29850   4.836  16.854   0.002 -0.1028  0.2432 -0.0021
14382W        W29851  13.302  16.826  14.464  0.2378 -0.3548  0.1522
14383W        W29852   1.557   5.142   0.633  0.0568 -0.0190  0.0955
14384W        W29853  11.839  12.907   4.021  0.0503  0.0536 -0.0900
14385W        W29854   4.319  13.785  11.520  0.0449  0.1895  0.0484
14386W        W29855   8.727  16.993   4.042  0.0080  0.0223  0.3022
14387W        W29856   9.640   5.251   3.995 -0.2628  0.3262  0.2828
14388W        W29857  10.128   0.791   4.390  0.0255 -0.0328  0.0653
14389W        W29858   3.932  15.414   2.861  0.0197 -0.4285 -0.0212
14390W        W29859  14.398   2.400  12.174  0.0811 -0.0874  0.4214
14391W        W29860  13.324  17.501  15.910 -0.0613 -0.0884 -0.4178
14392W        W29861  14.242   3.116  12.236 -0.2597  0.2026  0.0019
14393W        W29862   0.116   2.103   3.939  0.0733  0.0897 -0.0755
14394W        W29863  17.996   4.843  12.784  0.1876 -0.1234 -0.3647
14395W        W29864   5.215  11.271   5.160  0.1675 -0.0395  0.3488
14396W        W29865  16.102   5.463   3.308  0.1203 -0.0355  0.0093
14397W        W29866  17.642  10.424   1.959  0.2838  0.1215  0.3444
14398W        W29867   6.510  12.938   2.439  0.0945 -0.2370 -0.0355
14399W        W29868   0.548   8.846   0.869  0.1253 -0.1100 -0.1622
14400W        W29869  10.206   0.192   3.548 -0.1817 -0.2313 -0.0942
14401W        W29870  14.287   5.947   4.449 -0.2137 -0.2581  0.0789
14402W        W29871  11.464   2.857   5.116  0.0313 -0.1466  0.1164
14403W        W29872  13.855  18.186   3.434 -0.0283  0.0287  0.3152
14404W        W29873  13.413   7.463  13.405 -0.0919  0.0097 -0.1873
14405W        W29874   9.910   6.402   2.453 -0.1167  0.1407  0.0885
14406W        W29875   8.385   3.618  11.853  0.1536  0.0209 -0.2582
14407W        W29876  12.827   8.231  15.456 -0.1261  0.3041  0.1792
14408W        W29877   3.745   8.148   1.743  0.2012 -0.0568  0.1653
14409W        W29878  18.275  17.389   0.912  0.0427 -0.1502  0.0613
14410W        W29879  16.133   7.371   4.976 -0.0153 -0.0742 -0.1423
14411W        W29880   2.486  17.567  14.054 -0.1455 -0.1040 -0.0204
14412W        W29881  16.438   8.032  15.145  0.1546 -0.1198  0.0560
14413W        W29882  13.656   2.421   5.258 -0.3054  0.0979  0.0618
14414W        W29883  16.135   0.875  12.820  0.0763 -0.0260  0.0699
14415W        W29884  10.335  17.469  15.727 -0.0817 -0.1485 -0.0932
14416W        W29885   6.794  10.042   5.947  0.3393  0.0244  0.1090
14417W        W29886  15.799   3.523  11.639  0.2410 -0.1610  0.1836
14418W        W29887   2.682   2.592  11.843 -0.1173  0.0503  0.1903
14419W        W29888  10.064  13.208  13.342 -0.2342 -0.0131  0.1319
14420W        W29889  10.681   8.675  14.921  0.0513 -0.2537  0.0539
14421W        W29890  14.703  14.524   0.880  0.1746  0.0592  0.1666
14422W        W29891   9.644   5.337  15.164  0.0909  0.0171  0.3542
14423W        W29892   1.230   1.226  12.637  0.1443 -0.0910  0.0137
14424W        W29893   9.022  15.786   1.992  0.0482  0.3030 -0.0769
14425W        W29894  16.635  14.738   0.265 -0.0215  0.2927 -0.3980
14426W        W29895  10.442   5.398   4.616  0.2219 -0.1184 -0.1730
14427W        W29896  13.849   9.310  11.955  0.1621  0.0111 -0.4556
14428W        W29897   8.432   0.394   0.373  0.2426  0.3120 -0.1276
14429W        W29898   3.437   3.333  11.641 -0.1410 -0.0267 -0.1510
14430W        W29899   5.851   1.789   0.937 -0.1983 -0.1251  0.0703
14431W        W29900  10.222  17.603   0.869 -0.0770  0.1744  0.0334
14432W        W29901   3.128   1.990   2.756  0.1589  0.1315 -0.1600
14433W        W29902   7.939  15.562   3.714 -0.1406  0.0602  0.2345
14434W        W29903  14.303   2.276   3.164 -0.0428  0.1195 -0.0889
14435W        W29904  11.299  17.102  10.459 -0.0531 -0.1849  0.0939
14436W        W29905  16.186   3.663  14.114  0.0675 -0.1736  0.1738
14437W        W29906   0.574  16.516  14.310 -0.2600 -0.0596  0.2721
14438W        W29907  14.546  10.930  13.562 -0.4714  0.3426  0.1670
14439W        W29908  18.374  12.943   2.075 -0.1895  0.1639  0.0712
14440W        W29909   0.376   7.097  11.275  0.2098 -0.3166  0.2491
14441W        W29910  11.099   8.438   0.661  0.2594 -0.2974 -0.0208
14442W        W29911  15.926  16.829   1.844  0.5217  0.1899  0.1765
14443W        W29912   0.119   5.927   5.017 -0.0455 -0.3147 -0.3353
14444W        W29913  13.906  15.400   1.367  0.1741  0.0380  0.4164
14445W        W29914   5.414  11.670  12.550 -0.0635  0.1648  0.1503
14446W        W29915   5.847   6.268  12.491  0.1877  0.2213  0.0523
14447W        W29916   2.323   7.417   0.067 -0.0936  0.2174 -0.1051
14448W        W29917  13.749   7.483  12.278  0.0758  0.3981  0.3769
14449W        W29918  15.575  11.492   5.340 -0.1024 -0.0584 -0.0199
14450W        W29919   2.040   4.621  15.117  0.3105 -0.1758  0.0814
14451W        W29920  10.379   7.761   1.591  0.1413  0.5121  0.0565
14452W        W29921  17.255  16.628   1.616 -0.1476  0.0725 -0.2062
14453W        W29922   0.606  16.476   4.581  0.0870  0.0423 -0.1083
14454W        W29923  10.215   6.107   2.161  0.4882 -0.1260 -0.1809
14455W        W29924  17.479  12.520  13.948  0.1349  0.0767 -0.1030
14456W        W29925   4.117  11.768  12.250 -0.1720 -0.2443  0.3650
14457W        W29926   9.319  10.456  13.597  0.2252  0.0036  0.1190
14458W        W29927  13.002   3.374  12.741 -0.0618  0.0136  0.1662
14459W        W29928   1.769  18.066   2.807 -0.0274 -0.1520  0.2541
14460W        W29929   7.576   7.270   0.627  0.0760 -0.1612 -0.3425
14461W        W29930   6.079  11.248   1.340  0.1934  0.2124  0.0471
14462W        W29931   4.490   0.865  13.368 -0.7686  0.1338  0.0514
14463W        W29932  15.909   8.920   5.122 -0.1852  0.0021  0.0380
14464W        W29933   7.773   3.008  14.559  0.0462  0.0050  0.0682
14465W        W29934  17.735   9.559  10.870 -0.0110  0.2636 -0.2504
14466W        W29935   5.151   9.624  15.843  0.2029 -0.0684 -0.1856
14467W        W29936   4.593  14.047   3.643  0.4594  0.0513 -0.0797
14468W        W29937  12.375  14.232  10.556 -0.1549 -0.0816 -0.3184
14469W        W29938  12.756   8.006  13.924 -0.0649 -0.1060 -0.1340
14470W        W29939  12.056   6.884  12.246  0.0367 -0.0298  0.2283
14471W        W29940   6.556   5.227  14.553 -0.0077  0.3086 -0.2127
14472W        W29941  17.228  16.161  13.981  0.0930 -0.0328 -0.0111
14473W        W29942  12.542   2.092  11.216 -0.0384 -0.1296  0.2182
14474W        W29943   6.255   1.902  13.026  0.0537  0.0904  0.2796
14475W        W29944   0.761   5.970  12.349 -0.2116 -0.1246  0.1285
14476W        W29945   6.393   7.002  13.546  0.0493  0.1103  0.0970
14477W        W29946   9.320  17.751  12.253 -0.1812 -0.0944 -0.1836
14478W        W29947  17.125   4.300  11.303 -0.1641  0.0379 -0.3436
14479W        W29948  15.642   8.348   0.759  0.1551 -0.1251 -0.1256
14480W        W29949   0.851  15.405  14.153 -0.1107  0.0298 -0.0873
14481W        W29950   6.308   6.898   2.014 -0.1655 -0.1276 -0.0284
14482W        W29951  15.857  16.989  11.426  0.0971  0.1446 -0.0685
14483W        W29952  12.453   9.400  11.518 -0.2522 -0.2816 -0.0178
14484W        W29953  15.329  17.891  15.798 -0.0733 -0.1990  0.3596
14485W        W29954  16.651   4.247  13.107 -0.2142  0.1811 -0.2583
14486W        W29955   4.180   8.909  12.618 -0.1293 -0.0084 -0.3100
14487W        W29956   2.234  11.289  12.104 -0.1587  0.1587 -0.1062
14488W        W29957  14.671   7.872  13.665 -0.0735  0.0236 -0.1421
14489W        W29958   0.434  15.173   1.567 -0.1050  0.0349  0.0934
14490W        W29959   5.120  10.679   3.218  0.1094  0.0647  0.0036
14491W        W29960   1.199  16.108   0.669  0.0145  0.0324 -0.1298
14492W        W29961  18.185   4.367  12.624 -0.1542 -0.1285 -0.1909
14493W        W29962  13.923  16.819   0.244  0.0886 -0.2811 -0.2421
14494W        W29963  10.051  18.174   0.982  0.0079  0.0365 -0.2347
14495W        W29964  16.514   3.683   1.888  0.2762  0.0171 -0.0610
14496W        W29965   6.465   6.549  15.905 -0.2612  0.0899 -0.0154
14497W        W29966  18.126   9.849   3.273  0.0170  0.0525  0.1535
14498W        W29967   5.425  16.434  12.977  0.2747  0.0737 -0.2370
14499W        W29968  18.315   0.414  13.573 -0.2681 -0.0157  0.0869
14500W        W29969   4.376  15.620  14.028 -0.3264 -0.1402  0.0427
14501W        W29970   9.190  11.204   5.750  0.0991 -0.1155 -0.0339
14502W        W29971   9.618   9.831  14.363  0.1874 -0.2214  0.1260
14503W        W29972  15.418   3.091  11.148  0.1067  0.1369 -0.1661
14504W        W29973   6.886  14.314   2.148  0.4595 -0.0659  0.1307
14505W        W29974  16.287   9.406  13.575  0.1596 -0.0687  0.0271
14506W        W29975  18.299  10.595   9.652 -0.1623  0.1769 -0.1855
14507W        W29976   7.156  16.752   3.558 -0.2079  0.4336  0.0853
14508W        W29977  16.167   3.766  10.566  0.0777 -0.0765 -0.2659
14509W        W29978  18.120   4.468  12.100  0.0201 -0.1331  0.0583
14510W        W29979   2.141   2.331  15.757  0.0929 -0.1853  0.1645
14511W        W29980   6.962  13.273  14.441  0.3000  0.0196 -0.0855
14512W        W29981  17.326   5.148   3.054  0.0176  0.0038 -0.0402
14513W        W29982   3.004  15.411   4.491 -0.0848 -0.5291 -0.0892
14514W        W29983  11.777  14.664  11.189 -0.4959  0.1393  0.1969
14515W        W29984  16.755  13.716   0.294 -0.2887  0.2458 -0.2358
14516W        W29985  15.738  11.220   3.603 -0.0998 -0.2118  0.0335
14517W        W29986   5.011   4.890  15.321 -0.1665  0.1775 -0.0091
14518W        W29987  12.563  15.314  12.985  0.1320 -0.2978 -0.0476
14519W        W29988  16.794  15.767  10.759 -0.0946 -0.0005  0.0265
14520W        W29989   6.868  16.821   3.120 -0.1692  0.1314 -0.1002
14521W        W29990  16.536  13.263  14.509  0.0818 -0.2465 -0.0709
14522W        W29991   0.492  18.169   1.142  0.0198  0.0539  0.2234
14523W        W29992   5.713   1.174   2.901  0.1082  0.0163  0.1114
14524W        W29993  14.819   2.438  14.197 -0.1141 -0.0885  0.0938
14525W        W29994  10.774  17.384   4.151 -0.3536  0.0313 -0.0253
14526W        W29995  11.822   1.754   4.438 -0.0408 -0.1983  0.0917
14527W        W29996  13.679   3.935   1.628 -0.0874  0.1766  0.0387
14528W        W29997   2.415  10.413   4.443  0.1600  0.0391  0.0818
14529W        W29998   9.660   0.283   0.008 -0.2957 -0.0650 -0.0208
14530W        W29999   8.778   9.024  11.874 -0.3192 -0.0281  0.2039
14531W        W30000   0.628   8.593   4.985  0.2692 -0.4594  0.1693
14532W        W30001  18.260  15.700  12.427  0.1123  0.2514 -0.0673
14533W        W30002   7.080  14.479   5.197 -0.1374  0.0811  0.1304
14534W        W30003   2.685   1.926   4.403  0.1906  0.3534  0.0289
14535W        W30004  12.500   3.419  11.299 -0.3171  0.0414  0.1099
14536W        W30005  14.679   0.409  13.531  0.1106 -0.1261 -0.2103
14537W        W30006  14.103   5.578  13.877 -0.0457  0.1192 -0.0718
14538W        W30007   5.539   7.783   0.954  0.2139  0.5062 -0.2504
14539W        W30008  12.140  12.105   1.496  0.2462  0.3457 -0.2343
14540W        W30009  16.316   5.208  14.185  0.1865  0.1023 -0.2184
14541W        W30010   0.266   1.233  13.174  0.0031  0.0961 -0.2200
14542W        W30011   9.526   0.525   2.114 -0.1484  0.1112  0.2381
14543W        W30012   7.378  17.801   5.369 -0.0108  0.3597  0.1286
14544W        W30013  11.724   3.529   1.647 -0.2156 -0.2995  0.0419
14545W        W30014   3.992   4.622   2.046 -0.2494  0.0327 -0.2378
14546W        W30015  18.058  15.901   4.817  0.2464 -0.1250 -0.0977
14547W        W30016   0.993  11.680   4.559  0.1068  0.0090  0.0132
14548W        W30017   3.122   3.829   4.000 -0.0780 -0.1382  0.2117
14549W        W30018  15.692   7.842   0.766  0.0466 -0.0014  0.5274
14550W        W30019   7.865   8.852   1.844 -0.1512 -0.0499 -0.1596
14551W        W30020   0.756   1.755   2.819  0.0880  0.3492  0.0377
14552W        W30021   4.995  18.223   9.963 -0.1790 -0.0059  0.0027
14553W        W30022  11.556  14.279   0.980 -0.0275  0.2074 -0.1854
14554W        W30023  14.484   3.962  11.574  0.2020 -0.1309  0.2485
14555W        W30024   1.693  17.277   0.466  0.0602  0.0979  0.2872
14556W        W30025  10.697   8.300  11.197  0.3027 -0.2421 -0.2856
14557W        W30026   5.024   6.224   4.664 -0.0710 -0.2595 -0.1069
14558W        W30027   5.242  10.620  14.830 -0.0526  0.0069 -0.0073
14559W        W30028  15.560  10.178  11.212  0.3002  0.0696  0.0102
14560W        W30029   0.911   4.366   1.790  0.0025  0.0527  0.2120
14561W        W30030   4.759  10.507   2.763 -0.1387  0.1552 -0.0186
14562W        W30031   3.398   6.669   0.674  0.0683 -0.0235  0.1274
14563W        W30032  14.227   5.953   3.839  0.2385 -0.2949  0.1218
14564W        W30033   1.364  17.937  15.586  0.1738  0.2436  0.1897
14565W        W30034   9.649  13.509   2.532 -0.2719 -0.4626 -0.0977
14566W        W30035  18.156  11.015   1.418  0.3405  0.1478 -0.1538
14567W        W30036   1.311   9.662   4.102 -0.0108 -0.0781 -0.2310
14568W        W30037   0.289   6.509   0.847 -0.0828 -0.1171  0.4348
14569W        W30038   0.300  11.103  10.575 -0.3463  0.0965 -0.0317
14570W        W30039   9.487   6.381   0.066  0.0386 -0.1635  0.0724
14571W        W30040  16.873   4.958  13.737  0.0218 -0.0990 -0.0038
14572W        W30041  11.379   5.348  12.176 -0.1620 -0.2475 -0.0431
14573W        W30042   4.089   0.906  13.034  0.2405  0.1046 -0.1165
14574W        W30043  12.894   6.795   4.635  0.1109 -0.5041 -0.4157
14575W        W30044  14.062  16.097  11.226 -0.2394  0.0467  0.3991
14576W        W30045  11.665   1.768  15.693  0.1701 -0.3594  0.2442
14577W        W30046   6.026  16.185   4.660  0.0570  0.2239 -0.1734
14578W        W30047  13.595   1.616  12.440  0.0135  0.1162  0.0940
14579W        W30048   1.452  16.524   0.545 -0.2870 -0.1228 -0.0453
14580W        W30049   1.811  18.049   0.019 -0.0108  0.0584  0.1735
14581W        W30050   0.752  12.419   1.803  0.2042 -0.0180 -0.2226
14582W        W30051   6.071  17.068   4.545  0.2651 -0.0731 -0.0702
14583W        W30052   6.613   5.211   1.356 -0.1812  0.2841 -0.1174
14584W        W30053   6.990  16.734   4.435 -0.1032 -0.1544 -0.3187
14585W        W30054   0.628  13.643  15.609 -0.0710  0.0825  0.2743
14586W        W30055   8.454   7.114  11.714 -0.0653 -0.0476  0.1098
14587W        W30056  14.820  10.650   9.979  0.0592  0.1813 -0.0815
14588W        W30057   8.072  10.445   3.617 -0.2567 -0.0929  0.3956
14589W        W30058   8.161   9.946   0.582 -0.1394 -0.0961 -0.1683
14590W        W30059   2.967  13.020   2.520  0.1371  0.0904  0.2611
14591W        W30060   9.414  11.924  13.349  0.1060 -0.3841 -0.5959
14592W        W30061   2.598   9.416   1.232 -0.2558 -0.3363  0.6040
14593W        W30062   6.863  17.268   2.364  0.2840 -0.0059  0.2493
14594W        W30063   1.889   8.241  15.715 -0.1673 -0.2438 -0.1004
14595W        W30064  12.983   4.603  12.611  0.2206 -0.2661  0.1222
14596W        W30065  16.676   6.545  12.786 -0.1570 -0.2839 -0.1029
14597W        W30066   3.505   0.189  15.585  0.0958  0.2295  0.0143
14598W        W30067  10.575   3.374  15.112 -0.0574  0.1372 -0.3259
14599W        W30068   1.870  10.282  14.551 -0.1400  0.1829 -0.1472
14600W        W30069  10.155  15.951  12.353 -0.0275  0.1791  0.0848
14601W        W30070  10.853   1.282   5.033  0.0874 -0.0001  0.0899
14602W        W30071  13.600  10.996   0.271 -0.1978  0.2683 -0.0923
14603W        W30072   0.286   1.633  11.206  0.1215  0.3720 -0.0914
14604W        W30073   4.719   1.005   1.127 -0.2288  0.0258  0.1005
14605W        W30074  10.870   3.344  13.002 -0.1677  0.1646 -0.1884
14606W        W30075   8.044  13.804   0.363 -0.2079  0.2568 -0.0280
14607W        W30076  16.778  11.696  12.076  0.0431  0.1510  0.1322
14608W        W30077   2.409   6.256   2.460  0.2404  0.2563  0.0179
14609W        W30078  12.051  15.182  13.657  0.1066  0.0767 -0.2496
14610W        W30079   1.049   4.792  14.131 -0.0870  0.2742 -0.1220
14611W        W30080   9.928  17.463  15.082  0.2314 -0.1200  0.2234
14612W        W30081  13.209  18.431  11.875  0.0459 -0.2989 -0.2903
14613W        W30082   7.262  10.258  15.735  0.2358  0.0257 -0.1530
14614W        W30083   3.351  16.140  15.031 -0.0804  0.1699  0.4637
14615W        W30084   0.034   8.421   1.808  0.0137 -0.1459 -0.0614
14616W        W30085   8.212  16.111   0.667 -0.2552  0.1440 -0.2865
14617W        W30086   9.065  15.682   2.572  0.0057 -0.4440 -0.0835
14618W        W30087  11.244  10.953  15.884  0.3271  0.3578 -0.3277
14619W        W30088  16.108   0.394  12.622 -0.1362  0.2099  0.0151
14620W        W30089  10.991  14.788   1.012 -0.0420  0.2258  0.0263
14621W        W30090   4.026  10.428  11.083 -0.0797 -0.2658  0.3288
14622W        W30091   0.187  14.506  11.249  0.0935 -0.1255 -0.1173
14623W        W30092   3.883   2.748   2.849 -0.0451 -0.0182 -0.1617
14624W        W30093   5.362   0.619   0.566  0.0140  0.5347  0.1817
14625W        W30094   5.459  14.611  12.270 -0.1911  0.1880  0.2971
14626W        W30095   3.141  10.409  14.132 -0.0994  0.1935 -0.0724
14627W        W30096   3.838  17.277  11.389  0.0681  0.0977  0.2214
14628W        W30097  16.033  18.227   2.066 -0.0579  0.0675 -0.1303
14629W        W30098  11.932   5.442   4.974 -0.0395 -0.3107  0.0416
14630W        W30099   4.907  12.423  14.295 -0.0874 -0.1217 -0.4313
14631W        W30100   0.507   0.278  12.618 -0.0439 -0.3023 -0.0393
14632W        W30101   4.373  17.860   3.792 -0.0940 -0.2390  0.1144
14633W        W30102   4.701   3.900   2.236  0.2829 -0.2330  0.1444
14634W        W30103   8.028   2.395  14.233  0.3146 -0.3524 -0.0584
14635W        W30104  13.169   8.811  11.352 -0.1310 -0.1754 -0.0661
14636W        W30105   4.958  13.375  12.517  0.2043  0.0713 -0.2703
14637W        W30106   3.517   4.204   0.502  0.0482  0.0179 -0.2247
14638W        W30107  14.021   3.593   1.788  0.0806 -0.1308  0.1114
14639W        W30108   0.270   4.875   4.495  0.1325 -0.1203 -0.1691
14640W        W30109   5.087   7.884  13.434  0.1398 -0.3124  0.0326
14641W        W30110   7.906  12.219   1.780  0.0195  0.0359  0.0428
14642W        W30111   1.245   1.303  14.357  0.0618  0.0356  0.0082
14643W        W30112   9.294  10.835   0.494 -0.0514  0.1355  0.0369
14644W        W30113  17.295   1.330  10.421  0.1607  0.0748  0.2751
14645W        W30114  17.338  16.288  12.582 -0.1723  0.3585 -0.0914
14646W        W30115   1.945  14.605  13.102  0.4098 -0.0589 -0.2133
14647W        W30116   6.018  12.618  12.095  0.2008  0.1118 -0.0728
14648W        W30117  13.637   1.521   0.734 -0.0555  0.0674  0.2185
14649W        W30118   6.848   4.981  12.822 -0.0429  0.0281 -0.2928
14650W        W30119   8.233  11.172   4.551 -0.0688 -0.1612 -0.0767
14651W        W30120   9.638  13.103   4.882 -0.1123 -0.0290  0.1609
14652W        W30121   6.021  14.592   1.914 -0.2052  0.2887  0.0718
14653W        W30122   9.351   6.843  12.669  0.2196  0.1580  0.0831
14654W        W30123   4.107  14.207   0.079  0.1297 -0.3252 -0.2689
14655W        W30124   0.093   0.066   1.332  0.0334  0.0464  0.0899
14656W        W30125  18.303  12.563  13.463 -0.1690  0.1575  0.0954
14657W        W30126  11.173   9.936   3.278 -0.1246 -0.1704  0.0372
14658W        W30127   3.283   7.014  12.383  0.2634  0.0285 -0.0232
14659W        W30128   8.054   1.547  15.155  0.2529  0.2269  0.0477
14660W        W30129   6.319  14.862   0.978  0.3999 -0.2663 -0.0868
14661W        W30130   6.292   6.160   0.440 -0.2695 -0.0229  0.3428
14662W        W30131   6.247  17.688   3.932  0.2168 -0.1474 -0.2297
14663W        W30132  13.311  15.193   2.925 -0.2657 -0.0552  0.4397
14664W        W30133  16.658  14.810   0.830  0.0602  0.0388  0.1833
14665W        W30134   2.394   9.347  11.321 -0.0240 -0.1527 -0.0992
14666W        W30135  12.169  12.182   3.940  0.1226 -0.0240 -0.0715
14667W        W30136  15.198  10.757   1.434 -0.2110  0.1662  0.3079
14668W        W30137  10.480  10.721  11.827 -0.2191  0.1376  0.3503
14669W        W30138  12.321   9.131   0.814  0.2325 -0.2461  0.0825
14670W        W30139  13.862  12.062   3.711  0.0932 -0.0726 -0.1829
14671W        W30140  13.785  14.004  15.511 -0.0066  0.0063 -0.3418
14672W        W30141   1.288   5.843  11.594  0.2221  0.0428 -0.3438
14673W        W30142  11.664  12.465  13.588  0.1504 -0.2278  0.0063
14674W        W30143  10.264  15.039  11.092  0.3270 -0.0410  0.4825
14675W        W30144   8.835   7.882   3.252  0.2637  0.0697  0.0252
14676W        W30145   9.125   2.478   3.797 -0.0847  0.2755 -0.1469
14677W        W30146  14.437   8.296   2.481 -0.0463  0.3317  0.0921
14678W        W30147  17.872  18.158   4.036 -0.0073  0.2447  0.0829
14679W        W30148  15.418  15.423  15.520  0.2014  0.1894 -0.1529
14680W        W30149  10.036  15.030   3.170 -0.0248 -0.1136 -0.1583
14681W        W30150  10.295  11.306  13.942  0.1535  0.0715 -0.1741
14682W        W30151  12.773   3.545   0.660 -0.0519 -0.0664  0.0904
14683W        W30152  16.521  13.640  10.100 -0.0060 -0.1044  0.3783
14684W        W30153  15.042  10.386  10.395  0.4824 -0.1334 -0.0715
14685W        W30154   0.695  16.947   5.022  0.0697  0.0387  0.0528
14686W        W30155   7.660  14.359   1.022  0.0777  0.0512  0.3711
14687W        W30156  11.712   1.093  13.925 -0.0507  0.1116 -0.2332
14688W        W30157  12.173  10.467  14.607 -0.0599 -0.0755  0.1250
14689W        W30158   6.756  16.905  10.679  0.0984  0.1259  0.0106
14690W        W30159  11.314  10.888   5.080  0.0085 -0.0815  0.0910
14691W        W30160   1.836  10.109   5.947  0.0654  0.1013  0.1111
14692W        W30161   7.912   0.671   1.280 -0.0961  0.3127  0.0064
14693W        W30162  17.281   3.071   0.311 -0.1009 -0.0975  0.1760
14694W        W30163  14.144   3.958  12.489 -0.3371  0.1091  0.3332
14695W        W30164   7.077  13.313   1.759 -0.0291 -0.1237  0.0070
14696W        W30165   1.504  14.547   3.376  0.2502 -0.0958  0.1162
14697W        W30166  16.437   7.983   2.759  0.1153  0.1711  0.0443
14698W        W30167  13.082   1.427  13.926 -0.1477 -0.0493  0.2098
14699W        W30168  17.205   8.651   4.002  0.0202  0.1524 -0.0432
14700W        W30169   7.304  15.020  12.886  0.1123 -0.0269 -0.0357
14701W        W30170   4.263   6.779   1.035  0.0289  0.3128 -0.0528
14702W        W30171  13.778  13.093  11.135 -0.2091  0.1714 -0.2031
14703W        W30172  14.516   2.361   3.617 -0.1145 -0.2858  0.1474
14704W        W30173   2.000   9.673   2.815 -0.4907  0.1485  0.0559
14705W        W30174  14.440  10.633   3.108  0.0576  0.1126 -0.1000
14706W        W30175  11.890  13.824  10.139 -0.2407 -0.1617 -0.3726
14707W        W30176   2.545  10.744   3.079  0.1464  0.2762 -0.1309
14708W        W30177   9.226   4.866  10.687 -0.0378 -0.0515  0.1099
14709W        W30178   8.647   3.316  11.026 -0.0149 -0.1376 -0.0668
14710W        W30179  14.800   4.134  15.743 -0.0424  0.1016  0.0593
14711W        W30180   8.972   8.237  15.045  0.3667  0.2205  0.0573
14712W        W30181   3.658   5.297  12.692  0.3362 -0.3608  0.0609
14713W        W30182  11.769  11.696  14.916  0.0781  0.1802  0.0213
14714W        W30183  10.889  16.720  11.196  0.3701  0.2026  0.1245
14715W        W30184  15.264   8.992  11.373  0.0578  0.3587 -0.0193
14716W        W30185   1.186   6.828   2.461  0.0111 -0.1615  0.1054
14717W        W30186   0.937   0.811  14.294  0.0761  0.2516 -0.1571
14718W        W30187  13.316  12.909  11.713  0.0159 -0.0097  0.3236
14719W        W30188  11.157  13.876  15.200  0.1930  0.1509 -0.0354
14720W        W30189  16.540   7.999  10.699 -0.2650 -0.0914 -0.1313
14721W        W30190   0.906   0.717  11.002 -0.1834  0.0402 -0.1749
14722W        W30191  12.210  14.738  12.723 -0.0142  0.0835 -0.1609
14723W        W30192  11.369   7.041  13.939  0.0328  0.0151  0.0800
14724W        W30193  11.971   8.134  15.065 -0.3686  0.1294 -0.1655
14725W        W30194   8.932   0.321   3.350  0.2583 -0.1176 -0.2162
14726W        W30195  11.720  18.382   4.248 -0.2219 -0.1126  0.0327
14727W        W30196  10.233  12.460  14.247  0.1385 -0.5786 -0.0378
14728W        W30197   3.523   5.026   4.370  0.0437  0.3835 -0.0107
14729W        W30198   2.839  11.619   1.614  0.1528 -0.0980 -0.0616
14730W        W30199   0.203  17.077   3.181  0.1150  0.2850  0.0084
14731W        W30200  15.796   2.148   3.456 -0.2132  0.1072 -0.3202
14732W        W30201   2.176   7.156  15.031  0.0837  0.2050  0.4324
14733W        W30202  14.652   0.992   1.293  0.4335 -0.1773 -0.0421
14734W        W30203   5.114  11.624   3.094  0.1893 -0.1271  0.3566
14735W        W30204   0.898   8.888  15.823 -0.3514 -0.2854 -0.1457
14736W        W30205   1.539  10.421   0.740  0.0430  0.0110 -0.1607
14737W        W30206  14.013   5.730  15.233  0.1296  0.1731  0.3036
14738W        W30207   3.233   1.043   6.333 -0.2115 -0.0384 -0.5284
14739W        W30208  12.126  11.510   4.568 -0.0215  0.1057 -0.1762
14740W        W30209   0.714  13.319  11.269 -0.2498  0.0901  0.2486
14741W        W30210   2.690  12.140  11.566 -0.1273  0.3057  0.1654
14742W        W30211   4.993   8.298  11.992 -0.3141  0.2267  0.4122
14743W        W30212  13.406   5.817  12.305  0.0163 -0.0375  0.2543
14744W        W30213   9.591   7.399  12.927  0.1364  0.1253  0.1436
14745W        W30214   6.236  13.160  10.888  0.0436 -0.2959  0.0232
14746W        W30215   9.856   4.235   1.946  0.1209 -0.0311 -0.1173
14747W        W30216  17.238   4.663  14.140  0.0492 -0.1910  0.1407
14748W        W30217   5.053   7.316   1.807  0.1502 -0.0164 -0.1548
14749W        W30218   8.130  11.690   1.088  0.0045 -0.4089 -0.1494
14750W        W30219   1.954  17.341   1.826  0.2242 -0.1876  0.3795
14751W        W30220   0.604   8.221   3.435 -0.2563  0.2044 -0.1799
14752W        W30221   0.732  11.640  11.903  0.2996 -0.3066 -0.0065
14753W        W30222  17.843  13.739   4.917  0.1340 -0.1356  0.0761
14754W        W30223   6.665   5.367   4.125  0.0949 -0.0627 -0.1687
14755W        W30224   9.543  16.310   1.238 -0.2927 -0.0965  0.0193
14756W        W30225   6.858   8.361  15.194 -0.2878  0.1723  0.0884
14757W        W30226  14.330  11.880  10.848 -0.0226 -0.0308  0.2066
14758W        W30227   6.612  17.223   0.475 -0.0172 -0.1834  0.1764
14759W        W30228   0.680  14.265   2.533  0.4274 -0.1477  0.2083
14760W        W30229  14.124   1.601   3.036  0.0150  0.0440 -0.0419
14761W        W30230  16.638  15.446   0.747 -0.3149  0.3084 -0.1597
14762W        W30231   3.008   1.757  12.329 -0.0031  0.0194 -0.2203
14763W        W30232  14.574   7.790  12.522  0.3866 -0.1018 -0.0097
14764W        W30233   3.717   8.937   0.833  0.2707 -0.0204 -0.2918
14765W        W30234   8.092   8.651   4.945 -0.0879 -0.0839  0.0905
14766W        W30235  17.881  16.413  12.874 -0.0940  0.1963  0.1701
14767W        W30236   9.294   4.065  13.959  0.0487 -0.4189 -0.5079
14768W        W30237  15.394  17.502   4.933 -0.0401  0.0874  0.0494
14769W        W30238  11.055   3.379   0.059 -0.1494  0.0369  0.1763
14770W        W30239  10.535  14.530   0.834 -0.2004  0.1951  0.1026
14771W        W30240   7.228   5.534  14.842 -0.1587 -0.0545 -0.1887
14772W        W30241   4.230  13.498   1.510  0.0851 -0.0437  0.1060
14773W        W30242   7.453   9.393   3.001 -0.2738  0.1872 -0.6211
14774W        W30243   5.867   5.320   0.690 -0.1317 -0.0571  0.1763
14775W        W30244  17.751  13.068  12.121 -0.2971 -0.1756  0.0101
14776W        W30245   1.249   5.380  12.863 -0.1581  0.0085 -0.0956
14777W        W30246   2.082  17.405   2.857  0.2295 -0.1693 -0.3879
14778W        W30247   2.554   7.317  14.673 -0.0842 -0.1132 -0.0507
14779W        W30248  14.916  12.973   5.019 -0.0572  0.0484  0.1097
14780W        W30249  16.876   9.660  12.270 -0.0019 -0.1002  0.1950
14781W        W30250   8.206   3.316  13.546 -0.1709 -0.2778 -0.1554
14782W        W30251   3.126   2.279  13.719 -0.1842 -0.1380  0.0692
14783W        W30252   8.534   9.319  10.058 -0.0601  0.0733  0.0280
14784W        W30253   6.304   6.201   4.481  0.0823  0.0951 -0.0952
14785W        W30254  16.984   4.013  10.613  0.0795  0.2382 -0.2190
14786W        W30255  12.491  17.156   5.305  0.0256  0.2085  0.1115
14787W        W30256  13.805  17.085  14.738  0.2949 -0.0696 -0.2413
14788W        W30257   8.457  13.123   4.430  0.3162 -0.0949 -0.0422
14789W        W30258  17.162   2.443  14.378 -0.1031  0.1480  0.2404
14790W        W30259   5.843  18.228  15.282  0.1752 -0.1053 -0.2713
14791W        W30260   4.953   1.038   5.522  0.0058  0.1821  0.2987
14792W        W30261   9.923  17.139  14.219  0.1095  0.0156 -0.1271
14793W        W30262   0.865  13.712  14.634 -0.2327 -0.1474  0.2441
14794W        W30263   2.422  15.347  15.030 -0.0235 -0.0288  0.0703
14795W        W30264   1.881   0.125   3.797  0.2356 -0.1031  0.1650
14796W        W30265   5.972   8.788  10.371  0.0015 -0.3903 -0.3067
14797W        W30266   0.670  17.935   4.904 -0.3021  0.0355  0.0277
14798W        W30267   5.017  16.455   2.780 -0.2810  0.1037  0.0460
14799W        W30268  10.614  11.000  12.810  0.0663  0.0631  0.0033
14800W        W30269  13.037  10.865   5.248 -0.0253 -0.2186  0.1283
14801W        W30270  16.370   2.452   0.964  0.0059  0.0301  0.3818
14802W        W30271   4.142  17.774  14.000 -0.1550 -0.2301 -0.1691
14803W        W30272  13.975  17.632  13.168 -0.1481 -0.0593  0.2060
14804W        W30273   9.500   3.492   2.914 -0.3383 -0.0681  0.0113
14805W        W30274  13.541  14.015  11.088 -0.2572  0.2561  0.3445
14806W        W30275   5.413   7.078  15.642  0.0803  0.0531  0.1426
14807W        W30276  15.255   2.744  11.464  0.2185  0.0176  0.0517
14808W        W30277   6.633   9.758   2.966 -0.2960  0.2360  0.1531
14809W        W30278  18.038  12.917   1.114 -0.1134  0.0882  0.3748
14810W        W30279   5.801  11.275  10.184 -0.2054 -0.0730  0.0544
14811W        W30280   6.848   9.558  14.698 -0.0626  0.0457 -0.1444
14812W        W30281   8.761  13.368   2.643  0.0439  0.0754 -0.0427
14813W        W30282   3.283  13.642   1.198 -0.1168 -0.3882 -0.0636
14814W        W30283   9.377  15.242  15.193 -0.1315  0.0076 -0.0344
14815W        W30284   2.154  16.733  15.268 -0.0375  0.2616 -0.3237
14816W        W30285  16.993  17.538   3.030 -0.0368 -0.4552  0.4300
14817W        W30286  17.768  13.266  13.869  0.0088 -0.1411 -0.2406
14818W        W30287   0.532   0.581  10.227  0.0385 -0.0620  0.0981
14819W        W30288  16.275  13.380   4.866  0.0504  0.1151 -0.0507
14820W        W30289   5.659  17.354   2.910 -0.0416  0.2912  0.0079
14821W        W30290   9.956  17.679   4.921  0.0725  0.0844  0.1632
14822W        W30291   4.718  18.003   0.598  0.1714 -0.1538 -0.0370
14823W        W30292   5.783  10.330  14.255  0.3712  0.0336 -0.0410
14824W        W30293   4.590  13.587  11.143 -0.0199  0.1931 -0.1659
14825W        W30294   8.680   5.287  15.672  0.0185 -0.1906  0.1070
14826W        W30295   6.443  18.115   3.688  0.1307 -0.0366  0.1587
14827W        W30296   1.853   7.937  10.567  0.1584 -0.3041 -0.0573
14828W        W30297  13.125  14.298  11.185  0.1552  0.2353 -0.1014
14829W        W30298   6.271  11.403   1.829 -0.0381 -0.1300  0.3238
14830W        W30299   4.604  10.992  12.356 -0.3340 -0.0266 -0.1679
14831W        W30300   4.018   0.761   0.400  0.2058 -0.0552 -0.0335
14832W        W30301  17.776   7.795   0.942  0.3570  0.3730  0.2237
14833W        W30302   9.926  14.267   2.148  0.0490 -0.0962 -0.4108
14834W        W30303   9.179  15.604  13.125  0.1158  0.3997 -0.0336
14835W        W30304   8.305  12.872   0.730 -0.3302  0.2291  0.1566
14836W        W30305  17.741   7.574  15.559  0.2340 -0.2138 -0.0428
14837W        W30306  17.880   2.420  12.909  0.0926  0.0134  0.0389
14838W        W30307  17.594   0.854   1.652 -0.0987  0.0012  0.1331
14839W        W30308   5.650  10.819   2.040 -0.0426 -0.0293 -0.1839
14840W        W30309   4.012  11.984  12.697  0.0415 -0.5160  0.4333
14841W        W30310  12.238  14.048  11.401  0.2341  0.1194  0.0074
14842W        W30311  18.118   6.653   3.967 -0.0756  0.2223 -0.0707
14843W        W30312   0.331   7.890  15.609  0.0664  0.3325  0.2682
14844W        W30313   5.209   5.228   4.352  0.1194  0.0468 -0.3378
14845W        W30314   4.065  16.735  11.932  0.0300  0.4025 -0.0314
14846W        W30315   8.312   8.136  14.545 -0.0523 -0.0561 -0.0503
14847W        W30316   1.845  12.991  12.697 -0.0633 -0.0796 -0.0609
14848W        W30317  11.024   4.798  15.007  0.0777 -0.1918 -0.1391
14849W        W30318   9.724   8.675   0.562  0.0502 -0.2577  0.2301
14850W        W30319  10.263   0.711  15.399 -0.0204 -0.1549  0.1321
14851W        W30320  12.826   6.486  14.431 -0.0710 -0.2811  0.1354
14852W        W30321   5.337   5.996  12.652  0.0295  0.0980  0.4140
14853W        W30322   2.383   4.634   5.315 -0.0050  0.0299 -0.3978
14854W        W30323   4.676   6.482   2.090  0.1955  0.3934 -0.2226
14855W        W30324   9.085   9.437   1.577 -0.2632  0.2116 -0.1905
14856W        W30325   7.173  10.387   3.150 -0.1171 -0.0937  0.0183
14857W        W30326   8.724   4.782   0.480  0.0486 -0.2454  0.1556
14858W        W30327   0.510   0.221   2.589  0.1284 -0.3020  0.0108
14859W        W30328  11.449  13.479   4.772  0.0487  0.4565 -0.3611
14860W        W30329  11.399   7.711  12.612 -0.0873  0.2985  0.3104
14861W        W30330  10.455   9.194  15.442 -0.1733  0.0562  0.0103
14862W        W30331   2.088  10.136  13.552  0.1035 -0.1346  0.2212
14863W        W30332   9.143  17.263  12.394 -0.0977 -0.3685 -0.0723
14864W        W30333   5.840   5.002  11.780 -0.1802  0.1900  0.3154
14865W        W30334  16.024   3.391  13.432  0.1574  0.1043  0.1064
14866W        W30335   5.095   9.143   3.879  0.1173 -0.1485 -0.2988
14867W        W30336   3.544   7.798  14.678  0.4039 -0.0476 -0.0811
14868W        W30337  10.943   0.133   1.309  0.1105  0.1344  0.0085
14869W        W30338  12.936  12.259   1.262  0.3050  0.2663 -0.2466
14870W        W30339   8.032   2.460   0.987  0.3019  0.2450 -0.2078
14871W        W30340  16.832  13.726  15.324  0.1277 -0.1019 -0.0891
14872W        W30341  15.307   4.070   4.641 -0.1462  0.0483  0.1503
14873W        W30342   7.211  16.351  13.020 -0.1537 -0.0168 -0.1647
14874W        W30343   5.261  14.021   2.897  0.0450 -0.0891 -0.0834
14875W        W30344  14.333   5.712  14.832 -0.2175  0.1334 -0.2408
14876W        W30345  10.521   1.965  14.823 -0.3464  0.0679 -0.0165
14877W        W30346   5.022   8.021   3.426  0.0651 -0.2171  0.1431
14878W        W30347  17.455   7.247   5.409 -0.1720  0.0390  0.1296
14879W        W30348   7.766   5.803   1.591  0.0214 -0.1352  0.1477
14880W        W30349  15.914   3.212  15.436  0.0654 -0.0305 -0.1535
14881W        W30350   3.953   9.495   2.581  0.2809 -0.1602  0.1524
14882W        W30351   0.632   3.311   0.563 -0.2517  0.0342 -0.2975
14883W        W30352   7.493  17.109   3.878 -0.0960 -0.0482 -0.0965
14884W        W30353   1.835   8.138   3.675 -0.3472  0.0366 -0.1941
14885W        W30354  17.851  17.747  12.162 -0.0148  0.0756 -0.3906
14886W        W30355  13.094   3.071   0.322  0.0466 -0.1963  0.0559
14887W        W30356  11.019  17.061   5.481 -0.0593 -0.0456  0.2119
14888W        W30357  10.115   6.109   5.586 -0.1491  0.0073  0.0370
14889W        W30358   4.513  10.459  12.694  0.0470 -0.0802  0.2238
14890W        W30359   2.382  17.545   1.577 -0.2489  0.1495  0.2913
14891W        W30360   5.955   9.856   4.045 -0.0725 -0.0724  0.3722
14892W        W30361   2.121   7.036  10.321 -0.0495  0.1106 -0.0962
14893W        W30362   6.640  16.148  11.973  0.0885  0.2522  0.1168
14894W        W30363   5.424  14.017   0.394 -0.1963  0.3436  0.1172
14895W        W30364  13.450  17.443   1.811 -0.3440  0.3835 -0.0354
14896W        W30365  17.826   6.925  11.103  0.0759  0.3472 -0.0284
14897W        W30366   6.744   4.011   0.616 -0.1334  0.2061 -0.1574
14898W        W30367  16.207  11.353   1.403  0.2015  0.1271  0.2640
14899W        W30368   1.245  18.077  12.933 -0.1345 -0.0643 -0.0690
14900W        W30369  18.234  17.910   2.501  0.1600  0.0859 -0.2260
14901W        W30370  15.844   9.638  14.256 -0.2424 -0.2931  0.1116
14902W        W30371  16.212  16.318  10.883 -0.0611 -0.1891  0.1203
14903W        W30372   9.666  13.254  14.875  0.0465 -0.0455  0.0042
14904W        W30373   1.811   5.295   1.499  0.0331 -0.1144 -0.1445
14905W        W30374  12.976   7.276  11.595 -0.0213  0.0201 -0.2138
14906W        W30375  16.474   7.600   5.763 -0.3903 -0.1180  0.0468
14907W        W30376   0.781  10.815   2.222 -0.1940 -0.2189  0.2561
14908W        W30377  11.081  17.662   3.646  0.0126  0.0534  0.0188
14909W        W30378   2.830  12.557  11.981 -0.2867 -0.0413  0.2956
14910W        W30379  17.109  17.602   2.233  0.0212 -0.0338 -0.2091
14911W        W30380   2.251  11.641  12.884  0.2488  0.1804 -0.1063
14912W        W30381  16.535   3.295  10.546  0.4450 -0.2452  0.0446
14913W        W30382  14.327   7.771  14.844 -0.1739 -0.0905  0.1939
14914W        W30383  15.299  15.901  15.136 -0.0502  0.1912 -0.1125
14915W        W30384   8.113   0.376   2.767 -0.1077  0.0443  0.0589
14916W        W30385   1.512   6.561   2.174  0.1078  0.3911  0.0625
14917W        W30386  11.836  12.792  15.571 -0.1382 -0.1914 -0.1017
14918W        W30387  16.929   6.189   1.086  0.0685 -0.0498 -0.4265
14919W        W30388  10.970   3.280   2.088 -0.3048  0.0182 -0.0393
14920W        W30389   6.756  18.345   5.157 -0.1921  0.4588  0.0159
14921W        W30390   4.072   7.524   0.908  0.3339 -0.4455 -0.1910
14922W        W30391  16.770   7.916  15.574  0.0627 -0.0368  0.2661
14923W        W30392   3.764   1.734   3.118 -0.1064 -0.1806  0.1493
14924W        W30393  16.054  11.239   2.234  0.0409  0.1286 -0.0703
14925W        W30394   0.670  10.182   2.149  0.0114 -0.1232 -0.2800
14926W        W30395  11.980   9.815   3.137  0.2026  0.1789  0.1531
14927W        W30396   6.539  12.929   0.949  0.0617 -0.2336 -0.0253
14928W        W30397  18.411   1.855   4.653  0.0117  0.1620 -0.0346
14929W        W30398  17.056  15.374  11.642  0.4892 -0.0064 -0.0106
14930W        W30399   4.442  10.339   4.184 -0.0954  0.1471 -0.0633
14931W        W30400  10.704  16.048   4.292  0.1213  0.1240  0.1068
14932W        W30401   2.720  11.346  12.006  0.1475  0.2388 -0.0514
14933W        W30402   7.154  17.381  14.251 -0.0715 -0.0799  0.0182
14934W        W30403  18.297  11.111   2.003 -0.2434  0.0746  0.1730
14935W        W30404   5.296   0.511  10.942  0.3549 -0.1785  0.1434
14936W        W30405   7.837  11.699  14.700  0.3155  0.0504 -0.0979
14937W        W30406  14.930  12.166  14.486 -0.5629  0.0270 -0.4793
14938W        W30407  16.107   8.786   1.913 -0.1682  0.2187  0.3360
14939W        W30408  11.858  12.226  14.875 -0.1452 -0.0307  0.2542
14940W        W30409   4.729   4.531  13.399 -0.0907 -0.1014 -0.0726
14941W        W30410   0.583   0.249   1.269 -0.2836 -0.0830  0.0197
14942W        W30411   7.748  17.341  10.951 -0.0257  0.0895  0.1663
14943W        W30412  13.702   5.097  12.186 -0.2928 -0.1752 -0.0220
14944W        W30413   6.358  13.633  15.486  0.0034 -0.0058 -0.0786
14945W        W30414   3.998  15.670  14.331 -0.2528  0.0547 -0.1276
14946W        W30415  12.487   9.030   2.939 -0.0505 -0.1669 -0.0002
14947W        W30416   2.401   9.895  13.254  0.2424  0.1028  0.1384
14948W        W30417  11.918  15.473   1.640  0.2369 -0.2598 -0.0248
14949W        W30418   2.347  18.253  15.674 -0.0113  0.1073  0.1514
14950W        W30419  13.183  16.454   4.094 -0.0312  0.0593  0.0097
14951W        W30420  15.585  17.013   4.787  0.1505  0.2229 -0.1278
14952W        W30421  10.964   1.860   2.788  0.2124 -0.0704 -0.1064
14953W        W30422   5.423   3.554  13.550  0.2641 -0.1559  0.3449
14954W        W30423   7.621   1.563  11.124 -0.2917  0.1581  0.1809
14955W        W30424  10.667   4.564   4.672  0.0776  0.1591 -0.1164
14956W        W30425  18.002   0.050   4.390  0.0049 -0.0088 -0.3503
14957W        W30426   1.174   6.792  11.913  0.0150  0.1093  0.1107
14958W        W30427  17.667  15.820  10.681 -0.2206 -0.1622  0.1499
14959W        W30428   2.599   7.456  12.207  0.0679  0.0100 -0.0516
14960W        W30429   7.131  11.158   3.421  0.2077  0.1310  0.0579
14961W        W30430  12.633  10.483  15.008  0.0405  0.0427  0.3708
14962W        W30431  14.967  13.733  14.731 -0.0811 -0.0328 -0.1059
14963W        W30432   2.619   2.619   1.252 -0.0978 -0.2413  0.0824
14964W        W30433  13.190  16.117   2.687  0.2059 -0.0337 -0.0235
14965W        W30434   4.719   9.856   2.110  0.0981  0.0030 -0.0392
14966W        W30435   5.394  12.433  13.463  0.0372  0.1357  0.0040
14967W        W30436  11.684  17.552  12.952  0.0280 -0.0330  0.4908
14968W        W30437   3.555  15.998   3.138  0.2759 -0.2145  0.2194
14969W        W30438  16.385  11.926  12.728  0.0040 -0.2556  0.0190
14970W        W30439   0.969  12.505   3.378  0.0654  0.0841  0.1245
14971W        W30440  12.245  13.795   1.937 -0.0414 -0.3648 -0.4929
14972W        W30441  16.755  11.346   1.395  0.1449  0.0626  0.2496
14973W        W30442   9.615   3.997  14.802  0.0684  0.1644 -0.2315
14974W        W30443  11.593   9.190  11.533 -0.1258  0.3054 -0.0614
14975W        W30444  11.271  18.140  15.878 -0.0064 -0.0954 -0.0558
14976W        W30445   4.135   5.636  12.251 -0.2211  0.1024  0.0316
14977W        W30446  16.757   9.932   5.316 -0.0534 -0.2608 -0.1456
14978W        W30447   0.285   6.473  11.208 -0.1948 -0.2964 -0.1186
14979W        W30448  15.673   7.339   0.386 -0.0961 -0.0937 -0.1059
14980W        W30449  13.966   5.869   0.301  0.2032  0.1974 -0.1663
14981W        W30450  12.171  12.471   4.766  0.2625  0.2565  0.1237
14982W        W30451  12.801  15.000  14.875  0.1026 -0.0122  0.1231
14983W        W30452   6.649   0.401  12.546  0.2068 -0.0255 -0.0345
14984W        W30453   1.784   4.030   4.299 -0.0683  0.0404 -0.2194
14985W        W30454  13.838  11.843  10.880 -0.1404  0.2558 -0.0782
14986W        W30455   3.409   5.052  14.685  0.2664  0.1454 -0.2238
14987W        W30456  16.442   0.894  15.208 -0.0750 -0.0465  0.2804
14988W        W30457   6.478  16.417   4.517 -0.4091  0.1640 -0.1540
14989W        W30458   7.738   7.523   2.231  0.0477 -0.2162  0.0913
14990W        W30459   1.543   5.994   3.547  0.0115 -0.1614  0.0638
14991W        W30460   5.754   2.950  10.853  0.4876  0.0097 -0.0014
14992W        W30461  16.646   1.917  14.180  0.0332 -0.1668 -0.1318
14993W        W30462  10.707   9.686   3.346 -0.1196 -0.5410  0.0849
14994W        W30463   7.476   7.965  14.153  0.1021 -0.2406 -0.2781
14995W        W30464   5.418   4.898  14.262  0.0332 -0.1258  0.1657
14996W        W30465   4.196  14.311   4.301  0.0084 -0.3485  0.0273
14997W        W30466  17.197   7.848  12.065 -0.0607  0.2847 -0.1143
14998W        W30467   8.203  13.945   5.476  0.2160  0.3092  0.0976
14999W        W30468  12.205   9.621   2.071  0.0772  0.0085 -0.1317
15000W        W30469   3.697   3.357  12.475  0.0548 -0.1123 -0.0878
15001W        W30470  16.596   1.511  13.807  0.0529 -0.2862  0.2792
15002W        W30471   1.478  13.757   0.197  0.0101  0.0402  0.0340
15003W        W30472   4.159  11.513   0.947  0.0157 -0.3597  0.0480
15004W        W30473   0.690   2.241   1.686  0.3814  0.6052  0.0148
15005W        W30474  17.651   6.476  11.136 -0.0843  0.0792 -0.0830
15006W        W30475   6.828  16.463   0.991  0.1072 -0.0564  0.0860
15007W        W30476   1.680   3.028   0.022  0.0800  0.1519  0.1000
15008W        W30477  13.596   1.574   3.204  0.1041 -0.1223  0.1117
15009W        W30478  15.847  17.935   0.194  0.0767 -0.0836  0.2574
15010W        W30479  11.433   6.124  14.239  0.2268  0.1000  0.0148
15011W        W30480   3.597  15.872   1.226 -0.0538 -0.1545  0.4122
15012W        W30481  12.870   9.322  15.913 -0.0455  0.5600 -0.4022
15013W        W30482  16.622  11.406  14.222  0.2613  0.0251  0.1824
15014W        W30483  17.936   3.030   2.806  0.3476 -0.2098  0.0125
15015W        W30484   8.843   0.293  13.747  0.0694  0.2309 -0.0585
15016W        W30485   1.630  11.949   4.001 -0.2493  0.0169 -0.1598
15017W        W30486  17.002  13.919   5.304 -0.0919 -0.1612 -0.1619
15018W        W30487   8.175  14.639   0.461 -0.5236 -0.2043 -0.3001
15019W        W30488  16.159  16.921   3.532 -0.1547  0.0141  0.4602
15020W        W30489  12.505   0.625  14.486 -0.5515 -0.3151 -0.1488
15021W        W30490   3.272   3.004   2.998 -0.1334  0.0749  0.1083
15022W        W30491  12.946  11.241   1.862  0.1084 -0.3346  0.0074
15023W        W30492   5.938   1.844  10.752  0.0280 -0.1079 -0.0495
15024W        W30493   6.730  13.508   0.875  0.1211  0.1338  0.1298
15025W        W30494  16.555  14.516   4.638  0.1452  0.1977  0.0742
15026W        W30495  18.449  11.849   3.748  0.0903  0.1537 -0.2157
15027W        W30496   3.172   6.176   0.061 -0.1298  0.1579 -0.0215
15028W        W30497   6.240  11.257   4.894 -0.1553 -0.0230  0.2124
15029W        W30498  17.241  13.514   4.096  0.2029 -0.0535  0.1440
15030W        W30499  12.621  11.414   4.705 -0.0486 -0.0034  0.1954
15031W        W30500  15.874  12.306   4.395 -0.0052 -0.2794  0.0420
15032W        W30501   3.082   7.464   1.783  0.0297  0.1043  0.2004
15033W        W30502   1.479  15.994  12.065 -0.0992  0.0140  0.1760
15034W        W30503   7.179   3.352   3.454  0.1346  0.0752  0.1482
15035W        W30504   1.771   4.873  12.245  0.0186 -0.1553 -0.0605
15036W        W30505  18.363  11.163   3.365  0.3399 -0.1429  0.1999
15037W        W30506   4.199   8.357   1.470  0.0989  0.0376 -0.2737
15038W        W30507  14.938   7.439   2.709 -0.1052  0.2295 -0.1304
15039W        W30508   9.138  16.085   3.364 -0.1247 -0.0954 -0.0760
15040W        W30509  12.913  10.152   3.994 -0.3941  0.1444  0.0849
15041W        W30510   6.981   7.232   0.086 -0.5695 -0.0803 -0.0422
15042W        W30511  13.047  15.744  13.715 -0.1731  0.0358 -0.0777
15043W        W30512   6.366   5.612   5.087  0.1802 -0.2369  0.0889
15044W        W30513   2.167  11.382   2.088  0.1203 -0.0905  0.3430
15045W        W30514   2.966   2.810   0.096 -0.0690 -0.2057 -0.1130
15046W        W30515  17.575   2.815  14.479 -0.0463  0.1244 -0.0500
15047W        W30516  11.061  10.725   5.538 -0.1295  0.0042  0.0087
15048W        W30517  12.863   4.544   2.683 -0.0909 -0.1368  0.0698
15049W        W30518   3.800  14.032  15.638  0.1794  0.1926 -0.0037
15050W        W30519  14.033  12.823  12.838 -0.1491 -0.2604  0.2012
15051W        W30520  16.307   8.156   3.692 -0.2778 -0.1527  0.2567
15052W        W30521   6.492  13.134  14.114 -0.0817 -0.1142  0.1433
15053W        W30522  10.845  10.839  13.412  0.2382  0.0660 -0.0183
15054W        W30523   8.749   5.882  15.051  0.1545  0.1685  0.1064
15055W        W30524   3.893   5.373  14.836  0.4572 -0.0957  0.1911
15056W        W30525  13.503   7.319   0.937 -0.0232 -0.3858 -0.1155
15057W        W30526  18.002   8.355  15.862  0.1589  0.0528 -0.0696
15058W        W30527  11.390  13.196  11.411 -0.0601 -0.0327  0.3401
15059W        W30528  10.892   9.983   1.783 -0.0425  0.0686  0.0979
15060W        W30529  17.542   0.521   0.311 -0.0979 -0.0839 -0.1107
15061W        W30530   7.171  17.798  13.987  0.1530  0.0487  0.1082
15062W        W30531   7.390  15.569   0.417 -0.1273  0.2757 -0.0996
15063W        W30532  10.508   1.459  14.645  0.2212  0.2256  0.1150
15064W        W30533  12.492   5.725  14.567 -0.0899  0.2026  0.0614
15065W        W30534   9.770   5.980   3.298  0.0826 -0.1651  0.1085
15066W        W30535   7.315   7.117   3.084 -0.2009  0.0568  0.0182
15067W        W30536   0.269  11.430   1.692 -0.1387  0.3357  0.0485
15068W        W30537   8.251   2.470  13.650 -0.1042  0.1579  0.1940
15069W        W30538   9.718  16.810   5.365  0.3313  0.3318  0.4059
15070W        W30539  14.378  17.032  10.099  0.0312 -0.0729 -0.1132
15071W        W30540  16.381  15.788  15.743 -0.0918 -0.1761 -0.3837
15072W        W30541   1.090   5.346   4.483 -0.2348 -0.1083  0.0716
15073W        W30542   8.560   5.106   1.447  0.1687  0.0248 -0.0315
15074W        W30543   6.914   4.556  13.406 -0.2008 -0.3441  0.1094
15075W        W30544   7.309   5.207   0.950  0.1349 -0.0047  0.1220
15076W        W30545  17.535  10.295  13.795 -0.1472 -0.0683 -0.2599
15077W        W30546   4.632  10.006  14.584  0.1166  0.1025  0.1468
15078W        W30547   1.916   3.939  10.868 -0.1529 -0.1750  0.1139
15079W        W30548  14.484   2.002   2.340  0.0358 -0.1620 -0.1733
15080W        W30549   3.705   2.034  15.083  0.1817  0.2376 -0.1128
15081W        W30550  11.846  13.316  11.157  0.0023 -0.1124 -0.1137
15082W        W30551   9.954   7.662  11.185 -0.3221  0.4487  0.0589
15083W        W30552  16.163   1.816  15.534 -0.1659  0.0464 -0.3254
15084W        W30553   1.068   9.883   3.688 -0.0136  0.1676 -0.2337
15085W        W30554   7.640   6.663   3.348  0.2843 -0.1467  0.1010
15086W        W30555   7.940   2.726  11.672 -0.0785 -0.0817 -0.1126
15087W        W30556  10.551  13.185  10.951  0.2178 -0.1173 -0.3164
15088W        W30557   5.539   5.808   0.677  0.0980  0.0987 -0.1149
15089W        W30558   5.216   5.962  14.293 -0.0353 -0.0536 -0.0334
15090W        W30559   9.589  11.921  13.803  0.2728 -0.1413  0.0677
15091W        W30560  16.287  13.970  11.144 -0.1248 -0.2242  0.1679
15092W        W30561  13.335   7.734  10.678 -0.0066  0.0744 -0.1588
15093W        W30562   9.374   0.585   3.181  0.1408  0.2564  0.0585
15094W        W30563   8.315   1.057   0.393 -0.2110 -0.1256 -0.2675
15095W        W30564  10.862   9.182   4.707 -0.2255 -0.1082  0.0580
15096W        W30565   4.825   8.917   2.638  0.1072 -0.0051 -0.1409
15097W        W30566  15.945   5.970   3.448 -0.1036 -0.1998  0.1122
15098W        W30567   1.758  17.848  14.527 -0.1173 -0.1135 -0.1872
15099W        W30568  15.101   1.990  12.730  0.1761 -0.2835  0.0310
15100W        W30569   6.185   9.771   0.277  0.2277  0.1790  0.1597
15101W        W30570  16.236  16.340  10.380  0.1027  0.0863  0.0319
15102W        W30571  14.781   5.662  13.426 -0.0456  0.1543 -0.1154
15103W        W30572   8.608   3.699   0.900 -0.0731  0.0486  0.0412
15104W        W30573   2.967  11.087  13.420  0.0507  0.1077 -0.2028
15105W        W30574  14.393  15.684  15.135 -0.3888  0.2185 -0.1614
15106W        W30575   7.543  13.441   4.114  0.0864  0.3339  0.0211
15107W        W30576  18.084   9.824   5.914 -0.0707  0.0001 -0.0499
15108W        W30577  16.377   2.441   2.750  0.1750 -0.2541  0.1092
15109W        W30578  17.509   2.172  13.163 -0.0204  0.1465  0.0075
15110W        W30579  14.330   9.176   2.764  0.1903  0.1129 -0.3060
15111W        W30580  15.184   3.579   4.282  0.0864 -0.0842  0.3046
15112W        W30581   7.408   7.837  13.312  0.1595 -0.2379  0.0689
15113W        W30582  13.724   3.392   1.452 -0.0950 -0.3853 -0.0153
15114W        W30583   4.770  14.058  11.148  0.0846 -0.3263  0.0951
15115W        W30584   1.748   0.478   5.238  0.1942  0.1335 -0.0157
15116W        W30585   8.426  17.257   5.004 -0.0971  0.0503 -0.0264
15117W        W30586   8.922   6.783  14.623 -0.0465 -0.2532  0.0467
15118W        W30587  10.802  12.734  10.285  0.0970 -0.0374  0.1227
15119W        W30588  13.397  14.408  10.735 -0.4977 -0.1379  0.0465
15120W        W30589  15.002   6.035  14.212 -0.2372 -0.1816  0.2883
15121W        W30590   5.585  18.241   2.705  0.0244  0.3701  0.1585
15122W        W30591   3.716   9.847   1.863 -0.1807 -0.3699  0.1318
15123W        W30592   2.828  12.529  13.185  0.3401 -0.2258  0.2692
15124W        W30593  16.367  11.607  12.368 -0.0722  0.0305  0.2360
15125W        W30594   8.572   7.363  14.985 -0.2238  0.0396  0.2558
15126W        W30595   2.703   5.242  12.530 -0.4073 -0.1292  0.2749
15127W        W30596   1.569   8.129   5.494  0.1117 -0.1191  0.2492
15128W        W30597  10.847   3.440   1.266 -0.3549 -0.3708  0.1309
15129W        W30598  18.324   9.292   3.410  0.1297  0.0708  0.1257
15130W        W30599  18.369   0.700  14.347 -0.5076  0.0105 -0.3574
15131W        W30600  17.071   2.208   5.730 -0.1303  0.0058 -0.0679
15132W        W30601   5.418   5.509   4.680  0.1212 -0.2114 -0.2594
15133W        W30602   9.219  14.896   1.603 -0.0033  0.0859  0.1297
15134W        W30603  14.743   2.852  12.956 -0.0994  0.0207  0.1322
15135W        W30604  13.431   0.006  11.361 -0.2316 -0.0056 -0.1001
15136W        W30605  16.844   1.347  15.404 -0.0554  0.0368 -0.0341
15137W        W30606   2.272   7.515  11.371 -0.2026 -0.0971 -0.2462
15138W        W30607   6.967   3.737   2.392  0.1684  0.3272  0.0595
15139W        W30608  13.691  10.870   2.528 -0.1062 -0.0838  0.0967
15140W        W30609   1.373   0.154  13.786  0.0705  0.3312  0.3761
15141W        W30610   8.013  17.839  11.828  0.2737 -0.1628  0.0981
15142W        W30611   6.552   8.569   0.132  0.1006 -0.3254 -0.2061
15143W        W30612   4.294  16.133   2.662 -0.1186 -0.0013  0.2628
15144W        W30613  15.469   2.138   0.128 -0.2354  0.0860  0.0440
15145W        W30614   6.322  17.718   3.313  0.0076 -0.1712 -0.3897
15146W        W30615   0.988   0.009   6.329 -0.1956  0.0639 -0.1686
15147W        W30616  17.589   1.792  14.201  0.1118  0.0575 -0.1160
15148W        W30617   0.298  13.469  13.664  0.3652 -0.1200  0.0471
15149W        W30618  14.996   9.280   1.871  0.0404  0.4470 -0.0063
15150W        W30619   7.030  11.701   0.545  0.3800  0.0771  0.1062
15151W        W30620   3.130   8.425   2.306  0.0147 -0.1330  0.2586
15152W        W30621   5.765   2.306   6.198 -0.0125  0.3140 -0.0415
15153W        W30622  11.925   6.254   3.304 -0.0056  0.1245  0.3841
15154W        W30623  12.500  11.088  15.104  0.0317  0.1853 -0.2153
15155W        W30624  18.110  14.799   1.780 -0.1311 -0.1125  0.1095
15156W        W30625   1.104   4.405  14.974 -0.0908  0.1599  0.0194
15157W        W30626  14.156  10.882   2.789 -0.0398 -0.2378  0.4190
15158W        W30627  10.589   2.256  11.068 -0.2246  0.1306  0.0462
15159W        W30628  13.121  11.976  12.336 -0.2636  0.2454  0.0920
15160W        W30629   9.901  11.422  15.420  0.1036  0.3457  0.0898
15161W        W30630  11.019  14.130   2.820  0.1460  0.2179  0.0625
15162W        W30631  13.443  10.315   5.778  0.0621 -0.0901 -0.2525
15163W        W30632  13.625   6.367  14.588 -0.0849  0.0135  0.1999
15164W        W30633  15.546   2.691  13.012  0.1913  0.4071 -0.1071
15165W        W30634   7.775   0.938  15.365 -0.4961 -0.4684  0.1536
15166W        W30635  18.262  14.018   3.060  0.1467 -0.0520  0.3203
15167W        W30636   4.637   7.945  10.710  0.1698 -0.3173 -0.2045
15168W        W30637   8.808   5.254   3.442  0.0152  0.0387  0.1636
15169W        W30638  13.170  10.083  12.338  0.0152  0.4512 -0.0947
15170W        W30639   1.449   7.330   0.448 -0.0718  0.1671 -0.0746
15171W        W30640  13.343   9.797   3.046 -0.1968  0.1953  0.2135
15172W        W30641  18.059  11.887   2.686 -0.0331  0.2735  0.0452
15173W        W30642   6.058   3.631  11.968  0.0752  0.1198  0.1968
15174W        W30643  14.082   2.717  13.546 -0.0308 -0.2007 -0.0350
15175W        W30644  12.619  12.796  15.823  0.0858  0.0994 -0.0717
15176W        W30645   2.442  12.765   0.792  0.1565  0.0826  0.1431
15177W        W30646  11.298  12.142   5.120  0.2726 -0.3300 -0.1105
15178W        W30647  10.044   7.564  14.565  0.0672 -0.2675  0.0455
15179W        W30648   0.735  10.958   1.702 -0.0212  0.1074  0.0060
15180W        W30649   4.378   4.449  12.165  0.2722  0.2299 -0.2133
15181W        W30650  15.072  11.610  13.090  0.0101 -0.1399 -0.0176
15182W        W30651   3.963   8.804  14.355 -0.0717 -0.1390 -0.1245
15183W        W30652   4.914  12.875  15.743  0.2162  0.0352  0.0187
15184W        W30653   8.271  17.903   0.882 -0.0648 -0.1706  0.1042
15185W        W30654   9.057  12.287   4.021  0.1541 -0.1104 -0.1085
15186W        W30655  16.882   0.738   5.529  0.3511  0.0478 -0.3196
15187W        W30656   8.493  17.930   1.296  0.0890 -0.0079  0.0160
15188W        W30657  15.350   0.248   3.842  0.0356 -0.0383 -0.1846
15189W        W30658  12.822   2.579  11.227 -0.0388  0.0122  0.0299
15190W        W30659  17.883   5.116  14.830  0.0088 -0.0054  0.4237
15191W        W30660   1.016  13.627   5.093 -0.3162 -0.0282 -0.1567
15192W        W30661   0.012   4.654  10.636  0.1930 -0.0593  0.0665
15193W        W30662  12.034  14.029  15.601  0.4757 -0.1953  0.0602
15194W        W30663   7.134  14.966  13.697 -0.1995 -0.1964  0.3020
15195W        W30664  10.406  11.966   3.764  0.2499 -0.0083  0.1307
15196W        W30665  14.442  16.101   2.624  0.0182  0.1852 -0.1137
15197W        W30666   0.220   2.209   1.458 -0.2501 -0.0102  0.0316
15198W        W30667  16.418  11.687   9.909 -0.1646 -0.0133  0.0249
15199W        W30668   1.346  11.650   2.110 -0.2594 -0.0497  0.2339
15200W        W30669  10.602   8.569  15.459 -0.1937  0.1793  0.2053
15201W        W30670   9.478  18.332  12.561  0.2472  0.0686 -0.2558
15202W        W30671  10.412  14.922   3.531  0.4234 -0.1000 -0.0324
15203W        W30672   4.992  10.654   0.992 -0.0577  0.1305  0.1083
15204W        W30673   5.554  12.312  11.352 -0.0351 -0.1383  0.1387
15205W        W30674  15.090   7.348   1.092 -0.0795  0.1476 -0.0534
15206W        W30675  15.441  10.245  10.757  0.0016  0.0298 -0.1042
15207W        W30676  16.050   8.000   4.733  0.1703  0.0189  0.0678
15208W        W30677   4.814  18.441  13.481  0.2434 -0.0415  0.1532
15209W        W30678  11.385  11.924   0.343  0.0900 -0.2161  0.1420
15210W        W30679   3.944   5.578   3.368  0.0677  0.2565  0.2867
15211W        W30680  11.998   7.601   1.367  0.0618 -0.0474 -0.1539
15212W        W30681  11.679  11.485  12.592 -0.0535  0.0897 -0.1508
15213W        W30682   8.699   4.195   1.829 -0.2749 -0.0935  0.0019
15214W        W30683   3.560  15.796   0.687 -0.0509  0.2456  0.2010
15215W        W30684   7.411  17.182   5.883  0.1307  0.1443  0.1496
15216W        W30685  17.101   2.329  11.365  0.0788 -0.0146  0.0841
15217W        W30686   9.415   5.290  12.990  0.0476  0.1395  0.0056
15218W        W30687   3.130  10.887   3.494  0.0574 -0.1527 -0.0500
15219W        W30688  11.398   2.534  14.551  0.0716  0.0787 -0.2200
15220W        W30689   2.367  14.946  13.343  0.0065  0.3404  0.2474
15221W        W30690  15.808   5.938  14.896  0.0060 -0.3148  0.2975
15222W        W30691   3.991   8.172   5.494  0.0242  0.0051  0.5374
15223W        W30692   5.602   2.521   1.906  0.2300 -0.2279 -0.0883
15224W        W30693   4.378   3.774  11.310  0.0167  0.0701  0.0370
15225W        W30694   4.634   6.731   0.733 -0.1479 -0.0374  0.0977
15226W        W30695   6.740   0.779  12.142 -0.4441 -0.2516 -0.0056
15227W        W30696   7.374  16.991  11.985  0.2630 -0.3368 -0.0763
15228W        W30697   9.012  18.148  15.434 -0.2103 -0.0418  0.1372
15229W        W30698  12.411   5.466  11.860 -0.0855 -0.0786 -0.1359
15230W        W30699  15.498   3.609   3.867 -0.0260  0.0471 -0.0621
15231W        W30700  16.977  16.172   0.512  0.1288  0.1781 -0.2995
15232W        W30701  15.766   7.780  13.704  0.1506 -0.0885  0.3888
15233W        W30702   8.053   2.947   0.526 -0.0515 -0.1182  0.0186
15234W        W30703  10.033   5.702  15.326 -0.0026 -0.0821  0.2687
15235W        W30704   5.921  17.932  14.828 -0.2518 -0.0951 -0.0732
15236W        W30705  12.980  11.520  10.673  0.1710 -0.3705 -0.2204
15237W        W30706   7.830   2.639  11.190 -0.1721 -0.2698 -0.1501
15238W        W30707   6.966  17.784  13.296  0.0706  0.0226 -0.0850
15239W        W30708  14.384   6.412   4.623 -0.2216  0.1625 -0.1426
15240W        W30709  13.352  15.253  14.472 -0.0570  0.2356 -0.3287
15241W        W30710  11.791  12.917   1.300  0.0287  0.2105 -0.1399
15242W        W30711  10.332  17.656   2.291  0.1078 -0.1029  0.3634
15243W        W30712  17.207  10.061  11.220  0.2463 -0.0481 -0.0144
15244W        W30713   3.889  15.532  15.675 -0.2967  0.2008 -0.1734
15245W        W30714  14.038   9.786   1.148 -0.1166  0.3044  0.5157
15246W        W30715   9.646   6.720   1.098 -0.2267 -0.0295 -0.0907
15247W        W30716  13.963  15.819   2.545  0.1199  0.0235  0.3115
15248W        W30717  16.761  18.166  15.051  0.3579  0.1140 -0.0548
15249W        W30718   1.614  12.813  15.581  0.3836  0.1272  0.0425
15250W        W30719  13.098  16.532  11.689 -0.0673 -0.2796  0.0773
15251W        W30720  16.324   4.368  11.589  0.0091  0.4126 -0.1009
15252W        W30721   2.838   3.663  14.033  0.0777 -0.0069  0.1187
15253W        W30722  12.378  15.521   2.538 -0.2462  0.1903  0.3265
15254W        W30723  11.186  16.115   1.556  0.0777 -0.1463 -0.0388
15255W        W30724   7.030   5.003  13.279  0.0305 -0.1091  0.0979
15256W        W30725   9.567  16.532  12.715 -0.0946  0.2359  0.0651
15257W        W30726   5.622  10.912   5.561  0.1860 -0.0639 -0.4090
15258W        W30727   3.165   4.528   0.707 -0.2891  0.1848 -0.1021
15259W        W30728   1.685  17.511   4.474 -0.2191 -0.0614  0.2293
15260W        W30729  17.581   5.520   2.895 -0.2719 -0.0250 -0.0106
15261W        W30730   6.455  14.879  13.505  0.0239  0.0802 -0.1901
15262W        W30731   6.059  11.748  15.459 -0.1558 -0.0271  0.1275
15263W        W30732  13.821  12.921  15.764  0.0346  0.0440  0.0706
15264W        W30733  13.808   5.331  11.199  0.0704 -0.1029 -0.0634
15265W        W30734   5.608   2.246   0.820 -0.0316  0.1707  0.0879
15266W        W30735  16.479   0.562  13.760  0.2982 -0.3966  0.1458
15267W        W30736  13.845   3.875  15.346  0.1207  0.0176 -0.0198
15268W        W30737  10.914  11.672   5.171 -0.1751  0.1218 -0.0860
15269W        W30738   5.299  15.090  12.734  0.1028  0.1440 -0.1305
15270W        W30739  12.542  15.629   1.144  0.1004 -0.1745 -0.0882
15271W        W30740  15.624  17.324   3.880 -0.1795  0.1226  0.2829
15272W        W30741   4.768  12.430  12.676  0.1246 -0.2987  0.1477
15273W        W30742   0.383  12.527  15.663  0.1899  0.3487  0.2202
15274W        W30743  15.024   5.711   2.346 -0.1885 -0.0412 -0.1087
15275W        W30744   6.862   2.478  12.371 -0.0552  0.1542 -0.0605
15276W        W30745  15.491   8.212   5.987  0.0526 -0.3105  0.2834
15277W        W30746  12.839  11.853   4.910  0.0124  0.2160  0.0650
15278W        W30747  17.233   4.378  12.250  0.2297 -0.0303  0.0642
15279W        W30748   3.484   5.555  15.100  0.0934 -0.0779 -0.0233
15280W        W30749   8.883  12.391   0.964 -0.2981 -0.1608  0.0752
15281W        W30750  16.823   7.553  10.648 -0.3924  0.1463 -0.1098
15282W        W30751  14.009  13.671  13.479  0.0309  0.1088 -0.1533
15283W        W30752  10.986  10.649  15.483  0.1890 -0.0750  0.2742
15284W        W30753   8.281  18.099   3.548 -0.2022  0.1183  0.0898
15285W        W30754  15.079  11.296   1.418  0.1505 -0.3869  0.1225
15286W        W30755  15.167  10.688  10.878  0.3564 -0.3048 -0.0731
15287W        W30756  10.664   5.100   3.101  0.0294  0.0730  0.1094
15288W        W30757   7.417   2.240   0.727 -0.0374 -0.1429  0.0981
15289W        W30758  10.261  11.216  15.157 -0.2889 -0.0760 -0.0132
15290W        W30759   7.265   4.298   4.887 -0.0844 -0.1733 -0.1779
15291W        W30760   7.218   2.960   4.366 -0.0262 -0.0371 -0.3732
15292W        W30761  15.632  14.963  13.655  0.2942 -0.1880 -0.3059
15293W        W30762   6.325   9.722  14.725  0.0378  0.0224 -0.0813
15294W        W30763  16.684  12.434   4.322  0.3105 -0.0986 -0.0060
15295W        W30764   3.626   9.052   1.877 -0.0226  0.0084  0.2756
15296W        W30765   8.109   1.339  14.481  0.0478  0.0384  0.0117
15297W        W30766  15.979   4.901  11.658 -0.0206 -0.2381 -0.1061
15298W        W30767  11.051   6.103   2.983  0.0419 -0.0775 -0.1378
15299W        W30768   6.709   8.011   2.874  0.1500  0.2643 -0.0787
15300W        W30769   5.962   9.806   0.996  0.0178  0.0946 -0.0964
15301W        W30770   9.215  13.154   1.985  0.0611  0.0202 -0.0773
15302W        W30771  10.591   0.570   1.118  0.1023  0.0372 -0.1472
15303W        W30772  13.453  17.601   5.008 -0.4011  0.1959 -0.1000
15304W        W30773   0.804   1.621  10.952 -0.1143 -0.0112  0.0482
15305W        W30774   9.690   3.254  15.413 -0.0685  0.1987 -0.2165
15306W        W30775   0.851  15.129   2.712 -0.1368  0.1845 -0.1558
15307W        W30776  12.143   9.106  12.459 -0.0345  0.0271  0.1585
15308W        W30777   6.548   3.773   4.579  0.0414  0.6419  0.0990
15309W        W30778  11.803   1.118   2.187 -0.0743  0.0927  0.0241
15310W        W30779   3.959  14.849   1.224 -0.1706  0.0831  0.1785
15311W        W30780   4.863  10.186   3.134 -0.0018 -0.2021 -0.0073
15312W        W30781  15.767   6.353  11.039 -0.2798  0.0217  0.1796
15313W        W30782   0.501   4.594   1.541  0.0271 -0.0833 -0.2363
15314W        W30783   2.041  14.433   0.323 -0.1084 -0.3091 -0.1557
15315W        W30784  17.957  10.008  13.562  0.2979  0.0650  0.2222
15316W        W30785   0.190  15.129  11.868 -0.2797  0.1362 -0.2387
15317W        W30786  12.877   2.862   4.177  0.0265  0.3013 -0.0479
15318W        W30787   5.851   3.835   1.855  0.1804 -0.3027  0.3305
15319W        W30788  15.098  11.128   0.035 -0.1287 -0.0691 -0.2188
15320W        W30789  17.204  14.629   1.607 -0.0026 -0.2506  0.1257
15321W        W30790  12.323   2.332  11.591  0.0728 -0.0903 -0.2092
15322W        W30791   0.419  18.275   4.630  0.1911 -0.2619  0.0169
15323W        W30792   0.130   3.405  12.481 -0.2042  0.3380 -0.0771
15324W        W30793  12.524   7.454   1.897 -0.1439 -0.1208  0.1900
15325W        W30794   2.825   5.310   5.487  0.4637 -0.1491  0.1195
15326W        W30795  11.605  16.143   5.318  0.1777 -0.0928  0.1607
15327W        W30796  14.200  14.448  14.749  0.0549 -0.0150 -0.2585
15328W        W30797  14.776  14.088   1.742 -0.1863  0.1041  0.0370
15329W        W30798  13.193   7.665  15.233  0.1069  0.1726  0.2179
15330W        W30799  16.474  13.618   3.546 -0.0457 -0.1503 -0.1678
15331W        W30800   3.663  18.108   4.352  0.4323  0.1271  0.0004
15332W        W30801  17.529   4.738  14.510  0.0191  0.0042 -0.0106
15333W        W30802   3.191  11.456  13.121 -0.0182  0.4216  0.0198
15334W        W30803   5.421   4.068   0.724  0.0718  0.1044  0.0410
15335W        W30804   6.445   3.041   3.360  0.3309 -0.2131 -0.1739
15336W        W30805   4.909   3.437  15.359  0.4578 -0.0718 -0.3507
15337W        W30806   9.696  10.513   0.403  0.0161 -0.0200 -0.1496
15338W        W30807   9.103   5.318  12.029 -0.0391  0.1469 -0.0090
15339W        W30808  16.248   7.955   1.250 -0.0323 -0.1598  0.0923
15340W        W30809   0.532   0.570  10.693 -0.0043  0.1391 -0.3158
15341W        W30810   9.206   0.703   4.456  0.1171  0.1176  0.2091
15342W        W30811   0.200  16.241   4.857 -0.0397  0.0812 -0.0155
15343W        W30812   8.435  10.372  10.708 -0.0954 -0.1607  0.0485
15344W        W30813   1.213  17.923   2.672  0.5976  0.2055 -0.0540
15345W        W30814  12.602  15.532  13.448  0.0970  0.2876  0.0627
15346W        W30815   6.353  10.468   1.492  0.1946  0.1195  0.1671
15347W        W30816   3.162   7.711  12.903  0.1677 -0.2646 -0.0318
15348W        W30817  17.316   0.069   0.464 -0.2621 -0.3143  0.1321
15349W        W30818   5.563   6.669   0.306 -0.0365  0.0281  0.2274
15350W        W30819   5.841  10.524  13.128  0.1998 -0.1738 -0.1162
15351W        W30820  10.406  11.931   0.699  0.1880  0.2169 -0.0040
15352W        W30821  10.699   9.373  12.592 -0.0907 -0.0493  0.3479
15353W        W30822  10.247  17.009   1.614 -0.0085  0.1903  0.0175
15354W        W30823   2.140   4.878  14.228 -0.0752 -0.0280  0.2086
15355W        W30824   3.169   9.294  12.631 -0.0405  0.0983 -0.3590
15356W        W30825   0.012  13.778  15.076 -0.0739 -0.0612 -0.0810
15357W        W30826  15.444  10.635  15.096  0.2003  0.5389 -0.1735
15358W        W30827   4.839   6.132   3.343  0.0938 -0.3103  0.4249
15359W        W30828  14.071  10.237   3.232 -0.0835  0.3846  0.2013
15360W        W30829  16.062   9.499   4.073  0.0111 -0.0407 -0.0844
15361W        W30830   1.727   3.490   4.241 -0.0548 -0.1067 -0.1247
15362W        W30831   8.757  16.271  11.315  0.1177 -0.3279 -0.1703
15363W        W30832   3.342  12.403  15.023  0.0836 -0.0048  0.0877
15364W        W30833   9.532   5.759  15.408  0.2340 -0.0537  0.3599
15365W        W30834  11.171  11.216   1.654  0.0854  0.2580  0.1079
15366W        W30835  13.830  13.201   4.483 -0.4807  0.0564 -0.0530
15367W        W30836   2.536  13.914   5.289  0.1013  0.4232  0.0780
15368W        W30837   1.255   9.917  13.147 -0.3568  0.1330  0.0443
15369W        W30838  14.229  10.189  10.980  0.1077  0.0002 -0.0644
15370W        W30839   3.478   4.433   6.135  0.2062 -0.1477  0.0313
15371W        W30840  13.980  18.356  11.248 -0.2647  0.1475 -0.1234
15372W        W30841   8.842   3.253   5.026 -0.0126 -0.1485 -0.2926
15373W        W30842   8.023   4.819  11.300  0.2009  0.3832 -0.2222
15374W        W30843  12.086  11.248  11.485  0.0144  0.0540  0.1109
15375W        W30844  10.498   1.178  15.429 -0.3294  0.2662  0.0025
15376W        W30845   4.987   8.144  15.368 -0.0389  0.1476  0.3194
15377W        W30846  11.628  17.636   0.491 -0.2711 -0.1687 -0.1674
15378W        W30847  15.870  12.322   0.798  0.0714 -0.3454  0.1064
15379W        W30848   4.758   0.945   3.110  0.0600  0.1185 -0.0827
15380W        W30849  18.075  11.714  14.052  0.0897  0.1563 -0.1801
15381W        W30850  10.919   2.672  14.856  0.1208 -0.1157 -0.1156
15382W        W30851   2.824  16.965  10.663 -0.4710 -0.0719  0.1248
15383W        W30852   7.118   0.934   3.383  0.1504 -0.1228  0.0793
15384W        W30853   8.568   0.663  13.870  0.1517 -0.0176 -0.1175
15385W        W30854  12.526   2.191  15.419 -0.0891  0.0766  0.0149
15386W        W30855   8.324  11.076  10.310 -0.0994  0.1450 -0.1209
15387W        W30856   2.481   4.768  15.022 -0.1088  0.2561 -0.2459
15388W        W30857  11.668  13.608  12.609 -0.0531 -0.3162  0.0645
15389W        W30858  16.403  13.155   1.893 -0.2893  0.0741 -0.2273
15390W        W30859   5.642  14.665  10.742 -0.1239  0.4616  0.0834
15391W        W30860  15.019   6.173   0.394  0.0113  0.1535  0.0365
15392W        W30861  15.727  10.805   2.696 -0.2184 -0.3370  0.3210
15393W        W30862   3.926   6.834  15.009 -0.0588 -0.2493 -0.1021
15394W        W30863   8.973   7.121   2.254  0.0937  0.0663 -0.5550
15395W        W30864   4.916  15.819   5.257  0.1932  0.0722  0.2080
15396W        W30865  14.567  16.222  11.608 -0.2684  0.1032  0.0042
15397W        W30866   0.902  11.118  11.886  0.1443  0.0396  0.1440
15398W        W30867   0.887   1.986   0.659 -0.3708  0.1489 -0.0762
15399W        W30868  15.690   9.922  15.592  0.5225 -0.3591 -0.0684
15400W        W30869   9.267  10.622   0.044  0.0368 -0.0683 -0.0995
15401W        W30870  13.947  11.334  11.396 -0.3051 -0.1957 -0.0885
15402W        W30871  10.960   2.677  11.591  0.0457  0.0036  0.1919
15403W        W30872  16.197  13.215   3.424  0.0570  0.0839 -0.0223
15404W        W30873   9.108   6.232  12.907 -0.1458  0.4267  0.2273
15405W        W30874   6.983   7.583  13.231  0.0145 -0.1850 -0.1029
15406W        W30875   8.457  18.270  15.066 -0.1903 -0.0532  0.1467
15407W        W30876   3.742   8.156  14.085 -0.3070 -0.3315  0.0855
15408W        W30877   1.404   4.908  11.357  0.0084 -0.0098 -0.1286
15409W        W30878  16.281   1.276  13.438 -0.0387 -0.0654 -0.1064
15410W        W30879  13.666   1.717  13.383 -0.2589  0.3316 -0.2699
15411W        W30880  17.487   2.706  12.575 -0.2987  0.2424  0.0872
15412W        W30881   5.457  11.424  12.122  0.1216 -0.0668  0.4085
15413W        W30882  10.241   2.003  14.226  0.1697  0.0115  0.0513
15414W        W30883   5.516  15.495   4.106  0.0239 -0.1248  0.2625
15415W        W30884  16.028  18.218   3.983 -0.0623 -0.1091  0.0437
15416W        W30885   7.616  17.289   0.681  0.0676  0.0142  0.0072
15417W        W30886  10.982   1.035   5.455  0.0857 -0.1521 -0.0847
15418W        W30887  14.608   5.616  12.931  0.0892  0.1871  0.1917
15419W        W30888  10.981  15.460   3.143 -0.1434  0.0241  0.0882
15420W        W30889   7.069  13.333   4.402 -0.0360  0.3195 -0.0239
15421W        W30890  17.160  13.022  13.073  0.0527 -0.3937  0.1214
15422W        W30891  14.406   2.345  13.279  0.0985  0.2438  0.0713
15423W        W30892  12.811   2.786  14.884 -0.0259  0.1171 -0.0776
15424W        W30893   8.676  18.389   1.977 -0.4915  0.2042 -0.4651
15425W        W30894  11.074   6.201   2.379 -0.0347  0.2972  0.0077
15426W        W30895  15.938  11.583  15.054  0.1336  0.1199  0.0659
15427W        W30896   3.044   1.764  14.408  0.1094 -0.2310  0.0313
15428W        W30897  10.348  12.408   5.070  0.1507  0.1091 -0.1611
15429W        W30898   1.257   1.956  14.286 -0.1408 -0.0967 -0.4100
15430W        W30899   9.297   6.552  14.990 -0.2262  0.1721  0.1576
15431W        W30900  13.736   8.828  13.433 -0.0667  0.1130  0.1403
15432W        W30901  13.105   8.300  14.164 -0.1095  0.0209  0.1399
15433W        W30902   2.047   7.365   1.429 -0.3795 -0.0559  0.3011
15434W        W30903  16.175   5.886  11.654 -0.2588 -0.2300 -0.0299
15435W        W30904   9.405  16.478   3.502 -0.2133  0.1246  0.4008
15436W        W30905  10.517  12.650  13.817  0.5239  0.2702 -0.2200
15437W        W30906  10.886   5.244  14.762 -0.1014 -0.0632 -0.2390
15438W        W30907   0.875  15.410  13.637 -0.2950 -0.0109  0.2571
15439W        W30908   7.103   2.320  13.106 -0.0702  0.1437  0.1232
15440W        W30909  14.904  14.275  13.485  0.2143 -0.0144 -0.1059
15441W        W30910  13.188  10.566  10.944 -0.2151 -0.0824  0.1723
15442W        W30911   2.415  14.123  12.406 -0.1822  0.3758  0.2393
15443W        W30912   3.051   7.938  15.879 -0.2273 -0.1462 -0.2232
15444W        W30913   3.324  13.466   0.728 -0.0163 -0.0166 -0.0514
15445W        W30914   1.442  17.278   5.650 -0.1664  0.1462 -0.1107
15446W        W30915   6.252  16.153  10.563 -0.0268 -0.1628  0.0263
15447W        W30916   2.692   8.089   3.232 -0.2211 -0.0797  0.0027
15448W        W30917  11.847   6.765  13.541  0.2063 -0.2875  0.0442
15449W        W30918  12.489  15.123   1.613  0.3369  0.2519  0.1021
15450W        W30919   1.477   5.108  11.818  0.0380 -0.1638 -0.4124
15451W        W30920   2.143   3.167   0.329 -0.2245  0.1182 -0.0669
15452W        W30921  13.431   7.958   0.081 -0.2169 -0.2384  0.0606
15453W        W30922   0.580   3.067   2.831 -0.0538 -0.0791  0.1399
15454W        W30923  12.095   7.029   0.637 -0.0510  0.0663  0.2540
15455W        W30924  12.708   0.587   3.514  0.2555 -0.0136  0.1107
15456W        W30925   2.741   6.075  15.581  0.1920  0.1244  0.0030
15457W        W30926  13.136  18.006   5.875 -0.0456  0.0331 -0.3502
15458W        W30927  10.890   3.614  11.843 -0.1520 -0.3736 -0.0636
15459W        W30928  13.671  12.130   1.084 -0.2428  0.2562  0.1682
15460W        W30929  10.558   3.069  14.711  0.1710 -0.0149  0.1336
15461W        W30930   2.546  18.105  13.309 -0.1591 -0.0978 -0.0583
15462W        W30931   7.594  15.960  10.953  0.1216 -0.2928 -0.2714
15463W        W30932   6.158   9.307  12.757 -0.0756 -0.2229  0.2717
15464W        W30933  14.717  16.889   5.356 -0.0980  0.0766 -0.2281
15465W        W30934   6.969  12.103  12.610 -0.0979  0.0954 -0.1157
15466W        W30935  15.855  18.411  15.760  0.0530  0.1682 -0.5707
15467W        W30936  14.486   9.291   3.291 -0.2139 -0.0311 -0.1253
15468W        W30937   0.712  11.446  10.672  0.0302 -0.0526  0.0662
15469W        W30938   9.338   4.155  13.239  0.1060 -0.0989 -0.0937
15470W        W30939  12.851   0.554   4.352  0.0070 -0.0136  0.2673
15471W        W30940  10.318  16.048   1.593  0.0600 -0.0137 -0.0532
15472W        W30941  16.285  13.945   0.102 -0.2437  0.1623 -0.0095
15473W        W30942  10.689  11.342   2.848  0.0993 -0.0067 -0.0654
15474W        W30943  10.751  11.574  11.559  0.1748  0.2723 -0.1186
15475W        W30944  16.223  10.810   4.152 -0.0378  0.2927  0.0025
15476W        W30945  11.615   7.239   5.095 -0.1265  0.0205  0.0229
15477W        W30946   2.281   2.280   0.381 -0.2380  0.2807  0.0063
15478W        W30947   9.290  15.650  11.803  0.2332 -0.3290  0.1263
15479W        W30948   3.104   7.212  11.591  0.0357 -0.2053 -0.0687
15480W        W30949   8.423   9.972   2.290 -0.0459  0.1823 -0.3045
15481W        W30950  10.556   0.697   0.378  0.1371 -0.2941 -0.2676
15482W        W30951  12.535  14.444  14.246 -0.0789 -0.1720  0.0437
15483W        W30952  10.295   2.505  14.142 -0.2628 -0.0004 -0.0703
15484W        W30953   8.198  10.778   1.319 -0.1312  0.0384  0.0276
15485W        W30954  18.223  13.353   1.700 -0.5459 -0.0917 -0.1447
15486W        W30955  17.534   3.157   4.022  0.1643  0.2485  0.3526
15487W        W30956   8.216   0.834  13.189  0.0235  0.0297  0.0013
15488W        W30957   7.820  12.284   3.078  0.2210 -0.0274  0.0729
15489W        W30958   5.800   3.502  15.218 -0.2883  0.2126  0.5006
15490W        W30959  15.288   4.125  15.049  0.1729 -0.0880 -0.2661
15491W        W30960   4.065  17.075   2.603 -0.0338 -0.1417 -0.0081
15492W        W30961   1.956  12.010  11.849  0.2134  0.0740 -0.0909
15493W        W30962   7.526   9.882  11.559  0.0168  0.4561  0.0446
15494W        W30963   3.043  17.737   3.469 -0.1121  0.2501 -0.0858
15495W        W30964   1.278   5.366  11.442 -0.3316  0.2417 -0.0819
15496W        W30965   4.839  11.975  15.355  0.0188 -0.1843 -0.1359
15497W        W30966   1.024   4.633   1.341  0.3043  0.2110 -0.2561
15498W        W30967   5.121   2.766   5.781  0.0313 -0.1614 -0.0273
15499W        W30968  18.336  11.088   2.575  0.2416 -0.0875  0.0435
15500W        W30969  18.481  14.349   4.386 -0.0939 -0.0767 -0.2725
15501W        W30970   2.960  11.578   3.287  0.0713  0.0087  0.1456
15502W        W30971   8.308   1.766   5.249 -0.1783  0.2966  0.0669
15503W        W30972   9.309   6.672   4.609 -0.1576 -0.0879 -0.0645
15504W        W30973   7.459  16.688   4.231  0.0397  0.0579  0.0537
15505W        W30974   2.467   0.763   1.308 -0.0132 -0.0489 -0.1170
15506W        W30975  14.068   9.551   3.005 -0.1188  0.0764  0.1354
15507W        W30976   1.167   6.604   1.280  0.2606 -0.0394 -0.4661
15508W        W30977  11.668   5.151  11.340  0.0042 -0.1140  0.3070
15509W        W30978  14.091  13.948   2.554 -0.3012 -0.1815  0.1091
15510W        W30979  10.827   8.253  15.864 -0.0719  0.0062  0.2248
15511W        W30980   7.621  12.309   2.589 -0.0163 -0.0217  0.0818
15512W        W30981  10.878  12.327  14.936  0.0404  0.1955 -0.3201
15513W        W30982  12.578  17.090  10.800 -0.0986  0.1671  0.0940
15514W        W30983  15.346   2.066   5.186 -0.2165 -0.0943  0.1903
15515W        W30984   2.631   6.466   4.110 -0.0235 -0.0179  0.2119
15516W        W30985  10.517  18.371   1.053  0.2432 -0.2723  0.3022
15517W        W30986  13.129   4.088  14.194  0.2476 -0.0045  0.1128
15518W        W30987  16.787  12.439  15.047  0.2590 -0.0196 -0.0388
15519W        W30988   6.128   5.684   2.403  0.1796  0.0051  0.2511
15520W        W30989   3.322  11.855   1.404  0.2597 -0.3093  0.1534
15521W        W30990   5.099   3.432   5.383  0.0082 -0.2320 -0.0116
15522W        W30991   4.058   7.552  14.639  0.0015 -0.0328  0.4711
15523W        W30992   5.458   9.002  11.237 -0.1301  0.0582 -0.0185
15524W        W30993   7.735   0.872  13.141 -0.0234 -0.2719  0.2222
15525W        W30994   9.678   6.665  12.273  0.1619 -0.3575  0.1226
15526W        W30995   5.942   9.444   0.564 -0.1102  0.0384 -0.2272
15527W        W30996   8.346  17.477  15.595  0.0045  0.1422  0.1348
15528W        W30997   2.026  11.968  13.228  0.2347  0.0532  0.1493
15529W        W30998   5.156  12.850  13.643 -0.2676  0.0356  0.2789
15530W        W30999   2.874  16.530   4.643 -0.0716  0.3303  0.1936
15531W        W31000  11.254   6.130   0.261 -0.1348  0.2342 -0.1974
15532W        W31001  16.184   6.321  15.617 -0.1066  0.1741  0.1441
15533W        W31002  12.379  18.455  11.716 -0.0927 -0.2825 -0.2339
15534W        W31003   4.160  17.410   6.439 -0.1326 -0.3585 -0.1669
15535W        W31004   0.528  17.578  13.472 -0.3168 -0.0971  0.3372
15536W        W31005   2.762   9.063  10.647 -0.1885 -0.2012 -0.2403
15537W        W31006   1.913  16.191  12.419 -0.1968 -0.2632  0.1148
15538W        W31007   0.133  14.745   1.625  0.2334  0.4323  0.2245
15539W        W31008   7.186  12.975  10.741  0.0064  0.0941  0.0804
15540W        W31009   0.611   2.853  13.497 -0.0174 -0.2223  0.6533
15541W        W31010  18.036  11.646   3.401 -0.2429  0.1116  0.1685
15542W        W31011  12.000  11.236   1.947 -0.1705 -0.1219 -0.1268
15543W        W31012  14.734   6.108   2.447 -0.0335  0.1653 -0.0991
15544W        W31013   4.923  16.014  10.719  0.1154 -0.0484 -0.1209
15545W        W31014  11.115  12.402   0.205  0.1179  0.1426 -0.3264
15546W        W31015  16.022   9.382  10.986  0.1212 -0.0800  0.2706
15547W        W31016   7.703   7.549  13.972 -0.2076 -0.0432  0.0692
15548W        W31017   5.132   4.484  14.323 -0.1198 -0.3613  0.0778
15549W        W31018   5.364   3.745   3.226  0.1507  0.1134 -0.1371
15550W        W31019  10.872  13.556   0.223 -0.5640  0.0596 -0.0759
15551W        W31020   9.641   4.754   3.650  0.1695 -0.1547  0.1906
15552W        W31021  11.225   9.551   0.087  0.0276  0.1435 -0.0728
15553W        W31022  12.212   1.707   2.734  0.1150 -0.1777 -0.2254
15554W        W31023  14.924  16.194   3.484 -0.0367 -0.0180  0.1499
15555W        W31024   1.405  16.686   3.977 -0.1028 -0.1829  0.0586
15556W        W31025  17.722  10.543  12.407 -0.0476 -0.1469 -0.3971
15557W        W31026   9.686   0.752  15.547  0.2996  0.0939 -0.0783
15558W        W31027  17.898  11.323  14.777  0.2395  0.2838  0.0717
15559W        W31028   3.255  12.328   4.113 -0.1381  0.4896  0.2223
15560W        W31029   4.454  14.744   0.990 -0.0453 -0.1376 -0.0736
15561W        W31030  14.341  11.666  14.106  0.0550  0.3077 -0.0164
15562W        W31031  10.423   4.596   5.111  0.0856 -0.3445  0.1193
15563W        W31032   6.233  17.284   3.591 -0.1257 -0.4322  0.2302
15564W        W31033   6.053   2.184   1.135  0.1773 -0.0849 -0.1393
15565W        W31034  13.790  13.705  13.921  0.1069  0.0318 -0.0224
15566W        W31035   0.294   3.799   1.274  0.0202  0.3146 -0.3369
15567W        W31036  13.757   9.354  13.306  0.2486 -0.2648  0.3062
15568W        W31037   3.444  11.938  15.179  0.2033 -0.0511 -0.2838
15569W        W31038   5.882   7.610   2.497  0.0367 -0.2037 -0.0910
15570W        W31039   2.018  10.549   4.238  0.2367 -0.2382  0.0691
15571W        W31040  18.296  10.309  10.617 -0.0453 -0.1896 -0.0098
15572W        W31041  15.381   1.669   0.276 -0.2097  0.3422 -0.1576
15573W        W31042   1.922  16.177   6.202 -0.0627 -0.1976 -0.1249
15574W        W31043   2.821   6.428  13.647 -0.0183  0.3192 -0.1035
15575W        W31044   8.211  10.258   4.164  0.0702  0.1340 -0.1596
15576W        W31045  14.898   0.178  13.111 -0.0698 -0.2413  0.0485
15577W        W31046  15.316  13.347  10.205 -0.1365  0.3542 -0.4135
15578W        W31047  16.949  15.715   5.111 -0.4746  0.1819 -0.3078
15579W        W31048  13.693   0.350  13.237  0.1080  0.1622  0.1399
15580W        W31049  15.984   7.063   1.220  0.0725  0.1107 -0.0234
15581W        W31050  13.512  11.082  14.251 -0.1742 -0.0309  0.1640
15582W        W31051  17.410  11.499   3.665 -0.0589 -0.0422 -0.0292
15583W        W31052   6.834   7.829  12.379 -0.1953 -0.0126  0.4741
15584W        W31053   5.949  15.296  14.217  0.0855  0.0622  0.2626
15585W        W31054   7.151   1.896   4.501 -0.4002 -0.1354  0.0044
15586W        W31055   3.828   3.010   5.675  0.4861  0.2247 -0.1448
15587W        W31056   6.238   1.220  12.204  0.2086 -0.1538  0.0984
15588W        W31057   0.788  14.815   3.773 -0.1124  0.0360  0.3336
15589W        W31058   7.487  14.222   5.317 -0.2693  0.1134  0.2627
15590W        W31059  13.439   1.140  12.632  0.0077 -0.1983 -0.1063
15591W        W31060   5.936  15.275   5.344 -0.0484  0.1734 -0.0110
15592W        W31061  10.294   0.196   4.811 -0.0758  0.0160 -0.2076
15593W        W31062  17.672  10.002  11.109  0.1447 -0.0326 -0.2784
15594W        W31063   6.030   7.818   1.140 -0.1349 -0.0939  0.1849
15595W        W31064  15.086  18.065   1.889 -0.3117 -0.0611  0.0062
15596W        W31065  15.765  17.103  14.540 -0.1691  0.3910 -0.0910
15597W        W31066   7.866   3.334   2.195  0.3381 -0.3595  0.1441
15598W        W31067   0.069  17.591   3.115 -0.0025  0.1592  0.2395
15599W        W31068   8.713  17.059  12.316 -0.1630  0.0338  0.1788
15600W        W31069   8.401   4.566   4.254  0.1444 -0.0744 -0.2753
15601W        W31070   3.607  11.751   1.805 -0.0176  0.0424  0.1248
15602W        W31071   3.091  18.296   5.088  0.2323  0.1510 -0.1583
15603W        W31072   5.334  11.370  14.233 -0.1548  0.0428 -0.0612
15604W        W31073   4.315  11.773  14.286  0.2609  0.0706 -0.1668
15605W        W31074   5.499   0.066  11.938 -0.5054  0.0597  0.4048
15606W        W31075   0.166  12.697   0.632  0.1862 -0.0908 -0.1504
15607W        W31076   4.881  10.444   4.440  0.3418 -0.1423 -0.3128
15608W        W31077  11.084   5.236   4.156 -0.1975 -0.2353  0.0431
15609W        W31078  11.044  12.427  10.650 -0.0452 -0.2494  0.3214
15610W        W31079  11.357   3.351   0.970 -0.1318  0.1824 -0.0128
15611W        W31080   2.920  17.280   2.236 -0.1906 -0.0057 -0.0736
15612W        W31081  14.458   1.074   0.537  0.3138  0.0574  0.1439
15613W        W31082  16.214  16.021   1.709  0.0540  0.1905  0.0841
15614W        W31083  15.674   2.376  15.697 -0.0860  0.2303 -0.0804
15615W        W31084   4.537   1.610   1.800 -0.0973  0.2474 -0.3555
15616W        W31085  12.648   6.924   1.372 -0.2124  0.1065  0.1941
15617W        W31086   8.806  17.287   5.512  0.4205  0.2851  0.1734
15618W        W31087  15.393   5.590  11.027 -0.0720  0.0942  0.1781
15619W        W31088   6.595  14.730  14.387 -0.5012  0.3083  0.4773
15620W        W31089  16.618   5.346   0.701  0.0294  0.0390  0.4529
15621W        W31090   3.331  12.249   0.429  0.2538 -0.1757  0.1082
15622W        W31091   5.588  13.649  13.736 -0.1798  0.1224  0.2104
15623W        W31092  16.737   5.491   1.143  0.1090  0.0125 -0.2472
15624W        W31093  17.923   3.951  12.411  0.0515  0.0939 -0.0295
15625W        W31094  17.039   2.017  13.026 -0.0993 -0.2884  0.0227
15626W        W31095   2.423   6.296   6.228 -0.0017 -0.4364 -0.0761
15627W        W31096   1.163  10.610  11.870  0.0778 -0.0639  0.0666
15628W        W31097  17.528   6.306   2.801 -0.0544 -0.2960  0.0175
15629W        W31098  14.502   6.757   1.717 -0.3194  0.0758 -0.0675
15630W        W31099  11.419   6.637  13.498  0.3166 -0.1192  0.1285
15631W        W31100   1.508  15.411   3.569 -0.1200 -0.0979  0.0159
15632W        W31101   7.259   6.734  12.067 -0.3471 -0.0679 -0.0448
15633W        W31102   1.136  11.985  11.466  0.1234 -0.3511  0.0159
15634W        W31103   7.761  10.414  15.696 -0.1036 -0.4607  0.3783
15635W        W31104   0.118  12.283   4.549  0.0541  0.0933  0.2431
15636W        W31105   1.417  16.779   5.542  0.1515  0.2066  0.1216
15637W        W31106   4.627  10.071  12.347 -0.0490  0.1018  0.0325
15638W        W31107   8.169   4.033   2.745 -0.1307 -0.0676  0.0788
15639W        W31108  13.210   4.812   1.396 -0.3463  0.0240  0.0217
15640W        W31109  18.132   5.207   1.546 -0.2041 -0.1364 -0.0703
15641W        W31110   3.487  17.862   2.848  0.0435  0.1499 -0.0411
15642W        W31111  17.724  14.658   3.278 -0.0710 -0.1332  0.3043
15643W        W31112   5.891  12.779  14.211  0.2267  0.1132  0.0379
15644W        W31113  11.467  17.600   3.216  0.1708 -0.1617 -0.1098
15645W        W31114   4.772   3.684  10.587  0.3489 -0.1194  0.0966
15646W        W31115  15.438  17.468  15.548  0.1139  0.1056  0.0070
15647W        W31116   4.225   2.181  13.782  0.0266  0.2805 -0.0889
15648W        W31117   0.442  14.870  14.222 -0.2492 -0.0597 -0.2211
15649W        W31118  16.734  16.543  15.696 -0.0407  0.3360  0.0496
15650W        W31119  17.710  14.947   4.705  0.0762 -0.3118  0.1120
15651W        W31120   3.896   4.299   2.640  0.0308  0.0729  0.0925
15652W        W31121   0.233  15.962  11.119  0.2605  0.1870 -0.4030
15653W        W31122   4.511   2.106   4.261 -0.0127  0.1531  0.1462
15654W        W31123  18.128  15.195  11.185 -0.0790  0.1000 -0.1919
15655W        W31124   0.974   4.270   5.079 -0.1832  0.0476 -0.3755
15656W        W31125   2.465   2.267  14.651 -0.0757 -0.0473  0.3604
15657W        W31126   3.116  13.787   2.695 -0.2573 -0.0142 -0.0798
15658W        W31127   6.660  17.522  14.328  0.2831 -0.3555 -0.0708
15659W        W31128   4.653  14.616  11.846 -0.2571 -0.0583  0.0336
15660W        W31129  17.088  14.424  10.501 -0.0637 -0.3752 -0.1673
15661W        W31130   0.359   5.028   1.803  0.0125 -0.0183  0.0702
15662W        W31131  10.248   1.525   4.824  0.0439  0.1756 -0.1510
15663W        W31132   6.007   4.900  13.082  0.2106  0.1968  0.2346
15664W        W31133   4.429   7.771   2.182 -0.0299  0.1741  0.0306
15665W        W31134  15.914  14.079   3.222 -0.0985  0.0169 -0.1019
15666W        W31135   5.056  10.881   4.694  0.0269  0.0139  0.2283
15667W        W31136  16.654   9.373   4.793  0.1522 -0.1541  0.1949
15668W        W31137  16.686  16.902   9.769 -0.0411  0.0243  0.2261
15669W        W31138   1.401   3.770  11.786  0.2932 -0.1457 -0.3030
15670W        W31139   6.369   5.298   2.252 -0.1981 -0.1328 -0.1695
15671W        W31140   3.425  10.471  13.021  0.0165 -0.3928  0.0906
15672W        W31141   5.372   7.100  13.130 -0.1971 -0.1152 -0.0492
15673W        W31142   2.453   6.595  12.657  0.1638 -0.0899  0.1696
15674W        W31143  16.520   4.474   4.565  0.2758  0.2419 -0.0514
15675W        W31144  11.256   0.716   5.803  0.2889 -0.2803 -0.1380
15676W        W31145   4.039  13.184   1.919  0.0797  0.0682 -0.1881
15677W        W31146  17.805  12.531  10.439  0.1386  0.1544 -0.1653
15678W        W31147  15.510  17.709  10.692 -0.1344 -0.2059 -0.0655
15679W        W31148   5.831   9.999   4.920 -0.0877  0.2110 -0.1188
15680W        W31149  15.475   1.130  11.195  0.2447 -0.2142 -0.1374
15681W        W31150   1.484   4.992  13.161  0.1510 -0.1549 -0.0370
15682W        W31151  12.726  12.070   4.044 -0.0045 -0.2224  0.2212
15683W        W31152   0.099  18.213  13.132 -0.0851  0.1228  0.1692
15684W        W31153  12.497  16.404   0.149  0.1139  0.1601  0.3399
15685W        W31154   5.103   1.467  10.317  0.3098  0.0569 -0.1718
15686W        W31155   1.984   0.776   2.695 -0.0402 -0.2620 -0.0125
15687W        W31156   2.485   7.344  13.363 -0.0194 -0.1070  0.1590
15688W        W31157   8.804   7.702   1.235 -0.0886  0.2255 -0.2203
15689W        W31158  13.312  11.582   4.279  0.0778 -0.1564  0.2218
15690W        W31159   6.789   7.426   2.713 -0.2071 -0.0193  0.0939
15691W        W31160   5.601  13.621  11.410 -0.0284 -0.2818 -0.1139
15692W        W31161   3.239   0.332   0.768  0.3135 -0.0367  0.2548
15693W        W31162   4.517  16.049   3.127 -0.1569 -0.1355  0.1249
15694W        W31163   6.202   9.074   5.907 -0.1993  0.1002  0.0471
15695W        W31164   6.166  16.858  11.371 -0.0174  0.1296 -0.2349
15696W        W31165   5.183   2.400   4.147 -0.0409  0.0211 -0.1778
15697W        W31166  17.149   3.108   1.373  0.2254 -0.2343  0.0840
15698W        W31167  15.876   2.947   0.323  0.0505  0.1630  0.0826
15699W        W31168   6.080  14.281   2.693 -0.0680  0.3357 -0.3296
15700W        W31169   5.597   9.717  11.207  0.2366  0.0721 -0.1888
15701W        W31170   7.872  13.180   5.240  0.0587  0.2060  0.5108
15702W        W31171   2.480  12.212  13.081 -0.1112  0.4373 -0.0579
15703W        W31172  15.959   0.097   2.479 -0.0227  0.0236 -0.2192
15704W        W31173   6.804   8.137  12.806  0.0747 -0.0484  0.2467
15705W        W31174  14.825   0.306   1.185  0.1861  0.0436  0.1296
15706W        W31175  10.775  15.829  15.379  0.1524 -0.1683  0.1660
15707W        W31176   6.831   5.349   5.490 -0.0987 -0.0505 -0.0182
15708W        W31177  16.361   7.470   1.279  0.3842 -0.1980  0.1392
15709W        W31178   1.003  13.222  10.892 -0.4160  0.0336  0.1364
15710W        W31179  14.972  14.301   5.293 -0.1578  0.2275 -0.2251
15711W        W31180  15.707  17.957  14.306 -0.1311 -0.1148  0.0139
15712W        W31181   2.995   8.402  15.603 -0.1203  0.1390  0.3089
15713W        W31182   4.828   2.462   4.465  0.3770  0.1655 -0.2733
15714W        W31183   4.146  13.800   3.756  0.2070 -0.2532 -0.0541
15715W        W31184   3.905  16.620  14.245  0.0561 -0.1743 -0.2545
15716W        W31185  18.017   7.548  13.021 -0.2507 -0.1948 -0.1847
15717W        W31186  13.687  10.841   5.279  0.1239  0.0748  0.1183
15718W        W31187  10.401  16.778   0.842  0.1296  0.0751 -0.1179
15719W        W31188   4.154   7.976   0.598  0.1621  0.3762 -0.1117
15720W        W31189  16.012  16.477  11.320 -0.2333  0.0271 -0.2760
15721W        W31190  11.810   6.661  11.812  0.2968 -0.0659  0.1434
15722W        W31191   1.453  14.986   5.067 -0.0598  0.1453  0.0556
15723W        W31192   3.289   0.109   4.014 -0.0977  0.1916  0.3519
15724W        W31193  11.151   8.157  11.178 -0.0971 -0.2679 -0.0233
15725W        W31194  18.248  12.076  13.701 -0.0699  0.1767  0.0161
15726W        W31195   0.427  18.189  15.772 -0.0822 -0.1187  0.0145
15727W        W31196   0.819   2.461   4.780 -0.0601 -0.2034 -0.1534
15728W        W31197   8.736   4.465  13.126  0.0501  0.2053  0.3017
15729W        W31198   1.458  11.058  15.894 -0.0301 -0.1303  0.1641
15730W        W31199   8.471  18.043   2.305  0.1088  0.0328 -0.3196
15731W        W31200  18.311  15.149   4.057  0.1806  0.2039  0.2709
15732W        W31201   7.622   8.904   4.838 -0.1320 -0.1331  0.0442
15733W        W31202  16.175   9.997  14.726 -0.0942  0.0730  0.0550
15734W        W31203   4.201  13.703  12.970  0.0782  0.2555  0.1557
15735W        W31204  17.578   8.174  10.769  0.0227 -0.1217 -0.3333
15736W        W31205   7.408  13.161  12.099 -0.3400  0.1928  0.0270
15737W        W31206   5.313  15.555   6.090 -0.1195 -0.0712  0.1712
15738W        W31207  18.006  10.532   1.349 -0.0947  0.0011  0.1489
15739W        W31208   9.823  17.033  13.668  0.0299 -0.0704  0.0405
15740W        W31209   7.531  16.697  13.186 -0.1910  0.2310  0.2768
15741W        W31210   2.208   0.403   0.987  0.1480 -0.0054 -0.0381
15742W        W31211   2.502  13.192   1.026  0.0173 -0.1460 -0.0438
15743W        W31212   6.719   8.906  10.949  0.1375  0.0714 -0.1315
15744W        W31213   9.207  12.731   4.216 -0.0001  0.0550  0.3446
15745W        W31214   4.741   9.003   0.213 -0.2163 -0.0461 -0.1308
15746W        W31215   0.724   4.746  15.051  0.0065 -0.3286 -0.0256
15747W        W31216  16.514   2.684   1.948  0.1400  0.1096  0.1839
15748W        W31217   4.930   0.915  11.358 -0.0033  0.0337 -0.0101
15749W        W31218   7.283  16.889  11.087  0.1466  0.0485 -0.2445
15750W        W31219  12.395   6.783   4.599  0.1094 -0.2410 -0.2105
15751W        W31220   5.505   8.187  10.854  0.2801  0.2268  0.2978
15752W        W31221   6.936  15.726   4.655  0.1151 -0.1112 -0.2886
15753W        W31222   0.264   5.512  13.824 -0.4073  0.3424 -0.0003
15754W        W31223   2.477  11.631   3.588 -0.0270  0.0358 -0.2735
15755W        W31224   3.435   2.942   0.121 -0.2701  0.0887  0.1430
15756W        W31225  18.463   8.250   0.551 -0.1243  0.2351  0.0579
15757W        W31226  13.236   1.924  10.566  0.2085  0.1645  0.0969
15758W        W31227  15.464  16.044  15.585 -0.1049 -0.0364 -0.1713
15759W        W31228   8.035  17.322  11.772 -0.2014 -0.0252  0.2905
15760W        W31229   6.384   6.741   3.208  0.1631  0.0808 -0.0620
15761W        W31230   0.064  17.379   1.839 -0.1228 -0.3180  0.0673
15762W        W31231   7.363   6.259  12.639  0.1048 -0.0537 -0.0450
15763W        W31232   8.371  16.780  15.138 -0.1130 -0.2413 -0.0936
15764W        W31233   6.551   9.493   5.016 -0.2206  0.0155 -0.1200
15765W        W31234  11.717  17.427  15.880 -0.3698 -0.0280  0.0386
15766W        W31235  13.393  17.541   3.418  0.2063  0.0922  0.1267
15767W        W31236   6.905   6.394  15.021  0.1724  0.0238  0.0643
15768W        W31237  10.656   0.381  15.514 -0.0818  0.3303  0.2441
15769W        W31238   1.764   9.881  11.697 -0.2134 -0.1192 -0.0142
15770W        W31239   3.785   9.283  14.673  0.1403 -0.1693  0.3364
15771W        W31240  13.226   5.759   3.810  0.0916 -0.4475 -0.3282
15772W        W31241   3.366   2.411   5.766 -0.4493  0.1121 -0.0694
15773W        W31242  11.089  13.573   2.546 -0.1029  0.2462 -0.0604
15774W        W31243  12.370  14.885  11.254 -0.1167  0.1836 -0.2930
15775W        W31244   3.283  16.064   3.987  0.1121 -0.2552  0.0748
15776W        W31245   6.048  17.116   5.687  0.2009  0.1570  0.2245
15777W        W31246   3.416  15.395  15.587 -0.0860  0.0454 -0.1623
15778W        W31247   8.145  13.441   1.101 -0.4162  0.0980  0.1621
15779W        W31248   6.871  18.362  12.345  0.0703 -0.1752  0.0300
15780W        W31249   0.688   2.936   4.864  0.1474 -0.4614 -0.0892
15781W        W31250   7.415  11.356  14.691  0.0928  0.4815 -0.0429
15782W        W31251  15.665  15.041  15.350  0.0118 -0.2006  0.1638
15783W        W31252   9.275  13.877  11.207  0.1585  0.0761 -0.0403
15784W        W31253  13.693  17.941  11.386  0.0079  0.1930 -0.1245
15785W        W31254  14.741   6.609  10.827 -0.0126  0.5014 -0.1983
15786W        W31255   0.272  13.372  15.292  0.0346  0.1962  0.2490
15787W        W31256  10.729   5.071   0.357 -0.1293  0.1504  0.3404
15788W        W31257  15.599  16.154   5.188 -0.2201 -0.0757  0.0160
15789W        W31258   6.277   2.291   4.728 -0.3274 -0.0572 -0.1104
15790W        W31259   4.154  17.714   4.529 -0.3576  0.0350  0.1165
15791W        W31260  11.133   0.749  10.192 -0.0811  0.1131  0.0191
15792W        W31261  10.138   2.861   3.352  0.0422  0.1803 -0.2532
15793W        W31262   6.824  12.479  13.927 -0.0966 -0.2072  0.1969
15794W        W31263  12.875   1.837   4.763  0.1662 -0.0153 -0.0362
15795W        W31264   6.389  14.619   2.410  0.1271  0.0658  0.1679
15796W        W31265  13.879   1.958   0.844 -0.0311 -0.2897 -0.0494
15797W        W31266  13.669  18.277   5.925  0.3151 -0.2334 -0.2191
15798W        W31267  14.904   0.221   4.561  0.0090 -0.1535  0.1251
15799W        W31268  17.637  14.419  11.926  0.1598  0.0842  0.0597
15800W        W31269   5.238   4.510   5.987  0.1900  0.1677 -0.1433
15801W        W31270   2.776   6.237  14.654 -0.0204  0.1854  0.0341
15802W        W31271  13.235   9.632  13.679  0.0097  0.1471 -0.0692
15803W        W31272  12.785  15.105  11.007 -0.1320 -0.1769 -0.0403
15804W        W31273  10.075   1.612   2.307  0.1891 -0.1928  0.0178
15805W        W31274   0.422  15.232  13.841  0.1165 -0.2027 -0.0021
15806W        W31275   1.762  17.025  12.957  0.0743 -0.2896  0.0964
15807W        W31276   8.680  15.078  10.783  0.0267  0.3718 -0.1160
15808W        W31277  12.946  17.238  15.751  0.1580 -0.0778 -0.1729
15809W        W31278   9.692   8.987  13.983 -0.0525 -0.0774  0.2155
15810W        W31279  16.761  10.528   1.537  0.0970  0.0983  0.2213
15811W        W31280  15.783  16.890   3.142 -0.0262 -0.0827  0.1498
15812W        W31281   2.120   1.607  12.661 -0.0572  0.3895  0.1070
15813W        W31282   8.066   5.913  15.148 -0.3260  0.4968 -0.1224
15814W        W31283   0.003   9.216   0.305  0.0276  0.0035  0.1718
15815W        W31284   2.364   2.176   1.495  0.0764 -0.3976 -0.2197
15816W        W31285   0.394  11.402   4.068 -0.2514 -0.0223 -0.2495
15817W        W31286  12.712  14.589  12.412  0.0923  0.0229  0.0568
15818W        W31287   2.266  11.043   5.039  0.0230  0.0831 -0.1811
15819W        W31288  15.062   6.272  14.623 -0.1573 -0.2765 -0.0882
15820W        W31289  12.760   9.844  13.682 -0.3250 -0.0243  0.1603
15821W        W31290   7.622  12.974   4.308 -0.1908  0.2142  0.0522
15822W        W31291  10.851  17.489  15.770  0.0030 -0.1089  0.1910
15823W        W31292   0.808  10.706   5.213  0.1300 -0.0396  0.0534
15824W        W31293  15.612   9.388  14.674 -0.3419  0.0736  0.0819
15825W        W31294   0.086  13.481   5.419  0.0356 -0.1091  0.2357
15826W        W31295   4.952   8.379  12.505 -0.0111  0.1788  0.0998
15827W        W31296   8.361   7.274   4.372 -0.0938  0.1196 -0.2738
15828W        W31297   5.318  10.779   5.174  0.0951 -0.1333  0.0650
15829W        W31298   7.587  10.855  11.495  0.2322  0.0087  0.0193
15830W        W31299  15.962   1.439  12.988 -0.0119  0.2172 -0.1849
15831W        W31300   4.966   8.185   4.973 -0.0657 -0.0537  0.3845
15832W        W31301  16.881  17.806  13.709  0.2146 -0.1837 -0.1464
15833W        W31302   9.020   3.218  11.321 -0.0655 -0.1665  0.1435
15834W        W31303   5.854  16.773   5.301  0.0933 -0.2088  0.0976
15835W        W31304   9.124   2.734   3.283 -0.2179 -0.0228  0.0313
15836W        W31305  14.511   1.686   1.883  0.1182 -0.1183 -0.1662
15837W        W31306  13.122  10.226  11.829  0.0102 -0.0403 -0.1338
15838W        W31307   5.130   7.384   5.784 -0.2346 -0.0610  0.0504
15839W        W31308   5.665   2.511   2.653  0.0746 -0.0216  0.1227
15840W        W31309   4.929   1.353   3.934 -0.0186  0.0047 -0.1082
15841W        W31310  12.841  17.023   4.072 -0.3128 -0.0871 -0.2491
15842W        W31311  17.343   3.571   0.455 -0.2444 -0.1182 -0.0771
15843W        W31312   7.760   5.304  13.474  0.2728 -0.0593 -0.0890
15844W        W31313   3.209  14.948   0.795 -0.2765 -0.2866  0.1951
15845W        W31314  11.297   7.379   3.202  0.3719  0.3329  0.0694
15846W        W31315  13.604  16.209   5.063 -0.1968  0.0694 -0.0893
15847W        W31316   3.677   3.275  13.387  0.2023  0.5316  0.2408
15848W        W31317  15.963  10.013   4.849 -0.0587  0.1814 -0.3993
15849W        W31318   2.169   0.442   2.967  0.0076  0.1761  0.2471
15850W        W31319   0.243  13.658   3.107 -0.0409 -0.0461  0.1656
15851W        W31320  16.820   9.840   0.435 -0.0570  0.1332 -0.2333
15852W        W31321   6.203  10.661   0.574 -0.0633 -0.0188 -0.2629
15853W        W31322   5.122   2.163  13.365  0.1962 -0.1134 -0.1424
15854W        W31323  14.758  11.430  12.642 -0.3751 -0.0312  0.0549
15855W        W31324   8.235  15.664   1.444  0.0851  0.4677  0.1071
15856W        W31325  15.863  16.118   0.774  0.1277 -0.2816 -0.0933
15857W        W31326   9.949   0.349  12.533  0.2829  0.0344  0.0163
15858W        W31327   8.959   6.960  15.507  0.2713  0.1212  0.0382
15859W        W31328   7.944   4.621   5.302  0.0405  0.4102 -0.2761
15860W        W31329   2.590  16.265   0.144 -0.3443 -0.1105 -0.2081
15861W        W31330  17.801  11.674  10.430 -0.0655  0.1679  0.1554
15862W        W31331  10.096  16.935   2.642  0.1756 -0.1462 -0.0212
15863W        W31332  11.039  12.213   3.986 -0.2264 -0.1923 -0.0797
15864W        W31333   0.147   8.657   0.400  0.1084  0.0405  0.1661
15865W        W31334  13.443   3.868   3.354  0.4466  0.2598 -0.0030
15866W        W31335   7.794  14.047   2.065  0.0079  0.2393 -0.2155
15867W        W31336   8.099   0.385   0.869 -0.0718 -0.1846 -0.1318
15868W        W31337  10.502  10.662  15.175 -0.2268 -0.2014 -0.2496
15869W        W31338  17.217   1.915   4.716  0.0246  0.0535  0.2314
15870W        W31339   9.321  12.315  15.097  0.1372  0.1037  0.2351
15871W        W31340   9.765  10.738   5.254  0.1543  0.2425  0.0526
15872W        W31341  13.136   2.598   0.968  0.0497 -0.1064  0.2000
15873W        W31342   2.655  16.051  13.113 -0.1517 -0.1834  0.5056
15874W        W31343   4.897   7.688  12.994 -0.1355 -0.1328 -0.1602
15875W        W31344   7.322   3.003   5.376  0.2187  0.0373  0.1850
15876W        W31345  11.596   7.360  12.276 -0.1155 -0.0171 -0.2286
15877W        W31346  16.623   4.824   4.948 -0.0604  0.0765 -0.1912
15878W        W31347  12.445   3.534  12.055  0.2104  0.0144 -0.2811
15879W        W31348   4.308  14.340   0.537  0.1651 -0.1028 -0.2495
15880W        W31349   4.492   7.199   1.010  0.3025 -0.2502 -0.4826
15881W        W31350  12.811   1.682  15.228  0.3426  0.0348  0.0958
15882W        W31351  13.136  13.084  13.156  0.0565 -0.1422 -0.3869
15883W        W31352  15.578   3.989   2.867 -0.2824 -0.0031  0.2476
15884W        W31353  12.396  16.386   1.754 -0.0498 -0.0917 -0.0964
15885W        W31354   1.902   3.826  12.247  0.1756  0.0409 -0.0500
15886W        W31355   4.382   6.303  12.041  0.3042 -0.1892  0.1065
15887W        W31356   3.547   6.578   5.143 -0.2222  0.1301 -0.2667
15888W        W31357  12.689   5.502   1.191  0.0603  0.0395 -0.1465
15889W        W31358  12.646  11.967  15.662  0.2374  0.0946 -0.0386
15890W        W31359  10.112  15.093  14.764 -0.6089  0.2506 -0.2224
15891W        W31360   7.992  16.025   4.636 -0.0229 -0.2216 -0.0482
15892W        W31361  10.313  10.885  15.586  0.0364  0.2924  0.2225
15893W        W31362  11.740   7.518  13.838 -0.2991 -0.2172  0.2477
15894W        W31363  10.969   5.207   3.464 -0.1718  0.1110  0.2684
15895W        W31364   4.215  11.887  14.762 -0.0193 -0.0617 -0.2074
15896W        W31365   6.518   9.494  14.327 -0.1428 -0.2612 -0.2194
15897W        W31366  11.831   8.816   1.321 -0.3036  0.2096 -0.2335
15898W        W31367  13.596   2.126  10.957 -0.0247  0.1645  0.0893
15899W        W31368   2.056   9.163  13.380  0.0326 -0.2592  0.0046
15900W        W31369   2.367   1.153   2.452  0.0804  0.1804  0.1778
15901W        W31370  15.221   8.698   0.692  0.0704  0.0004 -0.0093
15902W        W31371   3.765   6.024   4.212 -0.0967 -0.0068 -0.3193
15903W        W31372   0.469   4.200  11.951 -0.1621  0.0456 -0.0346
15904W        W31373  17.305   6.614  10.507  0.2586 -0.0980 -0.1609
15905W        W31374  14.179   7.537   2.340 -0.1036  0.3153 -0.1496
15906W        W31375  11.458   6.302  11.971 -0.1976  0.0408 -0.1861
15907W        W31376   3.185  11.866   5.455 -0.3233  0.1204 -0.2857
15908W        W31377   9.557   3.144  12.960  0.2272  0.4801 -0.2400
15909W        W31378   2.304  10.324  11.082  0.0987 -0.0684 -0.2784
15910W        W31379  12.039  15.263  12.722  0.1884  0.0182  0.0511
15911W        W31380  14.340   7.821  12.101 -0.2470 -0.1915 -0.2220
15912W        W31381   0.637   5.881   1.426  0.1746 -0.2228  0.1754
15913W        W31382   7.071  10.386  10.903 -0.2685  0.4275 -0.1879
15914W        W31383   0.907  12.404  13.707  0.1576  0.2496  0.1611
15915W        W31384  10.190   3.277   3.091  0.1657  0.0506 -0.0702
15916W        W31385   8.289   2.317   3.612  0.0624 -0.2359 -0.0501
15917W        W31386  18.248  12.738  11.783  0.0277 -0.0507  0.2177
15918W        W31387   1.714   6.690   3.674  0.0944  0.2872 -0.2617
15919W        W31388   8.193  16.140  13.596  0.0293  0.1895  0.1289
15920W        W31389   8.790   0.725   3.551 -0.1444  0.0058  0.1433
15921W        W31390  17.611  13.646  14.670 -0.1497  0.1890  0.0966
15922W        W31391   3.077   8.741   4.958  0.1238 -0.1424  0.3353
15923W        W31392  14.742   2.132  11.952  0.1648  0.0861 -0.2258
15924W        W31393   1.279   0.547  13.146 -0.3906 -0.0754  0.1104
15925W        W31394  12.483  15.989  15.659  0.2352 -0.2518  0.1804
15926W        W31395  14.984   8.621   5.716 -0.0685  0.1302 -0.2109
15927W        W31396   1.551   6.504  10.070 -0.3871 -0.4204  0.4207
15928W        W31397   8.667   5.378   1.895  0.3551  0.0828  0.0540
15929W        W31398  12.159   3.884   1.224  0.2616 -0.1535  0.1074
15930W        W31399   5.249  17.901   2.229 -0.1906 -0.3478  0.2776
15931W        W31400  13.850  13.628   1.285  0.1677  0.0530  0.0062
15932W        W31401  17.730  12.677  11.736  0.1060 -0.1231  0.2007
15933W        W31402   1.567   9.036   0.086 -0.0365 -0.0433 -0.1245
15934W        W31403  16.388   5.766   2.493 -0.0108  0.3127 -0.0183
15935W        W31404   8.790   6.943  15.061  0.0294 -0.2138 -0.1627
15936W        W31405  14.127  14.760   0.261  0.2079  0.0764 -0.0528
15937W        W31406   2.803   7.316   2.219 -0.1980  0.0385 -0.2978
15938W        W31407   4.880   5.209   4.790  0.0002 -0.0882  0.2117
15939W        W31408  16.972   3.545   3.401  0.0256  0.1158  0.0895
15940W        W31409  10.051  13.023  15.041 -0.1716  0.1025 -0.2544
15941W        W31410  12.197  17.543   0.392  0.3244  0.2825 -0.1156
15942W        W31411  15.703   5.579  12.148  0.3488 -0.2910 -0.2190
15943W        W31412  10.481  17.415  13.020  0.1431 -0.1115 -0.0904
15944W        W31413  16.924  12.973  15.740  0.0185  0.0331  0.0904
15945W        W31414  12.365   2.115   4.280 -0.0923  0.0798 -0.3167
15946W        W31415   7.308   0.568  11.795 -0.0860  0.0280  0.0595
15947W        W31416  13.046   2.705  15.358  0.0447  0.1136  0.1387
15948W        W31417  12.270  11.542   5.074 -0.2239  0.2224  0.1839
15949W        W31418   1.057  10.654   3.931 -0.1205 -0.0318 -0.3719
15950W        W31419  11.009   3.833   4.155 -0.1860 -0.2333 -0.1973
15951W        W31420  10.749   6.100   4.864 -0.1414 -0.0540 -0.0765
15952W        W31421   3.268  16.370  11.713 -0.2125 -0.0528 -0.1928
15953W        W31422  13.954  11.769  13.402 -0.6216  0.4523  0.0018
15954W        W31423  13.172  10.705  14.498 -0.2024 -0.2226 -0.3135
15955W        W31424   8.195   3.429   4.050 -0.0360 -0.0766 -0.1074
15956W        W31425  16.523   0.406   3.028 -0.4313 -0.0585  0.0030
15957W        W31426   2.672   2.431   4.951 -0.0379  0.0841  0.0709
15958W        W31427   1.006   6.595  12.920 -0.0798 -0.4579 -0.1335
15959W        W31428  18.185  13.308  13.705 -0.3582 -0.3110  0.2297
15960W        W31429   6.601   6.898  11.610  0.0976  0.3492 -0.2571
15961W        W31430   8.742   0.779   1.571  0.0324  0.0722 -0.0821
15962W        W31431   1.467  13.505   3.947  0.2963  0.0991  0.0137
15963W        W31432   5.038   8.082   0.389 -0.1639  0.3513 -0.2379
15964W        W31433   0.095   1.252  15.774  0.0973 -0.0138  0.2181
15965W        W31434   3.528   5.625  14.595  0.0470  0.1434 -0.0398
15966W        W31435   1.560   1.217  14.761 -0.0623  0.2584 -0.0556
15967W        W31436  11.437  14.359   5.511 -0.0255  0.1128  0.2845
15968W        W31437   5.799  13.654   4.311  0.0398 -0.2140  0.1390
15969W        W31438   6.357   5.472  13.521  0.2218  0.1394  0.0740
15970W        W31439   4.139  16.687  12.458  0.0885 -0.0778 -0.1826
15971W        W31440   5.679   7.982   4.391 -0.0049  0.0277  0.1106
15972W        W31441   0.588  15.734  13.906  0.2316 -0.1761 -0.1241
15973W        W31442   5.825   1.508   0.155 -0.1074  0.1149 -0.1606
15974W        W31443   3.742  10.045   4.617  0.3583  0.1844  0.1731
15975W        W31444  10.858   3.685   1.728  0.0642 -0.0973 -0.2153
15976W        W31445  10.901   9.858   2.333  0.1947 -0.1000 -0.1084
15977W        W31446  18.176  14.730  12.972 -0.0349 -0.1610 -0.3599
15978W        W31447  14.176  18.102   4.361  0.0081 -0.1054 -0.0383
15979W        W31448   1.023   5.478  12.017  0.0576 -0.1433  0.0221
15980W        W31449   1.278  10.843  12.936 -0.1965 -0.2816  0.1144
15981W        W31450  17.013   2.049  10.798 -0.2135 -0.2116 -0.1584
15982W        W31451  15.158   7.503   3.875  0.1380 -0.0137 -0.1622
15983W        W31452  10.102   2.388  11.115 -0.1663  0.0072  0.2171
15984W        W31453   0.603  11.077  15.259 -0.0077  0.1670 -0.0121
15985W        W31454   3.763  15.738  11.026  0.1848  0.0344  0.2927
15986W        W31455   3.266   4.886  10.735  0.1175  0.2105  0.0041
15987W        W31456   2.912  12.653  14.995 -0.1967  0.1394  0.1626
15988W        W31457   0.859  16.870  11.436  0.2170 -0.1096  0.0355
15989W        W31458   6.444   3.210   1.220 -0.4225  0.2113 -0.1850
15990W        W31459   0.639  15.454   2.347 -0.1976 -0.0016  0.1812
15991W        W31460   9.129  10.642   3.822  0.0942 -0.0589  0.0800
15992W        W31461  16.732   1.950   3.112  0.0389  0.2687 -0.1050
15993W        W31462   0.630   3.522   3.392 -0.1363 -0.1243 -0.1478
15994W        W31463  17.070   2.578   0.350  0.0940  0.1684  0.0439
15995W        W31464   6.720   4.089  14.264 -0.1107  0.1275 -0.1983
15996W        W31465   9.031   0.863  11.561 -0.1149 -0.2239  0.1179
15997W        W31466   9.629  13.936  11.616 -0.1534 -0.1240  0.0326
15998W        W31467   1.040   5.870   4.456  0.1408 -0.0842 -0.0902
15999W        W31468   2.531   7.225   2.593 -0.0826  0.0003  0.0089
16000W        W31469  18.303   0.671   3.777  0.1621 -0.1947  0.0986
16001W        W31470   0.877   4.947   3.076  0.2348  0.2113  0.3312
16002W        W31471  14.627   4.583   2.459 -0.1220 -0.1449 -0.0054
16003W        W31472   0.368   5.923   5.488  0.0248 -0.3180  0.2301
16004W        W31473  18.425   2.806  10.548  0.3710  0.3293  0.2945
16005W        W31474  12.387   7.109   2.958 -0.0594 -0.3151  0.1006
16006W        W31475  13.995  17.035  14.286  0.2172  0.1201  0.1780
16007W        W31476   8.463   8.060   4.822  0.0252 -0.1333  0.0108
16008W        W31477   8.427   8.166   3.492  0.0317  0.2791 -0.3254
16009W        W31478  17.624  14.240  11.181  0.1084 -0.0798 -0.2603
16010W        W31479  11.928   6.937   2.705  0.0893 -0.1017 -0.2654
16011W        W31480  11.751   2.430   1.142 -0.0888 -0.0368 -0.0854
16012W        W31481  13.301   1.208   0.453 -0.0559  0.0897  0.1333
16013W        W31482  18.428  15.937   4.402 -0.1300  0.0518  0.1021
16014W        W31483   7.615   4.706   4.388 -0.0144  0.2345 -0.0991
16015W        W31484   7.009   7.108  10.776 -0.0016  0.0820  0.0764
16016W        W31485  10.356   7.039  14.488  0.1871 -0.1037 -0.2232
16017W        W31486   8.692   7.409   1.926  0.0052 -0.0266 -0.0288
16018W        W31487  10.984   7.223   3.649 -0.0464 -0.2307  0.1475
16019W        W31488   2.147   6.962   4.803  0.2456  0.2373  0.1579
16020W        W31489   9.585  17.160   2.798 -0.0076  0.0355  0.0696
16021W        W31490   4.320  17.453  13.057 -0.2691  0.0050  0.1846
16022W        W31491   6.047  14.509  13.589  0.1587  0.1765 -0.0642
16023W        W31492  15.877   5.714  13.683 -0.2298  0.5280 -0.2995
16024W        W31493   3.567  17.355  10.998 -0.0652 -0.0045 -0.0989
16025W        W31494   8.539  18.034  12.693 -0.1081  0.3836  0.1161
16026W        W31495   5.663   7.805   2.881 -0.1387  0.2945 -0.1294
16027W        W31496  16.652  18.179  11.593  0.0797 -0.3069  0.0290
16028W        W31497   1.607  16.723   3.459 -0.1295 -0.0974  0.0114
16029W        W31498  16.413  16.290   0.605  0.2531  0.0695  0.0669
16030W        W31499   3.574  13.807   3.915  0.0223 -0.1711 -0.2756
16031W        W31500   0.164  17.132   4.174  0.1887  0.0976 -0.0584
16032W        W31501  10.415   0.514  14.216  0.2579  0.0076  0.1140
16033W        W31502   9.965   5.321   4.768 -0.0464 -0.1029  0.0859
16034W        W31503  18.244   5.406  11.476 -0.0267  0.0008  0.3997
16035W        W31504   3.492   4.305  12.359  0.0501 -0.1979 -0.1041
16036W        W31505   8.271  17.043  11.358  0.1359 -0.0413  0.0100
16037W        W31506   0.552  14.085  14.441 -0.0269 -0.2319  0.3033
16038W        W31507  18.269   9.017   3.855 -0.0563 -0.0673  0.3261
16039W        W31508   3.191   8.774  12.524  0.0062 -0.2168  0.1440
16040W        W31509  14.625  15.119   3.557 -0.0836  0.1097 -0.1763
16041W        W31510  11.790   4.043  15.142 -0.0320  0.0612 -0.2174
16042W        W31511  12.900   5.495   4.245 -0.0802 -0.0366  0.0286
16043W        W31512   1.229   3.354  11.003  0.1637  0.0716 -0.1241
16044W        W31513   2.568   4.582  15.818 -0.0671 -0.2385  0.4787
16045W        W31514   5.884  15.875  11.895 -0.0755 -0.4158 -0.0645
16046W        W31515   9.557   3.399   4.258 -0.2133 -0.2882  0.0671
16047W        W31516   8.209  15.950  14.522 -0.0133  0.0380 -0.0529
16048W        W31517   7.575   9.160  14.412 -0.0004 -0.3004 -0.1829
16049W        W31518  15.958   6.842   1.655 -0.3436  0.0614 -0.0823
16050W        W31519  17.255   3.837   4.586 -0.0798  0.4308 -0.2351
16051W        W31520   4.129  17.539   1.504 -0.0394 -0.0049 -0.0822
16052W        W31521   1.468  17.496   4.944  0.2327 -0.3227 -0.1279
16053W        W31522   6.715   0.347   5.341 -0.4027  0.0932  0.0743
16054W        W31523   6.157   8.820   2.947  0.0725  0.3781 -0.1902
16055W        W31524   1.402   8.997   2.741  0.0438  0.0352  0.1441
16056W        W31525   2.813   8.611  10.806  0.2681  0.3046 -0.1434
16057W        W31526  15.538  12.295  12.934  0.0705 -0.0826 -0.1039
16058W        W31527   9.091   8.701  13.479  0.2055 -0.3819  0.0108
16059W        W31528   0.191   7.351  13.640  0.0193  0.1463  0.0054
16060W        W31529   9.359   2.057   1.846 -0.0888  0.0647 -0.0175
16061W        W31530   9.036   8.359  15.507 -0.1198  0.1582  0.1640
16062W        W31531   0.067   8.652   0.941  0.0913 -0.1121  0.1826
16063W        W31532   7.632  17.920   4.993  0.1863  0.1051 -0.1090
16064W        W31533  17.140   2.189   1.356  0.5171 -0.0369  0.0168
16065W        W31534   5.295  10.845   4.254  0.1774  0.2670 -0.3141
16066W        W31535   2.813   8.121  10.884 -0.1201  0.3787  0.3074
16067W        W31536   4.289   3.012  11.187  0.2290  0.2019 -0.3187
16068W        W31537   3.963  10.519  12.885  0.0029 -0.0080  0.0994
16069W        W31538   9.538  11.192   0.819  0.1506 -0.1236 -0.2658
16070W        W31539  13.540  13.888   3.458 -0.0686 -0.2579  0.0874
16071W        W31540   6.453  15.434  11.776  0.1766 -0.2981  0.0415
16072W        W31541   5.457  17.456   1.063 -0.0309 -0.1579 -0.2589
16073W        W31542  13.023  18.312  13.945 -0.1878  0.2328 -0.0982
16074W        W31543   5.949   7.957  15.598 -0.0933 -0.0567  0.1636
16075W        W31544   9.992  14.746   3.793  0.1007 -0.3217 -0.0051
16076W        W31545   1.963   2.594   6.268 -0.2216  0.1602  0.0193
16077W        W31546   6.112   6.511  11.232 -0.0493  0.1655 -0.3086
16078W        W31547  12.987   4.061  10.319  0.5581  0.0340 -0.1029
16079W        W31548   7.410   9.026   1.083 -0.0763 -0.2338 -0.2215
16080W        W31549  11.769   7.889  12.975  0.1876 -0.1026 -0.0176
16081W        W31550  16.086   9.005  15.002  0.0870 -0.0521  0.3322
16082W        W31551   2.033  13.515   4.746  0.2409 -0.0195  0.1422
16083W        W31552  13.431   9.541   1.770  0.0130 -0.1434 -0.1658
16084W        W31553  16.482   8.638   0.272 -0.2005  0.3133  0.3671
16085W        W31554  16.459  17.957  12.352 -0.0134  0.2717  0.0115
16086W        W31555  18.451  12.967   5.435  0.3015 -0.1011  0.0361
16087W        W31556  17.146  16.685   4.987  0.0180  0.0048 -0.0102
16088W        W31557   5.631   0.621   5.820 -0.0946 -0.1287 -0.2246
16089W        W31558   6.141   2.193   2.642 -0.2955  0.0440 -0.0073
16090W        W31559   6.585  13.688   1.465  0.1688 -0.0249  0.1847
16091W        W31560   2.365   0.304   4.157  0.0810  0.1635 -0.0191
16092W        W31561  12.068   0.692   0.444  0.1354 -0.0498  0.3793
16093W        W31562  16.301  14.680   4.274  0.0008 -0.0454  0.2470
16094W        W31563   3.853  16.588   4.438 -0.3096  0.0268 -0.2649
16095W        W31564  17.803   9.179   2.590 -0.0341  0.2248 -0.0690
16096W        W31565  17.652  11.543   0.031  0.4374  0.2255  0.0330
16097W        W31566   0.658  11.929  10.655  0.0491 -0.0415 -0.0584
16098W        W31567  15.824  15.197   1.249  0.3334 -0.1320 -0.0057
16099W        W31568  13.121   7.621   0.812 -0.1267 -0.1591  0.2590
16100W        W31569   3.498   4.751   0.409  0.1156  0.0408 -0.0542
16101W        W31570   7.072  16.380  12.521  0.1583  0.1446 -0.1282
16102W        W31571   1.490  16.484  15.219 -0.1833  0.0672  0.1697
16103W        W31572   2.404  12.740  15.790 -0.2880  0.1477  0.1230
16104W        W31573   0.995   4.993  11.706  0.1863 -0.0256  0.0195
16105W        W31574   6.263   5.027   5.676 -0.1368 -0.0759 -0.0186
16106W        W31575   5.075  13.279   4.022 -0.2018  0.1967 -0.0694
16107W        W31576   9.403   6.477   2.500  0.2102 -0.3273  0.0364
16108W        W31577   1.773  12.379   0.102  0.0349  0.4968  0.2680
16109W        W31578   5.612  13.572  14.335 -0.0519 -0.0646 -0.2957
16110W        W31579   5.589   1.656  13.430 -0.2504  0.1246 -0.1836
16111W        W31580  11.543  15.712   2.996  0.1440  0.0984 -0.0878
16112W        W31581  16.083  14.816  13.493  0.0723  0.0619 -0.0696
16113W        W31582   0.855   7.422  11.266 -0.1007  0.2546  0.0969
16114W        W31583   4.905   4.797   5.019  0.2319  0.1544 -0.0268
16115W        W31584   1.300  10.011   0.832 -0.2081  0.0457  0.1533
16116W        W31585   8.177  17.257   5.673 -0.1364  0.0434  0.2088
16117W        W31586   0.382   8.409  12.742 -0.0586 -0.1212  0.0478
16118W        W31587  11.139   7.938  14.927 -0.3494 -0.0186  0.1727
16119W        W31588   4.286   8.610   3.848 -0.1653 -0.2786  0.2457
16120W        W31589   2.951   1.587   5.701 -0.1630 -0.1197  0.3073
16121W        W31590  17.134  13.262   5.456  0.0108 -0.0320  0.2684
16122W        W31591   4.866  12.175  12.192  0.1847 -0.0652  0.2126
16123W        W31592   6.477  13.518   2.981 -0.2355 -0.0953 -0.1933
16124W        W31593  16.968  16.116   4.163  0.1942  0.0663 -0.1302
16125W        W31594  15.983  12.239   2.138 -0.0812 -0.1830 -0.0112
16126W        W31595  17.044  10.910   1.354  0.0363  0.0318 -0.0017
16127W        W31596   0.821   6.309  10.919 -0.1084 -0.1653 -0.0991
16128W        W31597  14.379   7.587  10.624  0.1222 -0.0371 -0.0146
16129W        W31598   9.054   1.549  15.768 -0.0814 -0.0023  0.2390
16130W        W31599  11.577   1.618   2.784  0.0798 -0.1402  0.2482
16131W        W31600  14.772   7.557  11.236 -0.1130 -0.0401 -0.1277
16132W        W31601   4.373  15.637   2.545  0.3215 -0.2603 -0.1638
16133W        W31602  14.450   7.936   3.852  0.0104  0.0328  0.1134
16134W        W31603   3.696   3.477  14.768 -0.0845 -0.2574  0.1538
16135W        W31604   9.911   7.411  13.326  0.0347 -0.1480 -0.0192
16136W        W31605  12.005   5.855  13.619  0.1288 -0.0531  0.1080
16137W        W31606   3.856   3.889  14.193  0.0300  0.1920 -0.1653
16138W        W31607  17.836   9.426   2.130 -0.1937 -0.1975  0.1127
16139W        W31608   1.722   5.712   2.260 -0.3997 -0.0549  0.0599
16140W        W31609   4.041   4.393   3.880 -0.0209 -0.1713 -0.3525
16141W        W31610  17.835  13.617   0.587  0.2193 -0.1535 -0.2301
16142W        W31611   2.548   6.618  11.803 -0.2747  0.0436  0.1346
16143W        W31612  17.521   6.199  10.694 -0.0349 -0.4414  0.3082
16144W        W31613   2.985  17.302   0.769  0.2044  0.0571  0.1217
16145W        W31614   2.895  11.814   1.121  0.2350  0.0870 -0.0507
16146W        W31615  18.460   5.094  12.845 -0.1922 -0.0801 -0.2256
16147W        W31616   9.722  11.784   0.940 -0.0030 -0.0877 -0.2117
16148W        W31617  13.076  14.515   2.023 -0.0984 -0.1715  0.0632
16149W        W31618  15.097  17.316  11.999  0.4238 -0.0030  0.1524
16150W        W31619  18.466  11.458   5.202 -0.2263  0.0742 -0.2161
16151W        W31620   7.163   8.587  11.959 -0.0840 -0.1876  0.0973
16152W        W31621   0.829   2.672  15.262 -0.2086  0.2551 -0.1703
16153W        W31622  14.888   5.093  12.130 -0.5177 -0.0313 -0.0546
16154W        W31623  13.001  15.934  12.078  0.1794  0.0848  0.3205
16155W        W31624  15.845   5.358   1.250 -0.0322 -0.0078 -0.1649
16156W        W31625   1.817   9.059   1.558 -0.2606  0.1774 -0.3452
16157W        W31626  15.376  12.924  12.842  0.0611  0.1345 -0.1718
16158W        W31627   4.400  10.779   2.551  0.1110  0.3034 -0.2622
16159W        W31628  10.410   2.880   2.810  0.1378  0.2611 -0.1577
16160W        W31629   4.139  13.434   5.593  0.0332 -0.2292 -0.1358
16161W        W31630   1.173   9.577   2.101 -0.1005 -0.1268  0.1285
16162W        W31631  13.184   3.281   4.135  0.1301 -0.1133  0.3410
16163W        W31632  16.652  10.561   3.016 -0.0050 -0.0095  0.2345
16164W        W31633   3.518   7.093  13.845 -0.0847 -0.2152 -0.1802
16165W        W31634  13.924  14.099  10.740 -0.0354  0.0609 -0.0306
16166W        W31635   5.043  17.771   2.662 -0.2894  0.1858  0.1985
16167W        W31636   0.608  14.651   2.872 -0.4230 -0.0903  0.5172
16168W        W31637  12.967  18.270  13.448 -0.0956 -0.0591 -0.0970
16169W        W31638   1.609   9.623  13.278  0.1459 -0.0632 -0.0216
16170W        W31639  17.542  17.867  11.625  0.1634  0.2218 -0.0021
16171W        W31640  12.124   4.386  15.811 -0.1119 -0.1515  0.0897
16172W        W31641   1.866  17.741  13.588 -0.1767  0.0719 -0.0325
16173W        W31642   9.409  17.208   5.120  0.1277 -0.1819 -0.2152
16174W        W31643  15.546  10.110   3.637 -0.0742  0.0278  0.1311
16175W        W31644  14.905  14.350   3.893  0.0543 -0.0423 -0.0685
16176W        W31645   7.050  12.151  13.545  0.2007 -0.2216 -0.0015
16177W        W31646   4.370  12.143   3.796 -0.2432 -0.1468 -0.1006
16178W        W31647   5.712  14.359  11.821  0.1804 -0.0102 -0.1770
16179W        W31648   6.282   7.355   1.027 -0.0920 -0.1445 -0.0201
16180W        W31649  16.997   9.978   1.584 -0.0224  0.0415 -0.1926
16181W        W31650  15.268  12.797   2.257  0.0930  0.1623 -0.2015
16182W        W31651   4.451   0.564   2.475  0.0754 -0.0140 -0.0999
16183W        W31652  13.720   5.328  11.684  0.1898  0.1532 -0.3676
16184W        W31653  14.504   0.073  10.319  0.4627  0.2380 -0.3782
16185W        W31654  12.969   9.568  12.391  0.0714 -0.2549  0.0955
16186W        W31655  15.430  14.012   9.663  0.0502  0.2759 -0.3850
16187W        W31656   7.440   1.819   3.453 -0.0653 -0.0417  0.1842
16188W        W31657   5.462   7.085   0.622  0.0483 -0.0747  0.1343
16189W        W31658  15.206  14.113  15.530 -0.1405  0.0888 -0.3348
16190W        W31659   2.640  10.382  15.103  0.3542 -0.2149 -0.0075
16191W        W31660   2.538  15.698   0.069  0.0318 -0.1010 -0.1402
16192W        W31661   9.287   7.456   2.644  0.1145 -0.1632 -0.1619
16193W        W31662  13.338  13.043  15.233  0.0627  0.2461 -0.0372
16194W        W31663   2.673   7.963   0.944  0.1238 -0.4525  0.0823
16195W        W31664  13.704   0.895   2.597  0.1251 -0.0053 -0.0927
16196W        W31665   0.242   8.724   1.437 -0.4177  0.0311 -0.1237
16197W        W31666   8.967   8.607   2.289  0.3748  0.2976 -0.0178
16198W        W31667  15.262  11.022   2.612  0.3115  0.1974 -0.1424
16199W        W31668   1.768  16.816  14.960 -0.2898  0.1545 -0.1155
16200W        W31669  12.481   7.520  11.718  0.4082  0.0151 -0.1145
16201W        W31670  10.415   5.566  13.221  0.0447  0.0293  0.0613
16202W        W31671  11.225  17.066  12.030 -0.1419 -0.0217 -0.0371
16203W        W31672   6.876   3.500   3.007 -0.1869 -0.0583 -0.2494
16204W        W31673   0.092   8.068   3.623  0.1288 -0.0212 -0.3541
16205W        W31674   1.895  11.449   4.632  0.0696  0.0895  0.2834
16206W        W31675   7.063  12.649   0.194  0.2469  0.0060  0.3019
16207W        W31676   2.181  15.210  11.613 -0.0294  0.3118 -0.1863
16208W        W31677  10.694  17.663  12.684  0.2832  0.0528  0.0221
16209W        W31678  14.930   1.690  15.274  0.1560  0.0901  0.1369
16210W        W31679  16.218  17.742   4.570  0.0017  0.2287  0.3856
16211W        W31680   8.104   6.230  15.589  0.0624 -0.0572  0.1407
16212W        W31681   3.380  11.346  11.334  0.3730  0.0949  0.2029
16213W        W31682  11.274   2.342  11.802 -0.1838 -0.0744  0.0760
16214W        W31683   1.722  12.190  15.563 -0.2972 -0.2137 -0.2122
16215W        W31684   0.162   5.440   2.210  0.0910  0.2358  0.2048
16216W        W31685   8.119   9.150  14.513 -0.4486  0.0164  0.1693
16217W        W31686   0.001  10.120   5.190 -0.1572 -0.2009  0.0609
16218W        W31687   8.506  18.408  13.561 -0.0422 -0.3899 -0.2439
16219W        W31688  14.383   7.840  11.599 -0.4701 -0.0131  0.0884
16220W        W31689   0.080   1.088   2.220 -0.0186 -0.0239 -0.0355
16221W        W31690   4.262  10.909  15.615 -0.3067 -0.2898 -0.1232
16222W        W31691   8.671  17.481  13.932 -0.4064  0.0261  0.2812
16223W        W31692   1.075  11.338  10.975  0.2138  0.1127 -0.3536
16224W        W31693   7.105  15.543  11.908  0.2018 -0.0232 -0.2713
16225W        W31694  12.979   9.232   0.795  0.1025  0.0580 -0.4157
16226W        W31695  16.136   7.757   4.106 -0.2703 -0.1646  0.3730
16227W        W31696  10.885  11.085   1.218 -0.3147  0.1680 -0.4822
16228W        W31697   8.962  10.315   4.643 -0.1174  0.2898 -0.0898
16229W        W31698   3.844   6.931   4.610  0.0040 -0.3307 -0.0652
16230W        W31699   3.731   2.146  13.363 -0.0304  0.2115  0.1105
16231W        W31700  16.198   0.209   4.201  0.3157  0.3525  0.0856
16232W        W31701   2.681  16.398  14.825 -0.1778 -0.0034  0.0556
16233W        W31702  16.845   5.873   2.283 -0.2654  0.1796 -0.2009
16234W        W31703  15.481   3.311  13.647 -0.0748 -0.0047 -0.1642
16235W        W31704  15.408  13.347  11.088 -0.1049 -0.0435  0.0628
16236W        W31705  10.496  14.033   0.956  0.0555  0.1597  0.2202
16237W        W31706  14.238   3.474   5.721  0.2196 -0.1335 -0.2712
16238W        W31707   1.882  14.046   1.435 -0.0204 -0.0251 -0.1834
16239W        W31708   0.174  12.150  13.214 -0.2105  0.0290  0.2251
16240W        W31709   1.885   0.301  11.395 -0.1224  0.1443  0.2016
16241W        W31710  17.699   7.091  11.979  0.0984  0.2520 -0.3794
16242W        W31711   2.163  17.832   2.589 -0.0303 -0.2460 -0.1136
16243W        W31712   1.126  14.108  11.206 -0.0535  0.1481  0.1934
16244W        W31713  13.855   4.003  11.555 -0.3223  0.1402 -0.0395
16245W        W31714  11.914   5.531   3.917  0.0655  0.0257 -0.2795
16246W        W31715  15.003  17.202   1.936 -0.0374  0.0134 -0.0082
16247W        W31716  11.112  17.037   0.147 -0.0654  0.0335 -0.3627
16248W        W31717   5.999  12.948   2.469  0.0315 -0.2968 -0.2040
16249W        W31718   4.820   3.580   1.735  0.0619  0.0705  0.1888
16250W        W31719  10.969   8.799  15.773 -0.2834 -0.0015 -0.5712
16251W        W31720   8.294   4.309   4.797  0.0249  0.0297  0.0493
16252W        W31721   3.041  10.856   2.190  0.2168 -0.0814  0.0995
16253W        W31722  15.212   8.340   5.011  0.0382 -0.0705 -0.0326
16254W        W31723  10.948   5.819   0.600  0.1212  0.1629  0.0122
16255W        W31724  17.380   4.508  15.473  0.5441 -0.1991  0.1118
16256W        W31725   1.621  15.318  12.778  0.3314 -0.2849  0.0252
16257W        W31726   4.802   4.211  11.434 -0.0940  0.2328  0.1885
16258W        W31727   1.149  13.363  11.642  0.0368  0.2017 -0.1530
16259W        W31728   7.106   6.983  15.091  0.2030  0.0853  0.0473
16260W        W31729   3.284   3.543   1.126 -0.0006 -0.2489  0.0092
16261W        W31730  16.850  11.673  12.543  0.2771  0.1443  0.0759
16262W        W31731  11.763   9.032   5.193 -0.0473 -0.1159 -0.1351
16263W        W31732   5.520   4.366   1.136 -0.0374  0.3105  0.0363
16264W        W31733   2.531  13.025   0.298 -0.2199  0.0478 -0.2633
16265W        W31734   5.710   0.261  15.563  0.0373 -0.0659 -0.0502
16266W        W31735   6.357  13.856   0.998 -0.0376  0.2453  0.0765
16267W        W31736  12.264   2.853   0.593  0.5620  0.1844  0.4155
16268W        W31737   7.178   0.550   1.331 -0.1131  0.1720  0.2787
16269W        W31738  15.325  18.026   1.395 -0.1817 -0.1757 -0.3666
16270W        W31739  15.295  13.065   5.744 -0.1596  0.1625 -0.0600
16271W        W31740   1.426  12.716   4.536  0.1621  0.0075  0.0851
16272W        W31741   5.178  16.598   1.753  0.1149  0.0251  0.2075
16273W        W31742  15.474  14.484   0.117 -0.1396 -0.0398 -0.0548
16274W        W31743  11.552  12.834   3.446  0.1089  0.0868  0.1740
16275W        W31744   9.509   7.333  10.686 -0.1864 -0.1907  0.1645
16276W        W31745  11.222  16.288  11.146  0.1198 -0.2815 -0.0112
16277W        W31746   4.239  10.222  14.905  0.0468 -0.1362  0.0435
16278W        W31747  12.775   1.652  12.610 -0.1401  0.3295 -0.1082
16279W        W31748   8.834  15.336   0.219 -0.0731 -0.1741  0.0378
16280W        W31749  15.648  10.823   1.437  0.0576  0.1455 -0.1230
16281W        W31750   5.314  16.167  10.993 -0.3347 -0.1727 -0.0219
16282W        W31751  17.283  10.784  10.945 -0.2020  0.1025 -0.2650
16283W        W31752   6.211  11.044   3.884 -0.3217 -0.0934 -0.2603
16284W        W31753   4.972  16.444   4.940 -0.0349  0.0944  0.1116
16285W        W31754  11.218  12.965  12.898 -0.0809  0.0800 -0.1198
16286W        W31755  11.307   0.416   3.231  0.0613  0.1990  0.0002
16287W        W31756  17.103   4.043  14.951 -0.1158  0.1129 -0.3040
16288W        W31757   6.211   4.487  11.912 -0.3354  0.1675 -0.0286
16289W        W31758   6.665   3.132   4.218 -0.2987 -0.0936 -0.0217
16290W        W31759  16.216  16.643   0.947  0.3607 -0.3516 -0.1830
16291W        W31760  10.431   1.694   0.611 -0.2876 -0.1928 -0.0662
16292W        W31761  11.439  13.049  14.799  0.1195  0.3576  0.2887
16293W        W31762  10.791  16.965   1.306 -0.2704  0.0476 -0.0876
16294W        W31763   6.112   4.750  11.470 -0.2830  0.0464 -0.0376
16295W        W31764   9.796  12.067   1.935 -0.1703  0.3996 -0.0484
16296W        W31765  15.402  18.263  15.499 -0.1679  0.1154  0.2524
16297W        W31766  18.372   1.954   1.704  0.2376  0.1090  0.0691
16298W        W31767   5.539   5.408  14.432 -0.0265  0.0345  0.3013
16299W        W31768   2.711  18.356  12.400 -0.0368  0.0580  0.0744
16300W        W31769   4.782  16.317  11.238 -0.0323 -0.0214  0.2191
16301W        W31770  12.463  15.280   3.532  0.1518  0.1708 -0.1226
16302W        W31771   1.821   7.341   1.856  0.1666 -0.1246  0.2209
16303W        W31772   3.306   8.375   0.711  0.2651 -0.0317  0.2119
16304W        W31773   3.196  14.585   1.541  0.4077 -0.1290 -0.1651
16305W        W31774   2.234   2.787   0.616 -0.2971  0.0103  0.1873
16306W        W31775   5.215   6.208  15.145 -0.1464 -0.1142  0.0893
16307W        W31776   5.147  16.977   5.055  0.0993 -0.1731 -0.0337
16308W        W31777  18.387  15.638  11.960  0.0053  0.5226  0.0331
16309W        W31778  18.026  12.843  10.728  0.2390 -0.1390 -0.1371
16310W        W31779   3.244  16.278  13.134  0.0975 -0.2059  0.0776
16311W        W31780  17.498   8.585   1.785  0.4154  0.0088 -0.3933
16312W        W31781   7.904  16.900  11.958  0.0663  0.1284  0.0327
16313W        W31782   8.103   7.326  14.207 -0.4782 -0.2051  0.2759
16314W        W31783  13.553   8.913   3.334 -0.2571 -0.0122  0.0488
16315W        W31784  16.870   8.862  14.372  0.2024  0.1161  0.0141
16316W        W31785   9.422   1.772   0.138 -0.1650 -0.0753 -0.0122
16317W        W31786   5.896  12.739   3.138  0.2411 -0.2008  0.1455
16318W        W31787   6.463   1.466   0.882  0.0740  0.0213  0.1884
16319W        W31788   1.988  11.853   4.400  0.0038 -0.1000 -0.0291
16320W        W31789   2.366   1.372  13.732  0.1250 -0.1711  0.3819
16321W        W31790   6.225  18.448   0.253 -0.2107 -0.0322  0.1691
16322W        W31791   7.270   9.894  14.921 -0.0687  0.3023  0.1809
16323W        W31792   2.875  16.502  13.555  0.0890  0.2279 -0.2577
16324W        W31793  14.911  13.911  10.686 -0.2153 -0.1216 -0.0681
16325W        W31794   5.474   2.082   5.361  0.1045 -0.2568 -0.0456
16326W        W31795   8.374   3.168   0.274  0.0340  0.0007  0.2075
16327W        W31796   7.555   3.951   0.621 -0.1373 -0.1087  0.1408
16328W        W31797   7.942   5.520  12.189  0.0667 -0.1766 -0.2046
16329W        W31798   9.753   6.554   4.830 -0.0822 -0.0092 -0.3151
16330W        W31799   9.601  12.152   5.338 -0.1083 -0.0602  0.2661
16331W        W31800  16.517   4.660   5.589  0.2247 -0.1265  0.0694
16332W        W31801  13.265   3.715  12.921 -0.4123 -0.4488  0.2735
16333W        W31802  11.129  10.346  11.060  0.1643 -0.2826  0.4139
16334W        W31803  17.537  12.054  15.260  0.1943  0.2754  0.1787
16335W        W31804   8.094  10.357   1.026 -0.0400  0.0882  0.0130
16336W        W31805  12.054  14.328   1.722  0.1870 -0.0757  0.3668
16337W        W31806  11.899  10.812  13.723 -0.0452  0.0206  0.0567
16338W        W31807  13.252  15.429  15.074  0.3140 -0.0120  0.2449
16339W        W31808  11.345   9.223   4.419  0.1709 -0.0633  0.1157
16340W        W31809   7.904   2.820  12.837  0.1937  0.2438  0.1940
16341W        W31810  11.432  10.262   3.536 -0.1019  0.2011 -0.2802
16342W        W31811  15.185   7.497  13.737 -0.3572 -0.4014  0.1037
16343W        W31812  18.110  15.694  14.326 -0.0631  0.2405 -0.0798
16344W        W31813   1.660  13.073   0.800 -0.1032  0.0611  0.3305
16345W        W31814   6.651   6.182   1.354  0.1892  0.2081 -0.0239
16346W        W31815  17.184   8.591   0.022 -0.0510 -0.0827  0.0236
16347W        W31816   3.954   4.713   0.253 -0.0377  0.0770  0.2302
16348W        W31817  10.759   7.830   1.965  0.1238 -0.2543 -0.2578
16349W        W31818   8.576   1.066   4.405  0.1387  0.0632  0.0345
16350W        W31819  12.910   2.007   0.305  0.1365 -0.0609  0.2102
16351W        W31820  15.182  13.869   5.257 -0.3702  0.4051  0.0128
16352W        W31821   1.959  16.528   0.445 -0.2580  0.1817  0.2063
16353W        W31822  10.853  12.552   1.291  0.4464  0.0753 -0.0447
16354W        W31823   4.393  12.980   3.503  0.1144  0.0463 -0.0871
16355W        W31824   9.180   4.276   5.255 -0.4729 -0.3942 -0.0142
16356W        W31825  11.844   3.031  12.079  0.1408  0.1298 -0.0742
16357W        W31826   3.891  18.269  12.462  0.0200  0.0627 -0.1886
16358W        W31827   4.818   1.612  14.481 -0.2073  0.1016  0.0134
16359W        W31828   6.591   0.981   0.180 -0.0839  0.0860 -0.1591
16360W        W31829   1.277  17.761   1.021 -0.2531 -0.2056 -0.0464
16361W        W31830  14.284  12.070   2.813  0.1191  0.1499 -0.2151
16362W        W31831  11.879  16.116  13.496  0.1295  0.1791  0.0094
16363W        W31832  12.762   8.010   2.349 -0.3332 -0.2683 -0.3638
16364W        W31833  10.964   0.713   4.928  0.1624  0.0300 -0.0008
16365W        W31834   7.463  10.298   1.762 -0.2241  0.0754  0.1573
16366W        W31835  16.351  14.647   5.545  0.0132  0.0248 -0.2945
16367W        W31836  18.293   7.754  14.027 -0.0807 -0.1766 -0.0533
16368W        W31837   9.397  12.551  12.697  0.2361  0.0710  0.0627
16369W        W31838  10.539   6.290   1.845 -0.0867  0.0015 -0.2348
16370W        W31839  13.113   3.746   4.992  0.2609  0.1068 -0.0446
16371W        W31840   0.934  10.562  14.124 -0.0509  0.0747 -0.1068
16372W        W31841  10.198  16.151  11.936  0.1560 -0.1247  0.2492
16373W        W31842  11.174  11.748   1.627 -0.0013 -0.2355  0.1250
16374W        W31843   1.347  11.270   5.873  0.1084 -0.2466 -0.0285
16375W        W31844  16.614  13.105  11.416 -0.1576  0.0454  0.0661
16376W        W31845   6.410  13.822   0.460  0.3708 -0.1496  0.5958
16377W        W31846  11.213  17.215   3.923  0.2189  0.3422 -0.1200
16378W        W31847   4.467  17.778   4.944  0.0584 -0.3724  0.2111
16379W        W31848  13.201  11.632  14.984  0.0942 -0.1316 -0.0952
16380W        W31849  12.098  17.593   3.734  0.1950 -0.0351 -0.0915
16381W        W31850   0.459  16.009   4.429 -0.0488 -0.0548  0.0417
16382W        W31851   2.545   0.522  13.926  0.1306 -0.0705  0.2110
16383W        W31852  11.601   9.745  15.549 -0.0108 -0.2477 -0.0894
16384W        W31853   5.285  16.857   3.963  0.3203 -0.0851 -0.2077
16385W        W31854   1.455   8.824  12.257 -0.0914  0.0256 -0.1527
16386W        W31855  11.627  18.425   1.268  0.0579  0.0482  0.2853
16387W        W31856   8.110  14.447   2.020 -0.0645  0.0050  0.0063
16388W        W31857  13.471   4.126  15.153  0.1150 -0.0751  0.1620
16389W        W31858   6.838  17.294   1.722  0.0934  0.2260  0.0542
16390W        W31859   9.169   5.465   2.786  0.1956  0.0662 -0.1610
16391W        W31860   7.850  12.121   4.254  0.0996  0.1737 -0.1974
16392W        W31861   9.596   2.030  13.080  0.0474  0.0328 -0.0383
16393W        W31862  12.220  17.286  11.116 -0.2143  0.0366 -0.0950
16394W        W31863  13.676   3.753  12.075 -0.0536 -0.0209 -0.1556
16395W        W31864   3.572   1.484  13.673  0.2474 -0.0159 -0.1927
16396W        W31865  12.498   6.831   0.829 -0.3134  0.0899  0.0555
16397W        W31866  13.441   6.583  13.762  0.0206 -0.1033 -0.1318
16398W        W31867   3.708  12.704   1.786 -0.0211  0.0814  0.0013
16399W        W31868   5.677   5.203  13.955 -0.1559  0.1720  0.3379
16400W        W31869   6.380  17.908  14.069  0.0215  0.4072  0.0038
16401W        W31870   5.302  15.783  11.666  0.0739  0.3283  0.1491
16402W        W31871  13.912   7.776   4.566 -0.0678  0.3608  0.1686
16403W        W31872  10.256   4.093  14.528 -0.0597  0.0874  0.1192
16404W        W31873  14.177   4.758   2.455  0.3736  0.1414 -0.0388
16405W        W31874  14.993  13.083   2.630  0.0810  0.1996  0.0902
16406W        W31875  17.449   9.438   1.771  0.0056  0.5022 -0.2493
16407W        W31876  15.193  13.669   4.376  0.1970 -0.2115 -0.0635
16408W        W31877   7.745   3.388   1.388 -0.0163 -0.1204 -0.1254
16409W        W31878  15.475   6.774  11.262  0.2085 -0.2130  0.1688
16410W        W31879   1.827  13.298   5.134 -0.0489  0.2642 -0.1053
16411W        W31880  17.293  15.010   4.466 -0.1888 -0.1904  0.2201
16412W        W31881   7.023   2.466   2.925 -0.0817  0.0310  0.0889
16413W        W31882  11.719   6.966   1.889 -0.1657 -0.0465 -0.2240
16414W        W31883  13.046   7.703  14.161  0.1853  0.0848 -0.0143
16415W        W31884   1.711  14.281  12.385 -0.0736  0.0587  0.2683
16416W        W31885   8.928  17.756  11.263 -0.1047  0.3118 -0.0028
16417W        W31886  15.071  12.556  10.938  0.1362  0.1900  0.0023
16418W        W31887  17.506  18.245  15.501  0.1128  0.0032  0.0070
16419W        W31888   3.670  16.623   5.285  0.0139 -0.0620 -0.2030
16420W        W31889   7.872   7.250   5.437  0.1115 -0.1550 -0.0609
16421W        W31890  17.452   9.787   9.510  0.2580 -0.4304 -0.2089
16422W        W31891  17.816  13.792  11.001 -0.0520  0.1477 -0.1276
16423W        W31892   9.858  14.844  13.838 -0.0806 -0.2537 -0.0941
16424W        W31893  18.134   8.887   2.945 -0.0905  0.1461  0.1862
16425W        W31894   5.500  17.400  13.115 -0.0531 -0.0379  0.1819
16426W        W31895   0.029   7.364  11.546 -0.3974 -0.1739 -0.2141
16427W        W31896   4.466  11.143   2.902  0.3550 -0.0088 -0.0105
16428W        W31897   4.918   7.330   2.864 -0.0502 -0.0624 -0.2103
16429W        W31898  11.257   2.921  14.308  0.0694 -0.0853 -0.0869
16430W        W31899  10.894  10.685  10.692 -0.3365  0.2137  0.1833
16431W        W31900   4.426  15.477  12.050 -0.0567  0.5662 -0.2511
16432W        W31901   7.731  14.125   1.512  0.0137 -0.1361  0.0854
16433W        W31902  16.974   2.537   4.184 -0.0764  0.0032 -0.1956
16434W        W31903  18.402   7.529   1.780 -0.1493  0.1447 -0.2367
16435W        W31904  15.790  14.095  14.693 -0.0913  0.3691  0.4615
16436W        W31905   7.194   3.465  15.810  0.0588  0.0292 -0.0851
16437W        W31906  17.724  15.546   3.882 -0.0228 -0.3191  0.1837
16438W        W31907  17.031  13.705  10.472 -0.0679 -0.1562 -0.1279
16439W        W31908   0.344   1.966  11.616 -0.1565  0.0386 -0.0316
16440W        W31909  17.220   0.951  11.251  0.0145  0.2082 -0.2023
16441W        W31910   1.621   7.634   5.351  0.0415 -0.1963  0.0569
16442W        W31911   7.644   9.074  10.886 -0.0409  0.0771  0.1723
16443W        W31912  12.305   2.438   3.885 -0.1697 -0.0199 -0.2624
16444W        W31913   8.652  17.740   5.155 -0.0147  0.3505 -0.2215
16445W        W31914   6.686   3.434   2.040 -0.0536  0.0858 -0.1444
16446W        W31915   6.995  17.292  13.400  0.3514 -0.1518  0.0444
16447W        W31916   0.124   6.497  11.907 -0.2575  0.2979 -0.0571
16448W        W31917   6.191   7.779  14.106  0.0695 -0.0018 -0.0386
16449W        W31918  14.004   7.551  14.262 -0.1009  0.1725  0.1770
16450W        W31919   2.584  17.454   4.917  0.1291 -0.0629 -0.0329
16451W        W31920   5.605   2.702  14.537  0.0564  0.2519  0.0004
16452W        W31921  13.112  14.456   1.543  0.2341 -0.0061  0.1764
16453W        W31922  12.749   5.882   4.539  0.0095  0.1651 -0.0973
16454W        W31923  11.977   8.331  11.791  0.2542  0.1654  0.1004
16455W        W31924   9.355  14.721  13.935  0.3578  0.0391 -0.1381
16456W        W31925   4.878  15.737  13.837 -0.0246 -0.4258  0.4050
16457W        W31926   1.780  14.411   4.388 -0.0297 -0.0193  0.0376
16458W        W31927   9.939  10.078   0.580  0.1585  0.1096  0.0459
16459W        W31928  11.510  11.073   5.553  0.1437 -0.2214 -0.0978
16460W        W31929   3.351  16.247   4.485  0.2110 -0.2733 -0.0284
16461W        W31930  14.022   5.164  14.740 -0.0270  0.0663 -0.1664
16462W        W31931  18.271  15.983   1.320 -0.3034 -0.1256 -0.0312
16463W        W31932   9.022   4.004   3.881  0.0493  0.0236 -0.1251
16464W        W31933   5.974  17.518  12.430 -0.1076  0.2774  0.1232
16465W        W31934   9.211   7.187  14.909  0.1353 -0.0596  0.0884
16466W        W31935  13.809   4.502   3.666  0.0161  0.1190  0.0192
16467W        W31936   3.731  17.174  15.130  0.1045 -0.0286  0.0671
16468W        W31937   0.547  13.029   4.685 -0.1733  0.3802 -0.2575
16469W        W31938  13.560  13.988   0.733 -0.1374 -0.2314  0.0021
16470W        W31939   5.954   8.214  12.899 -0.2427  0.0673 -0.1819
16471W        W31940  11.773  12.899   2.857 -0.1910 -0.1330 -0.0775
16472W        W31941  12.886   4.057   0.498  0.1097  0.0221 -0.3673
16473W        W31942   6.315  11.968  11.868  0.2804  0.0972  0.2156
16474W        W31943   9.340   2.928   6.174  0.2183  0.4199 -0.1131
16475W        W31944   7.262   2.670  14.823 -0.3150 -0.1614 -0.2534
16476W        W31945   2.474   7.047   4.335  0.0534  0.1471  0.2309
16477W        W31946   3.015   7.451  12.447 -0.3469 -0.4444 -0.2044
16478W        W31947   5.946  17.840  14.353  0.0832  0.0297 -0.0755
16479W        W31948   0.489   6.849   5.416 -0.0809 -0.0635  0.0583
16480W        W31949   3.702   6.256  15.706  0.2930 -0.0681  0.0082
16481W        W31950   2.221  10.209  14.159  0.1261  0.2157  0.0593
16482W        W31951   5.082  10.034   4.718 -0.1613 -0.0044 -0.0391
16483W        W31952  17.431   7.795  11.109 -0.1891 -0.1707 -0.0062
16484W        W31953  17.357  17.652  14.359 -0.2924  0.1946  0.2084
16485W        W31954   0.713   2.506   2.220 -0.1218  0.1925  0.3632
16486W        W31955   2.439  13.776   3.782 -0.1707 -0.0592  0.2658
16487W        W31956  12.791   6.843   3.045 -0.1754  0.2554  0.0485
16488W        W31957  16.066   3.988   5.116 -0.1720  0.1535  0.0759
16489W        W31958   8.140  13.552  13.114  0.1432  0.2630  0.0306
16490W        W31959   9.909  14.816  15.414  0.1508 -0.1623 -0.1454
16491W        W31960   9.093   8.454   4.005 -0.0389  0.1459 -0.0334
16492W        W31961  14.651   2.853   3.859 -0.2454 -0.0718  0.0616
16493W        W31962  11.299  15.226   5.358  0.1252  0.0377  0.2490
16494W        W31963  12.182   9.716  15.620 -0.3088 -0.0865 -0.2920
16495W        W31964  11.348   9.596  11.602 -0.1949 -0.1162 -0.1220
16496W        W31965   8.411   2.231   5.044  0.3447 -0.1624  0.3974
16497W        W31966   5.574   5.709   1.974  0.0436 -0.0562  0.0733
16498W        W31967   8.757   6.836   1.938 -0.1715  0.2129 -0.2067
16499W        W31968  11.780   6.717  10.721  0.5186  0.0714  0.0426
16500W        W31969   9.818   6.179  15.641  0.2162 -0.1038 -0.1772
16501W        W31970   4.157  11.668   0.034  0.3417  0.1464  0.0596
16502W        W31971   3.922  13.757   3.059 -0.0181 -0.1749  0.1941
16503W        W31972  17.864  13.741   3.433  0.0400  0.2410 -0.0666
16504W        W31973   4.661   2.962   0.914 -0.1588  0.4738 -0.2561
16505W        W31974  11.438   0.897   5.332 -0.0025  0.2148  0.1814
16506W        W31975  14.678   0.970  14.039  0.0298 -0.0529 -0.1192
16507W        W31976   1.710  13.535   3.116 -0.2381  0.1910 -0.0718
16508W        W31977   7.480   2.560   1.562 -0.0465  0.1152  0.0274
16509W        W31978   5.413  16.813   2.518  0.1016  0.1661 -0.1250
16510W        W31979  16.003  15.181  11.660 -0.0747 -0.0776  0.1607
16511W        W31980   2.630  18.390   0.139  0.1865  0.1249  0.5554
16512W        W31981  12.165   9.275   6.127  0.0331  0.0752 -0.0916
16513W        W31982  16.927  12.526   4.765  0.2004  0.0430 -0.0187
16514W        W31983  14.757   0.386  11.827 -0.2808  0.0618  0.0762
16515W        W31984   4.434   8.122  11.737  0.2325 -0.0778  0.1035
16516W        W31985  17.492   6.894   3.407 -0.0686 -0.1954 -0.0343
16517W        W31986   3.941   3.965   0.687 -0.0416  0.2539 -0.2910
16518W        W31987  10.755  13.657   3.015 -0.0476 -0.1964 -0.0763
16519W        W31988  18.122   5.544   3.472 -0.1675 -0.0957 -0.0303
16520W        W31989  11.308  16.689  12.345 -0.1494  0.0444  0.4259
16521W        W31990   3.967   4.067   3.237 -0.0492  0.3089 -0.2457
16522W        W31991  15.267   9.825  14.440  0.3025 -0.0286  0.0625
16523W        W31992  13.739   9.795   4.858  0.1035  0.3348 -0.0066
16524W        W31993   3.812   6.895  14.548 -0.1348 -0.2093  0.0036
16525W        W31994   7.126   6.831  12.892 -0.4354 -0.2077 -0.0441
16526W        W31995   4.233  10.683   1.461  0.0482 -0.1238 -0.2665
16527W        W31996   5.671  15.174   6.214 -0.0093  0.2329 -0.2336
16528W        W31997   7.056   3.233   5.086 -0.0247 -0.1211 -0.1818
16529W        W31998  16.645   4.647  13.393 -0.1434 -0.2264 -0.1739
16530W        W31999  17.121  14.651   1.084 -0.0627  0.2300 -0.4470
16531W        W32000   8.681  12.709  14.063  0.2290 -0.1352 -0.0772
16532W        W32001  10.637  17.827  12.165  0.3544  0.2355  0.2583
16533W        W32002  11.039   4.319   4.946 -0.0941 -0.1301 -0.1440
16534W        W32003  15.217   9.840  13.937 -0.1301 -0.0939  0.2396
16535W        W32004   2.980   5.287   4.247 -0.0313  0.4027  0.1663
16536W        W32005   4.899  13.194   3.577  0.3547 -0.0069 -0.3593
16537W        W32006   8.826   1.825   2.543 -0.0498  0.1962 -0.1821
16538W        W32007  17.154  10.412   1.194  0.1223  0.3242 -0.5910
16539W        W32008   9.509   6.272  14.194 -0.3783  0.3220 -0.3640
16540W        W32009  13.897   8.602   1.906  0.0296 -0.1224  0.0307
16541W        W32010   0.397   5.320   4.574  0.2212 -0.1904 -0.0446
16542W        W32011  10.135  18.448   4.039  0.0185  0.1184  0.0626
16543W        W32012   3.336  11.653  10.900 -0.1853  0.0460  0.1516
16544W        W32013  10.158  15.640  14.022  0.0114 -0.1417  0.0923
16545W        W32014  17.639   1.644   1.413 -0.0510  0.0318  0.0923
16546W        W32015   0.119   7.981  10.881  0.2411 -0.0353 -0.1235
16547W        W32016  13.645  10.997   3.040  0.4857 -0.0267  0.0413
16548W        W32017   3.621   5.648   0.582 -0.0299 -0.1329 -0.0033
16549W        W32018   1.481   7.622   1.184 -0.0394 -0.0590  0.2351
16550W        W32019   1.764   3.072   1.918 -0.1734  0.3539  0.1850
16551W        W32020  11.580   0.291   3.932  0.0289  0.4412 -0.1629
16552W        W32021  16.137  17.706   2.676 -0.0490 -0.0499 -0.1168
16553W        W32022   7.920  14.016  14.866  0.2931 -0.1907 -0.1873
16554W        W32023  14.644   0.787  11.578  0.0542 -0.2503  0.0227
16555W        W32024   1.389  10.252  12.132 -0.0248  0.0540  0.1357
16556W        W32025  14.925   2.194   3.280  0.3124  0.2087  0.0748
16557W        W32026  15.096  12.545   4.791  0.2984 -0.0843  0.0547
16558W        W32027   2.731   8.915   5.426 -0.0846  0.1915  0.2753
16559W        W32028  14.561  13.511  13.418  0.1935  0.1080 -0.0029
16560W        W32029  13.676  17.902  12.344 -0.0118  0.0216 -0.0366
16561W        W32030  15.298  16.291  13.432  0.1948 -0.0506 -0.1042
16562W        W32031   9.787   2.398  12.798 -0.3406 -0.0526 -0.2409
16563W        W32032   0.249   9.206   4.604  0.1656  0.0678 -0.3547
16564W        W32033  12.416   1.330  10.257 -0.4159 -0.0399 -0.1180
16565W        W32034   2.267  14.594  11.393 -0.4116  0.0918  0.1906
16566W        W32035  14.633   7.456  15.513 -0.1810 -0.0583  0.2421
16567W        W32036  15.847  11.197   4.974  0.2833  0.0954  0.0373
16568W        W32037   7.419  10.982  14.309  0.1783  0.4083 -0.1403
16569W        W32038  11.663  12.399   0.573 -0.2058 -0.3407  0.0589
16570W        W32039  15.091   7.014  10.834  0.0034  0.2381  0.3026
16571W        W32040  14.294  10.187   3.721  0.1779  0.0976 -0.2502
16572W        W32041   2.462   2.131   3.572  0.2257 -0.4026 -0.0056
16573W        W32042  16.073  15.695  13.226  0.0169 -0.2041 -0.2320
16574W        W32043  16.915  12.454  15.898 -0.2187 -0.0136 -0.0967
16575W        W32044  16.370   5.002  13.702  0.1480  0.0466  0.2538
16576W        W32045  17.686  14.112   3.163  0.0750  0.0048 -0.1115
16577W        W32046   6.258   6.272   5.621  0.0595 -0.3073 -0.4987
16578W        W32047   5.417   6.029   0.199 -0.0690  0.1833 -0.0998
16579W        W32048   6.937  12.699   4.219 -0.1240 -0.0385 -0.0845
16580W        W32049  10.536  12.259  13.474 -0.2383 -0.0108  0.0634
16581W        W32050  11.713   3.757   0.993 -0.0844  0.1217 -0.1586
16582W        W32051  16.053  12.190  15.814 -0.1407 -0.1156 -0.4113
16583W        W32052   6.688   8.816  15.082  0.0499 -0.1452 -0.2950
16584W        W32053   4.359   1.525  11.071 -0.4726 -0.0491 -0.1091
16585W        W32054  10.304   0.209  11.370 -0.0338  0.1153  0.0494
16586W        W32055   6.906  14.345  11.458  0.0953 -0.0770  0.0667
16587W        W32056   7.524   7.192  11.925 -0.0321  0.0120  0.0714
16588W        W32057  15.859   4.449   1.376 -0.0580  0.1426 -0.3371
16589W        W32058   5.960   6.404   3.198 -0.0521 -0.1131 -0.1987
16590W        W32059  15.291   2.935   2.224  0.1916 -0.2799  0.1059
16591W        W32060  18.259  12.387   2.819 -0.0516 -0.0021 -0.2606
16592W        W32061  14.472  15.429  12.038 -0.3253 -0.1798  0.0423
16593W        W32062  17.110   9.688   4.055  0.1357 -0.1367  0.0825
16594W        W32063   2.918  16.988   1.233  0.3724  0.0179  0.0061
16595W        W32064  10.411   9.814   2.403 -0.1952 -0.2809  0.3621
16596W        W32065   1.012  14.295   2.920 -0.0001 -0.0607  0.3028
16597W        W32066  10.152   4.100  13.861 -0.1242 -0.0073  0.0980
16598W        W32067   6.880  17.767   1.965  0.1625 -0.0214  0.0939
16599W        W32068  14.784   1.267  11.592 -0.2669  0.1921  0.0593
16600W        W32069   9.793   5.190   2.113 -0.0032 -0.1926 -0.0694
16601W        W32070   3.241  10.977  15.586  0.0022  0.1937 -0.1335
16602W        W32071  17.633   1.701  13.525 -0.0813 -0.1957 -0.1246
16603W        W32072   3.963   5.917  14.837 -0.0400 -0.1617 -0.1461
16604W        W32073   0.537  13.536   4.979 -0.0334  0.1169  0.3905
16605W        W32074   2.601   0.279  12.014 -0.2159 -0.0349  0.0668
16606W        W32075  17.850   8.333   4.237 -0.0445 -0.0514  0.2837
16607W        W32076  14.076   2.423  12.896 -0.0673 -0.0357  0.2810
16608W        W32077   9.875   1.136   1.287 -0.2125  0.2711  0.0889
16609W        W32078   9.112  16.119   2.802 -0.0647  0.0559 -0.1905
16610W        W32079   6.325  18.197  14.501  0.1953 -0.0119  0.0272
16611W        W32080  16.265  17.737   1.920  0.2408 -0.0046 -0.0564
16612W        W32081   4.309   1.219   3.848  0.3106 -0.3882  0.0472
16613W        W32082   1.341  17.040  14.633  0.3372 -0.2430  0.2872
16614W        W32083   0.991   2.406   0.890  0.3133  0.1872  0.0303
16615W        W32084  10.003   5.309   5.854 -0.0341 -0.0968 -0.4619
16616W        W32085  13.808   3.804   2.683 -0.3026  0.0571  0.0342
16617W        W32086   0.497  16.498  15.318  0.0154  0.0301 -0.2455
16618W        W32087  16.107  14.278  11.496 -0.0800  0.1138  0.1301
16619W        W32088   5.827  12.529   2.303 -0.1280 -0.0337 -0.2461
16620W        W32089   1.604  15.038  14.786  0.0992 -0.1105  0.0963
16621W        W32090  15.579  11.491   2.115 -0.0815 -0.1498 -0.0702
16622W        W32091   1.159   5.257  13.438  0.2588  0.0945  0.0536
16623W        W32092   7.448   4.080  14.937 -0.1560 -0.4232 -0.2495
16624W        W32093   4.845  14.073   2.014 -0.3042 -0.1906  0.0106
16625W        W32094  14.191  12.131  15.912  0.1605  0.0177 -0.0004
16626W        W32095   2.969   5.956  15.035  0.1139  0.0419 -0.1337
16627W        W32096   7.989  18.104   3.966 -0.0673 -0.1776  0.1610
16628W        W32097  14.257  18.068  13.007  0.2409  0.1817  0.0640
16629W        W32098  11.788  15.239   5.304 -0.2566 -0.0715  0.0707
16630W        W32099  17.985   8.085  14.143  0.0614  0.0595 -0.0827
16631W        W32100  10.633  11.628  14.182 -0.2843  0.0929  0.1202
16632W        W32101   4.768  12.204  10.418 -0.3540  0.0675  0.1617
16633W        W32102  16.383  14.107   4.382  0.1020  0.2757 -0.3045
16634W        W32103  15.794  13.322  14.473  0.1132 -0.2420  0.1402
16635W        W32104  10.301   5.708  14.282 -0.0219  0.0915 -0.3375
16636W        W32105   9.114  11.557  15.354 -0.0451  0.2511 -0.1493
16637W        W32106   4.489   9.307  11.131  0.1087 -0.3005  0.2215
16638W        W32107   9.630  14.338   5.450 -0.0887  0.2474  0.1306
16639W        W32108   3.898   9.677  13.791 -0.3922  0.2029  0.0291
16640W        W32109  16.207   3.579  12.004  0.1928  0.0500  0.0007
16641W        W32110   2.190  16.538  15.819  0.0887  0.2476 -0.1143
16642W        W32111  14.404   3.074  11.345  0.1662  0.0366  0.1366
16643W        W32112  11.611  14.818   5.509  0.2885  0.5189 -0.4201
16644W        W32113  17.807  11.249   1.985 -0.2917  0.2574  0.0322
16645W        W32114   9.980   8.858  11.794 -0.1880  0.2041 -0.2278
16646W        W32115  17.915   7.932  12.730 -0.0804  0.1033 -0.1063
16647W        W32116   8.771  17.886   1.790  0.0501 -0.1800 -0.1503
16648W        W32117   3.087   1.373   0.528 -0.3364 -0.1914  0.0048
16649W        W32118  16.906  15.114  12.051 -0.5449 -0.0430 -0.1246
16650W        W32119   1.641   4.484   2.385 -0.2494 -0.1798  0.0369
16651W        W32120   4.548   3.145  12.119  0.1458  0.0299 -0.0616
16652W        W32121  15.087   1.436  11.150  0.3041  0.0077 -0.0087
16653W        W32122   2.941   6.135   5.941 -0.0624 -0.2074  0.0410
16654W        W32123   0.472  14.631   4.358 -0.1578  0.1941 -0.3372
16655W        W32124   5.175   1.181   3.410  0.2280  0.0934 -0.0881
16656W        W32125   3.929   7.306  15.828 -0.3351 -0.1995 -0.1157
16657W        W32126   8.618   6.483   4.015 -0.0946 -0.0141 -0.0921
16658W        W32127   4.058   0.937  15.587 -0.1783 -0.2935 -0.2757
16659W        W32128   5.328   5.286  12.719 -0.0654  0.2757 -0.4403
16660W        W32129   1.797   0.791  12.048  0.0446  0.0222  0.0803
16661W        W32130  15.918  11.922   3.422  0.1709 -0.0661  0.2731
16662W        W32131  10.265   4.852  13.161 -0.1549  0.2551  0.0920
16663W        W32132   8.818  13.705  12.348  0.2347  0.0689  0.2499
16664W        W32133   1.360   8.350   2.022  0.3246 -0.1216  0.0789
16665W        W32134   8.059   1.504  13.892  0.0727  0.1574 -0.0189
16666W        W32135   2.700   7.532   4.550  0.1044 -0.0927  0.1591
16667W        W32136   4.369  10.712  13.115  0.0144  0.3336 -0.2832
16668W        W32137  16.960   0.875   1.770  0.1821  0.0730 -0.0244
16669W        W32138   3.674   1.065  11.998  0.5305  0.2653  0.2408
16670W        W32139  16.879   9.839  15.835  0.0939  0.0555 -0.3167
16671W        W32140   2.349   3.509   5.293  0.0413  0.1800  0.1750
16672W        W32141  13.215  17.618   2.240  0.1694 -0.0874 -0.0284
16673W        W32142   5.301   6.979  11.483 -0.0037 -0.0775  0.1596
16674W        W32143   1.407   9.077   2.199  0.0894 -0.3092  0.1648
16675W        W32144   3.951  10.689  13.400  0.2818 -0.0690  0.1613
16676W        W32145   2.868   8.884  13.530 -0.3071  0.1328  0.0866
16677W        W32146  16.384   2.887  10.342 -0.1610  0.1141 -0.0492
16678W        W32147   6.073   5.293  10.222  0.4085 -0.1804  0.0238
16679W        W32148   8.393  14.364   3.458 -0.0278  0.2392 -0.0158
16680W        W32149   1.023  17.900   0.490  0.0497 -0.2313  0.1298
16681W        W32150  15.996   7.387   4.453 -0.0187 -0.0792 -0.0350
16682W        W32151   6.030   7.495   5.352 -0.1111  0.0252  0.1197
16683W        W32152   9.414   7.442  12.456  0.1356 -0.2201  0.0029
16684W        W32153   4.344  16.350  15.134 -0.3598  0.0387 -0.0171
16685W        W32154  11.141   8.548  13.751 -0.0264  0.1100  0.1341
16686W        W32155  13.267  17.556  13.172  0.5011  0.1515  0.2929
16687W        W32156  18.299  13.902   2.321  0.0078  0.0033 -0.0584
16688W        W32157   9.036   1.148  12.698  0.4895 -0.0034 -0.0805
16689W        W32158  10.346  17.714   0.337 -0.0597  0.1030  0.0827
16690W        W32159   0.525  18.460   2.990  0.1031 -0.1902 -0.1697
16691W        W32160   5.149   6.375  11.341 -0.0003 -0.2022 -0.1115
16692W        W32161  11.685   6.705  10.175  0.2030  0.3026  0.4214
16693W        W32162   9.951  10.558   4.786  0.0844  0.5061  0.0489
16694W        W32163  11.568  14.138  15.849 -0.1613  0.1809 -0.1008
16695W        W32164   7.759   0.695  11.398 -0.0593  0.1947  0.1527
16696W        W32165  15.231  16.650  14.555  0.2982  0.0488 -0.1540
16697W        W32166  13.883   5.449  13.440  0.2087  0.2950  0.0547
16698W        W32167   2.061   9.342   4.806 -0.1194  0.0935 -0.3155
16699W        W32168   0.199  12.150   0.848  0.0284  0.1594 -0.0231
16700W        W32169   8.374  13.380  10.985  0.2160  0.0215 -0.0915
16701W        W32170   4.878  18.190   3.372 -0.2742  0.1714  0.3896
16702W        W32171  15.291  12.505   5.656  0.0894 -0.0009 -0.0149
16703W        W32172  10.157  14.505  15.855  0.0327 -0.1586 -0.1619
16704W        W32173   0.585  12.261   4.789 -0.0978  0.1925 -0.1688
16705W        W32174   5.844   8.279   0.999  0.3029 -0.0896 -0.2027
16706W        W32175  16.170   5.949   0.075  0.0911  0.0246  0.0110
16707W        W32176  11.329  17.494   2.560 -0.0400  0.0973  0.0161
16708W        W32177   7.431  11.460  13.394  0.1734 -0.2529  0.0405
16709W        W32178  13.320   4.176  10.707  0.1110  0.1289  0.2208
16710W        W32179   8.635   2.597  14.088  0.4295 -0.0315  0.1446
16711W        W32180   5.440   0.718  15.501  0.0541 -0.0121 -0.0068
16712W        W32181  17.545   1.034   4.997 -0.1977 -0.0405  0.2726
16713W        W32182  13.054  11.472  12.453 -0.1804 -0.0037 -0.1029
16714W        W32183  16.617  14.362   1.049  0.0892 -0.0197  0.0787
16715W        W32184   1.790   3.801   1.011  0.2230 -0.0600  0.0505
16716W        W32185   8.450   9.793   5.470  0.2128 -0.2927 -0.1373
16717W        W32186  16.271  15.432   5.805 -0.2796 -0.0759 -0.2842
16718W        W32187   8.585   0.606   5.585  0.0406 -0.2319 -0.0391
16719W        W32188  12.785  10.113   0.210  0.0806 -0.0119 -0.0783
16720W        W32189   2.767  12.963  11.698  0.3960 -0.0183  0.3267
16721W        W32190  11.989  16.280  10.534 -0.0327 -0.3280  0.2092
16722W        W32191   3.332   0.490  12.728 -0.1135 -0.1060  0.1131
16723W        W32192   3.901   5.704  10.856 -0.1325 -0.3478 -0.3260
16724W        W32193   3.014   0.371   2.407 -0.1763  0.1343  0.2688
16725W        W32194  13.271   7.068   5.357  0.1335 -0.0349  0.1374
16726W        W32195   5.608  15.641   3.252  0.0249  0.0751  0.1421
16727W        W32196  16.084   2.288  11.651 -0.3109  0.3009  0.1192
16728W        W32197   9.109   5.092   5.473  0.1753  0.0817 -0.0828
16729W        W32198  14.731   2.267   0.993 -0.1150  0.0947 -0.5012
16730W        W32199  14.451  17.955  15.790  0.1025  0.2712 -0.2561
16731W        W32200  13.035   5.502  12.519 -0.3701  0.1258  0.2084
16732W        W32201  15.913  10.025   4.357  0.1111 -0.1463 -0.0307
16733W        W32202   8.950  11.549   3.629  0.0163 -0.3032  0.0305
16734W        W32203   6.504   4.738   1.188 -0.0123  0.2042 -0.0679
16735W        W32204  12.088   1.503   5.928  0.1325  0.0227 -0.0144
16736W        W32205   9.841  15.725   0.933 -0.0442 -0.1082 -0.0268
16737W        W32206   3.034  14.376   0.174 -0.0638 -0.0191 -0.1715
16738W        W32207   1.725  10.334  13.993 -0.3864  0.1567 -0.0955
16739W        W32208  15.275  13.264   1.888 -0.0584 -0.0067 -0.2035
16740W        W32209   2.226   3.595   1.195  0.0036  0.4551 -0.1221
16741W        W32210  17.345  14.121   0.338  0.1055 -0.1074  0.0807
16742W        W32211   0.340   6.635   2.881 -0.1206  0.0298  0.1503
16743W        W32212   1.468  17.653   1.987  0.0878 -0.1270  0.0080
16744W        W32213  12.151  17.300   1.964 -0.1454  0.1282  0.4486
16745W        W32214   7.716   3.572   3.363 -0.0892 -0.3210 -0.0942
16746W        W32215  10.795  15.176   5.338  0.0852  0.0238 -0.1477
16747W        W32216   8.411   2.035   1.489 -0.1069 -0.2601 -0.0141
16748W        W32217   5.280  13.294  12.147 -0.0719  0.1951 -0.3762
16749W        W32218  15.096  15.545  10.882 -0.1206  0.0785 -0.1449
16750W        W32219   6.596  11.482   0.331 -0.1176  0.0578 -0.1338
16751W        W32220  16.297   3.370  15.091 -0.0424 -0.0344  0.1889
16752W        W32221   0.588   3.940   0.840 -0.0186 -0.0158  0.0807
16753W        W32222   4.500   2.860   4.371 -0.3021 -0.0729  0.1289
16754W        W32223  15.571   7.458   1.013  0.0813  0.5895  0.0283
16755W        W32224   1.847   5.909  11.188 -0.0183  0.0398 -0.2759
16756W        W32225   2.767   5.881   0.195 -0.2316  0.1171 -0.0960
16757W        W32226   4.026   4.729   4.869 -0.1106 -0.2328  0.0121
16758W        W32227   0.720   1.214   6.596 -0.1337  0.0107  0.2107
16759W        W32228   0.313   2.840   2.266  0.1791  0.0662 -0.3594
16760W        W32229  18.109  11.420   2.901 -0.0343  0.1823  0.0817
16761W        W32230  17.745   2.264  12.344 -0.2702  0.3554  0.0830
16762W        W32231  11.844  13.865  11.828 -0.0711 -0.3652 -0.0292
16763W        W32232  12.623   7.494   0.866  0.2078 -0.2462  0.1580
16764W        W32233  15.090  13.702   0.346 -0.1697 -0.1289 -0.2820
16765W        W32234   5.078   7.231   4.061 -0.0878 -0.2266 -0.1950
16766W        W32235   6.267  11.429   3.571 -0.3248  0.1164 -0.2405
16767W        W32236  10.546  15.731   0.263  0.2277  0.1414 -0.2087
16768W        W32237   3.973   5.749  13.564  0.1459 -0.1592  0.1200
16769W        W32238  17.002   1.144   4.275 -0.0348 -0.1893  0.0257
16770W        W32239  11.116  18.072   6.098 -0.0445 -0.1738  0.0480
16771W        W32240   6.734  10.508   2.430  0.3420 -0.1900 -0.1800
16772W        W32241  10.100  14.901  12.380  0.0121  0.1079  0.1652
16773W        W32242   1.938   9.824   4.987 -0.0461  0.1279 -0.0297
16774W        W32243   7.689   3.103  11.379  0.0539  0.1516  0.1290
16775W        W32244  17.065   0.034  11.582  0.0472  0.1410  0.1752
16776W        W32245   9.729  14.505   4.692  0.0312  0.0101 -0.1645
16777W        W32246   2.877   1.714   3.055  0.0300 -0.0807 -0.3235
16778W        W32247   8.403   9.817  12.833  0.0917  0.0521 -0.2904
16779W        W32248  14.191  10.502  10.608 -0.0790 -0.4126 -0.1617
16780W        W32249   0.845  10.218  12.094 -0.0104  0.3474  0.2101
16781W        W32250  18.134   1.427   4.274  0.1092  0.2434  0.3072
16782W        W32251   9.699  12.299   2.992  0.2807 -0.0870  0.2643
16783W        W32252  15.662   8.835  13.572 -0.0684  0.1959 -0.1277
16784W        W32253  16.299   6.736   0.717 -0.0132  0.0018 -0.1846
16785W        W32254  16.296  10.151  12.063  0.0177  0.0763 -0.0319
16786W        W32255   9.969   2.654   5.021  0.3313 -0.2601 -0.1807
16787W        W32256  15.772   4.002   0.412 -0.3100  0.0213 -0.1245
16788W        W32257  18.167   7.486   0.970  0.0218 -0.1550 -0.2433
16789W        W32258  18.366   0.188   4.012  0.0607  0.3232 -0.3568
16790W        W32259   8.719   3.629   4.168 -0.2182  0.0423 -0.1361
16791W        W32260  10.240  10.858   5.165 -0.0531 -0.0321  0.1277
16792W        W32261  10.283  14.039   3.100  0.1355 -0.0212 -0.3230
16793W        W32262  10.263  10.375  14.590 -0.0833  0.1040 -0.2419
16794W        W32263   9.298  14.239  15.905 -0.0356  0.1553  0.1292
16795W        W32264   5.489   5.174   3.843 -0.0392 -0.1054  0.2887
16796W        W32265  15.907   0.889  11.203  0.0648  0.2921  0.0612
16797W        W32266   4.419   8.719   4.419  0.0651  0.0613 -0.1369
16798W        W32267  12.471  17.923  12.259 -0.0708 -0.0406  0.0220
16799W        W32268  10.927  17.833   4.281  0.1582 -0.0475  0.0750
16800W        W32269   1.935   0.012   0.686 -0.1033  0.1128  0.1568
16801W        W32270   5.473   0.633   4.264  0.0998  0.1064 -0.0990
16802W        W32271   9.971  17.369   3.837 -0.2167 -0.2748 -0.0322
16803W        W32272  18.334  15.514   0.858  0.1637  0.1466 -0.3881
16804W        W32273   0.814  10.073  13.664 -0.0425 -0.3337  0.1593
16805W        W32274   1.101  14.563   1.264  0.0578  0.0243  0.0493
16806W        W32275   5.343   0.225  14.701 -0.2064  0.1824  0.1957
16807W        W32276  17.861   5.969   2.752  0.0585 -0.0273 -0.3506
16808W        W32277   9.751  17.983  12.315 -0.4732  0.1001 -0.2457
16809W        W32278   1.077   0.979  13.041 -0.0301 -0.1244  0.1508
16810W        W32279   8.460   2.202   1.035 -0.3335 -0.1241  0.2888
16811W        W32280   9.919   1.928   1.768  0.2181  0.1241 -0.1443
16812W        W32281  14.421  15.235  13.244 -0.1214  0.0803  0.1047
16813W        W32282   2.706   0.414  14.443 -0.2776  0.1786  0.0172
16814W        W32283   8.790   2.255  11.337 -0.0041 -0.1175 -0.1019
16815W        W32284   2.161   3.548  14.225  0.3307 -0.2015  0.2088
16816W        W32285  17.578  12.862  15.224  0.0302 -0.2222 -0.0122
16817W        W32286   9.797   6.101   5.233 -0.0425 -0.3715 -0.1055
16818W        W32287  15.686   8.395  15.764 -0.4430 -0.2779  0.0271
16819W        W32288   9.456   8.982  14.983  0.0148  0.2015  0.0653
16820W        W32289   0.805   8.984   3.905  0.1222  0.1426 -0.2332
16821W        W32290  13.599  13.811   2.498 -0.1943  0.0694  0.2197
16822W        W32291   1.521  11.243  13.816 -0.0520  0.4270  0.1253
16823W        W32292  13.439   2.565  11.350 -0.0388 -0.2185 -0.2083
16824W        W32293   2.507   1.260   1.204 -0.0237 -0.2315 -0.3179
16825W        W32294   9.478   5.806  12.899  0.0438  0.1318  0.1433
16826W        W32295  17.636  14.033  14.196  0.0294 -0.3089 -0.0396
16827W        W32296   7.158  15.712   1.947  0.1276  0.0905  0.0629
16828W        W32297  16.071  13.620   1.959  0.1451 -0.1221  0.1783
16829W        W32298   6.846   7.541   4.035  0.0835  0.0071  0.0567
16830W        W32299  18.464   6.203   5.870 -0.1394 -0.0976 -0.0835
16831W        W32300  10.913   4.108   0.555  0.1589 -0.0026  0.0589
16832W        W32301   9.216   1.759  15.228  0.1650 -0.0864  0.0348
16833W        W32302   0.235   4.528  15.410  0.1172  0.2292 -0.0054
16834W        W32303   9.037  18.083   3.258  0.0862  0.2848 -0.2243
16835W        W32304   1.625  13.638   1.173  0.1747 -0.1509  0.0843
16836W        W32305  16.549  10.454  11.646 -0.2061 -0.2691 -0.4915
16837W        W32306  16.218   7.712  14.814  0.2046 -0.0491 -0.3040
16838W        W32307  17.098   2.388   3.210  0.2324  0.1309  0.1915
16839W        W32308   2.772  14.458  14.026 -0.4959  0.0246 -0.0234
16840W        W32309   4.007   6.597   4.972  0.0467 -0.0100  0.0382
16841W        W32310   3.923   8.927   4.380  0.2543  0.1214 -0.0125
16842W        W32311   5.249   3.271   4.073  0.1127 -0.0538 -0.0375
16843W        W32312  15.373   1.069   3.258  0.0389  0.1373 -0.1509
16844W        W32313   8.199   9.516   1.037  0.1094  0.1531  0.1878
16845W        W32314  18.428   6.304  13.673  0.0780  0.1634 -0.3828
16846W        W32315  17.318  12.094  13.739  0.1170 -0.0717 -0.0764
16847W        W32316   3.688   3.309  15.808  0.0082  0.0724 -0.3021
16848W        W32317   4.268   2.662  10.044 -0.0749 -0.0183  0.2056
16849W        W32318  14.790  12.568   3.495 -0.1406 -0.0209  0.0534
16850W        W32319  10.987   0.919  12.934  0.1549 -0.1297  0.0789
16851W        W32320  15.343   1.502   0.961 -0.2476 -0.1451 -0.1530
16852W        W32321   9.833   4.012  13.237  0.1487  0.0258  0.1612
16853W        W32322  14.684  10.806   1.417  0.3869  0.1947 -0.1817
16854W        W32323   0.116   3.775   0.790 -0.0366 -0.2288 -0.2433
16855W        W32324   6.911  13.269   4.913  0.0025  0.2119  0.1055
16856W        W32325  17.456   8.589  10.531 -0.2065 -0.0659  0.2085
16857W        W32326   5.654  15.807   0.648  0.1819 -0.1157 -0.0572
16858W        W32327   2.684  18.334  15.347  0.2981  0.0580 -0.3321
16859W        W32328  16.898   1.745   3.652 -0.3704 -0.1943 -0.1242
16860W        W32329  13.047  13.043  12.196 -0.0891  0.1444 -0.0540
16861W        W32330   1.224  18.247   1.885 -0.0935  0.1681 -0.3922
16862W        W32331  10.674   8.296   2.291 -0.1509 -0.2074  0.2432
16863W        W32332  10.087  10.432  15.475  0.0793 -0.0371  0.0577
16864W        W32333  12.918  12.352   3.242  0.2077 -0.0363 -0.1713
16865W        W32334  10.799  12.043   0.361 -0.0706  0.1590 -0.2481
16866W        W32335   2.469  14.767   0.380  0.1894 -0.2650  0.0315
16867W        W32336   7.682   6.631  11.792 -0.1875  0.2100 -0.0229
16868W        W32337   4.107   4.941   3.434 -0.2865 -0.0204 -0.0617
16869W        W32338  14.908   2.018   3.761 -0.0076  0.0569 -0.0281
16870W        W32339   9.103  16.871  10.934 -0.0422  0.1910 -0.0440
16871W        W32340   6.313  16.040   2.084  0.0711 -0.1709  0.1071
16872W        W32341  10.185  12.403  10.931  0.1669  0.4363  0.2079
16873W        W32342   0.238  18.189   5.058 -0.2899  0.3744  0.1413
16874W        W32343  14.484  10.171  11.966  0.2359  0.1527  0.0213
16875W        W32344   4.076   9.611   3.215  0.2519  0.0551  0.0637
16876W        W32345   3.212   7.983   1.046 -0.3104  0.1391 -0.0728
16877W        W32346  18.465   2.339   4.403 -0.2191 -0.1201 -0.0058
16878W        W32347  12.084   0.008  12.728  0.3075  0.1862 -0.4355
16879W        W32348  15.458  17.058  15.877  0.0913  0.0915  0.2129
16880W        W32349  15.122   2.011   2.347  0.1708 -0.2604 -0.0530
16881W        W32350  16.634  11.312  10.160  0.2480  0.2250 -0.1734
16882W        W32351  13.934   8.631   4.853 -0.2498 -0.2297  0.1219
16883W        W32352  17.456   3.872  15.456 -0.1744 -0.1149 -0.1096
16884W        W32353  18.219   0.458   1.255 -0.0257 -0.4258 -0.4063
16885W        W32354  14.487   9.568  12.327 -0.0848 -0.0764  0.1376
16886W        W32355   3.870   5.486  13.118  0.1216  0.0796 -0.1409
16887W        W32356   5.964  13.457   1.618  0.1154 -0.1045  0.1564
16888W        W32357   1.764  18.001  10.462  0.0129  0.2844  0.0022
16889W        W32358   6.068  14.711   5.578 -0.0085 -0.1219 -0.0780
16890W        W32359  14.565  15.200  15.041 -0.0583 -0.3603 -0.0018
16891W        W32360   9.595  13.084  14.361  0.2264  0.0250  0.0706
16892W        W32361   6.417   8.511   0.691 -0.0613 -0.0427 -0.1477
16893W        W32362   7.653   9.912   0.400  0.0655 -0.1398  0.2043
16894W        W32363  10.333  11.094   0.281  0.2651 -0.1017 -0.1608
16895W        W32364  17.963  13.691  13.331  0.1237 -0.0821 -0.1508
16896W        W32365  15.856  11.537  12.333 -0.0109  0.4349  0.1303
16897W        W32366   6.100   9.553   1.510  0.3901 -0.0628 -0.0854
16898W        W32367   9.026   5.718  10.505  0.0335 -0.1692  0.0561
16899W        W32368   4.891   4.148   4.644 -0.3262  0.0340 -0.1528
16900W        W32369  12.979   8.377   2.028 -0.2296  0.1393  0.0041
16901W        W32370  12.362   1.839  15.072  0.0267 -0.1809  0.1823
16902W        W32371   7.060   4.868  15.279  0.2442 -0.1740  0.1465
16903W        W32372   5.407  12.863  15.214 -0.0592 -0.0926  0.1078
16904W        W32373   3.147  17.894  15.331  0.1822 -0.1474 -0.1611
16905W        W32374   9.494   5.346  13.964  0.0488 -0.0248  0.0540
16906W        W32375   1.011   5.077  15.844 -0.1968 -0.0143  0.1742
16907W        W32376   3.279   8.174  12.810 -0.3156 -0.1428  0.0923
16908W        W32377   4.765  14.142   5.742  0.1968 -0.0910 -0.2532
16909W        W32378   1.077   2.903   0.586  0.1389 -0.0451  0.1409
16910W        W32379  11.548  16.726   0.119 -0.0634 -0.1703 -0.1559
16911W        W32380  14.731  10.403   2.518 -0.1809 -0.1544 -0.1544
16912W        W32381   1.437  13.191  15.286 -0.0907 -0.1126 -0.0567
16913W        W32382   4.762   4.559  11.776 -0.1488 -0.1653  0.0712
16914W        W32383   3.702  14.277   4.451  0.1280 -0.1490  0.0414
16915W        W32384  14.667  13.717   3.359  0.0737 -0.0274  0.4055
16916W        W32385   4.029  13.116  15.861 -0.0394  0.1869 -0.1031
16917W        W32386  10.020   8.265  12.503  0.0331 -0.3749 -0.0126
16918W        W32387   7.526   7.925  15.593  0.0261  0.3229  0.4214
16919W        W32388   9.645   1.927   2.239  0.1011 -0.4218  0.0027
16920W        W32389  10.543   4.939   3.554 -0.0545 -0.0038  0.0779
16921W        W32390  11.163   9.104  12.677 -0.2857  0.2651 -0.0898
16922W        W32391  10.420  18.298   0.226  0.1903  0.2065  0.1671
16923W        W32392   5.891  12.276   3.447  0.0254  0.0650 -0.0287
16924W        W32393   1.357  15.951   1.146 -0.0583  0.2729  0.0612
16925W        W32394   8.472   0.774   0.844  0.3051 -0.3089  0.0580
16926W        W32395   3.057   0.513  10.700 -0.2803  0.0725 -0.1953
16927W        W32396   6.628  16.828   2.700  0.0414 -0.0491  0.3076
16928W        W32397   6.595  14.820  15.834 -0.1854 -0.1652  0.0786
16929W        W32398   7.908   3.710  11.835 -0.2695  0.0205 -0.5134
16930W        W32399  12.924   2.924   1.312 -0.1923 -0.2595 -0.0860
16931W        W32400   1.471  11.981  14.397  0.1575  0.1622 -0.1877
16932W        W32401   3.906   3.284  11.373  0.0824 -0.0510 -0.1785
16933W        W32402   8.546  14.253   5.861 -0.0734  0.0839  0.2962
16934W        W32403  13.516  15.002  15.295  0.1406 -0.0187  0.3192
16935W        W32404   8.245  12.437   4.424 -0.0891  0.1976  0.0849
16936W        W32405   3.764   7.115   0.733  0.0330  0.3139 -0.1028
16937W        W32406   7.317  10.087  13.306  0.2057 -0.0766 -0.1779
16938W        W32407  14.905  12.406   1.525  0.2147 -0.1971 -0.0969
16939W        W32408   5.193   5.767   5.020 -0.1421 -0.0607 -0.1822
16940W        W32409  11.724   1.669  14.089  0.0851 -0.2069 -0.1302
16941W        W32410   4.626  12.420  11.793 -0.1819 -0.0603  0.2640
16942W        W32411  17.150   9.956   4.930  0.0520  0.0022  0.0599
16943W        W32412  13.732   9.558  12.844 -0.0397 -0.1592 -0.1512
16944W        W32413  15.373  13.810   1.347  0.2968  0.1832 -0.3105
16945W        W32414  15.982  10.378   3.946  0.0463  0.1352  0.0378
16946W        W32415   9.472   1.228  15.074  0.1394 -0.2892 -0.0382
16947W        W32416  16.785   2.504   3.636  0.0985  0.2115 -0.1954
16948W        W32417  15.465   7.764   1.548  0.1602 -0.0496  0.0976
16949W        W32418  10.884   2.882   2.880  0.1558 -0.1515  0.1268
16950W        W32419  17.357  14.759  12.907 -0.1300 -0.3334 -0.1411
16951W        W32420   5.807   3.777  13.825  0.1029  0.4586 -0.3095
16952W        W32421  12.443  11.907   4.630 -0.3575 -0.0943  0.0822
16953W        W32422  13.765  13.101   1.299 -0.0090 -0.1538  0.2061
16954W        W32423  15.336   8.346   1.874  0.0789  0.1243  0.3055
16955W        W32424   4.919   0.131   4.679  0.2880  0.2963  0.0791
16956W        W32425   0.836   1.537   2.330 -0.2473 -0.1979 -0.1128
16957W        W32426   0.224   0.624  12.316  0.0023 -0.1873  0.0672
16958W        W32427   1.188   3.218   2.504 -0.1843 -0.0442  0.3587
16959W        W32428  16.819  10.754  12.464 -0.0045 -0.0837  0.0416
16960W        W32429  13.679  12.087   4.556 -0.0098 -0.2976 -0.2504
16961W        W32430   4.951   0.109   1.227 -0.2015 -0.0995 -0.1970
16962W        W32431   2.053  17.461   0.786 -0.0484 -0.0881 -0.3183
16963W        W32432  15.362   0.004  13.520 -0.0899 -0.0508  0.1537
16964W        W32433   4.956   0.880  15.086  0.1796  0.2006 -0.0379
16965W        W32434  14.543  17.382   4.498 -0.0797  0.1965 -0.1986
16966W        W32435   0.649   5.687  14.666 -0.0543 -0.1386  0.1658
16967W        W32436   9.227   6.505   4.077 -0.1131 -0.2104 -0.3157
16968W        W32437  14.250   1.026   1.712  0.1627 -0.1289  0.2547
16969W        W32438   4.548   8.634   1.223 -0.1222  0.0429 -0.0694
16970W        W32439  15.730  12.687  13.768  0.1512 -0.0180  0.1978
16971W        W32440   4.088   6.513  14.419 -0.2638 -0.4158 -0.1390
16972W        W32441   3.490  17.692  13.993 -0.0755 -0.2648  0.2481
16973W        W32442   0.471  14.872  15.141 -0.3123 -0.4488 -0.1052
16974W        W32443   9.852   9.892  13.462 -0.0540  0.2891 -0.0007
16975W        W32444   9.417   9.307   4.285 -0.0594 -0.2254  0.0590
16976W        W32445  11.754   5.206   1.179  0.2583 -0.1027  0.0629
16977W        W32446  18.121  13.894   5.434  0.1770 -0.0138 -0.2744
16978W        W32447   0.387   5.086  14.542 -0.0999 -0.0783  0.3555
16979W        W32448   3.314   0.969  12.866  0.1575 -0.1069 -0.0926
16980W        W32449  12.970   9.496   2.836 -0.0591  0.0119  0.3349
16981W        W32450   9.516  13.557  10.126  0.1638  0.0093  0.0718
16982W        W32451   0.864   3.867  12.551  0.2049  0.2521  0.1488
16983W        W32452   6.502  13.381  11.287  0.0068  0.1977 -0.2015
16984W        W32453  18.442   3.841  11.358  0.0601 -0.0018  0.1321
16985W        W32454   1.362   7.480   4.926 -0.4412 -0.0898 -0.2602
16986W        W32455   4.666  12.511   1.818 -0.3693 -0.3861  0.0702
16987W        W32456   4.519   8.982  14.220  0.0922 -0.3176  0.2704
16988W        W32457  15.483   2.261  11.393 -0.0867  0.1654 -0.0290
16989W        W32458  15.325   7.945   1.012 -0.0205  0.0387 -0.2261
16990W        W32459  11.176   4.801   4.919  0.0083  0.0445  0.0597
16991W        W32460   2.073   9.434   3.298  0.5915 -0.1569  0.3677
16992W        W32461   6.767  13.872   2.801 -0.1131 -0.1224  0.0664
16993W        W32462  18.387  10.991  10.210 -0.1336  0.2361  0.0385
16994W        W32463   1.868  15.968  11.500  0.1255 -0.1054  0.1325
16995W        W32464   6.593   4.877   2.062  0.3106  0.0365 -0.0404
16996W        W32465  16.469  10.345   2.546 -0.1250 -0.3530 -0.0375
16997W        W32466   4.551   0.951   4.674  0.1185  0.0572  0.1816
16998W        W32467   7.989   9.896   1.321  0.0969  0.1243 -0.0626
16999W        W32468  17.316   2.895  14.912 -0.1570  0.2933 -0.0158
17000W        W32469  10.728  17.074  12.138  0.3485  0.1175 -0.1087
17001W        W32470   9.300   9.871  12.829  0.1088 -0.2380 -0.1694
17002W        W32471  16.052   0.408  13.384  0.1414 -0.0708 -0.0045
17003W        W32472   7.815  16.502   3.944 -0.0888  0.1565  0.1520
17004W        W32473  16.821   0.137  15.800  0.0574 -0.3124 -0.3314
17005W        W32474  14.414  15.792  11.368 -0.3648 -0.1846  0.0849
17006W        W32475   5.571  17.376  13.625 -0.0184  0.0969  0.1937
17007W        W32476  11.207  10.219  14.675  0.1746 -0.0046 -0.1092
17008W        W32477   3.942   0.371   2.835  0.4152  0.0125 -0.2012
17009W        W32478   6.911  18.330   4.616  0.1577 -0.1772  0.3497
17010W        W32479  11.334  11.555  15.703  0.1021 -0.1198 -0.2000
17011W        W32480   4.862  10.595  13.251  0.0704 -0.0953  0.1964
17012W        W32481  10.819   3.452   5.266  0.2376 -0.0645 -0.1033
17013W        W32482   5.591  17.747   4.776  0.1753 -0.1447  0.0190
17014W        W32483  17.694   9.193  11.255 -0.1966 -0.0759 -0.0361
17015W        W32484   4.564   8.453   0.366  0.0807  0.4297 -0.0034
17016W        W32485  14.586   4.423  14.474 -0.1739 -0.5903 -0.0428
17017W        W32486   4.823   2.460  14.423 -0.1219  0.3117 -0.1842
17018W        W32487   6.354  11.875  15.030  0.0492  0.0610 -0.2213
17019W        W32488   8.404   0.567   3.189 -0.0583  0.0518  0.0041
17020W        W32489   2.715   7.243   0.300 -0.1828 -0.2221  0.3488
17021W        W32490   9.650  17.565   5.384 -0.1788 -0.0641 -0.3017
17022W        W32491   8.675  12.578   2.383  0.0783  0.3538 -0.3591
17023W        W32492   9.397   0.636   0.470 -0.3267  0.1648 -0.0307
17024W        W32493   0.764   2.985   2.257 -0.0275 -0.2181 -0.1633
17025W        W32494   6.115   0.984   0.160 -0.1952  0.4360  0.1135
17026W        W32495   1.260   9.037  12.694  0.0110 -0.4299 -0.0691
17027W        W32496   7.499  11.375  11.411 -0.0939  0.0704  0.1769
17028W        W32497   4.576   1.731   3.863  0.3207  0.1608  0.1196
17029W        W32498   6.632  17.702   1.429 -0.2750 -0.2342 -0.1349
17030W        W32499   7.706   1.072   0.426  0.2383 -0.3835  0.3198
17031W        W32500   2.410   3.070   0.974  0.2376 -0.0646  0.3958
17032W        W32501  11.364  15.310   3.893  0.0140  0.0328 -0.1076
17033W        W32502   3.106   6.444  11.811  0.0425 -0.1112  0.2569
17034W        W32503  18.350   4.753  13.268 -0.0665 -0.1230  0.1519
17035W        W32504   2.443   0.977   0.790  0.0135  0.0952  0.0779
17036W        W32505   9.821  14.439  11.463  0.2255 -0.2202 -0.0184
17037W        W32506  12.293  18.069   3.498 -0.1138  0.1200  0.1866
17038W        W32507   1.951  10.757   0.933 -0.0106 -0.1713  0.0294
17039W        W32508  13.971   3.744   9.561 -0.0805  0.1672  0.3642
17040W        W32509  11.273  10.437   0.448  0.1283  0.1592  0.1594
17041W        W32510  13.719   5.046  10.829  0.1971  0.0754 -0.2990
17042W        W32511   6.825  17.066   5.236 -0.0924 -0.0456  0.0744
17043W        W32512   8.121   6.419  13.278 -0.0853  0.3124 -0.1190
17044W        W32513  18.295  17.953  14.372  0.0977  0.0157  0.2406
17045W        W32514   2.734  10.926   3.990 -0.2913 -0.3323 -0.0706
17046W        W32515   1.050   6.251   3.639  0.0585 -0.0386 -0.1710
17047W        W32516   1.755  12.199   2.441 -0.1987 -0.0122 -0.2636
17048W        W32517   4.249   7.197  13.254 -0.0274 -0.0333 -0.1364
17049W        W32518  17.090   2.148   2.289 -0.0748  0.0201  0.3533
17050W        W32519  18.320  16.205  14.176  0.1906 -0.0247 -0.3820
17051W        W32520  16.261  10.156   2.954 -0.1241 -0.0225  0.1256
17052W        W32521   0.396  13.086   4.229  0.0076  0.0336 -0.2971
17053W        W32522   4.599   0.548  11.626  0.1790 -0.2851 -0.1693
17054W        W32523   0.862   2.168  14.048  0.0762 -0.0118 -0.1811
17055W        W32524  11.035   6.985  14.889 -0.2936 -0.2222  0.0156
17056W        W32525   2.054   8.816  14.041  0.2410 -0.2597  0.1768
17057W        W32526  16.546   3.899  11.691 -0.0193  0.2099  0.0528
17058W        W32527   8.561  15.351   1.214 -0.0190 -0.0484 -0.0247
17059W        W32528   2.962   1.909   4.838 -0.0798 -0.0538 -0.0793
17060W        W32529  14.322   5.487   3.581  0.0022  0.0671  0.1062
17061W        W32530  14.978   4.901  14.617 -0.0479  0.1530 -0.1556
17062W        W32531  17.387  13.718   1.632  0.1261 -0.1066  0.0953
17063W        W32532  13.590  11.268   0.937 -0.1244  0.0418 -0.1476
17064W        W32533  17.703   5.473  15.368  0.2462  0.2326 -0.0253
17065W        W32534  13.047   5.191   1.778  0.0574 -0.1619  0.2461
17066W        W32535   2.602  13.677   1.193 -0.0158 -0.2036 -0.2726
17067W        W32536   7.720  17.261  12.267 -0.0153 -0.3165 -0.2789
17068W        W32537   2.170  16.056  13.211 -0.0846  0.1585 -0.0011
17069W        W32538  12.208  11.570   1.309 -0.0509  0.0068  0.2524
17070W        W32539  14.253   9.409  12.926 -0.0461 -0.1006  0.0659
17071W        W32540  14.977  10.306  15.231  0.1679  0.0794  0.0763
17072W        W32541  12.029  12.482   0.166 -0.0702  0.0731  0.0038
17073W        W32542  10.746  14.254   4.804 -0.2704 -0.3241 -0.1339
17074W        W32543  17.928   1.698   2.374 -0.0537 -0.0403  0.0964
17075W        W32544  12.544   8.433  12.969  0.1233 -0.0663  0.4340
17076W        W32545  16.210   4.293  14.498  0.1087 -0.2704  0.0447
17077W        W32546   3.483   8.840   0.370  0.2180 -0.0118 -0.0115
17078W        W32547   9.608  11.855  15.202 -0.1157  0.0263  0.1464
17079W        W32548  12.775  16.054   3.066 -0.1312 -0.1624  0.0369
17080W        W32549   4.237  11.155   0.587 -0.0355  0.3081 -0.0879
17081W        W32550  11.666   7.207  15.234 -0.2164 -0.0731  0.0849
17082W        W32551  18.415  12.939  12.435 -0.5456 -0.1485 -0.1000
17083W        W32552   3.584  10.388   2.643 -0.0231  0.0451 -0.1663
17084W        W32553  17.442  10.103   2.801 -0.1336  0.2528 -0.0876
17085W        W32554   0.982  14.629  12.822 -0.1232  0.1741 -0.2000
17086W        W32555  11.238  16.154  11.678 -0.2720 -0.0928  0.2729
17087W        W32556   8.982  15.796   0.062 -0.0300  0.1051  0.1064
17088W        W32557  16.730   4.457   2.505  0.0939 -0.2071  0.0886
17089W        W32558   4.076  10.865   3.046  0.1088 -0.2031 -0.1022
17090W        W32559   1.492   6.402   2.729  0.6864  0.0517  0.1485
17091W        W32560   7.278   1.257   0.675  0.1690  0.0247  0.0003
17092W        W32561  10.531  11.054  10.776 -0.1292  0.0358  0.1078
17093W        W32562   5.701   9.161  10.514  0.1438 -0.1469  0.1236
17094W        W32563  16.864   4.961   9.823 -0.0656  0.1901  0.0145
17095W        W32564   3.608   9.160  13.555  0.1260  0.0710  0.1182
17096W        W32565   8.573   0.035  14.056 -0.1842 -0.1218 -0.2437
17097W        W32566  16.228   1.805  13.397 -0.3187  0.2527 -0.0899
17098W        W32567   7.927  16.701   3.001 -0.2729 -0.2454 -0.2002
17099W        W32568  17.317   7.256   1.458  0.1810  0.3178  0.2124
17100W        W32569   4.723   2.867   3.468 -0.2200  0.0273  0.0896
17101W        W32570   6.126  16.842   1.776  0.2809  0.0887  0.1109
17102W        W32571   8.810   0.725  13.413  0.1123 -0.2191  0.0191
17103W        W32572   3.083   3.831   4.505  0.2879  0.2057 -0.1660
17104W        W32573   5.905  13.011   1.337  0.0011  0.1804  0.2093
17105W        W32574   0.546  12.924  15.152  0.3618 -0.2880  0.1900
17106W        W32575   8.393  12.999   2.612  0.3017 -0.2526 -0.3269
17107W        W32576  10.211   4.749   4.699 -0.3040 -0.1314  0.1443
17108W        W32577  13.157   7.974   4.332 -0.3584 -0.1447  0.1659
17109W        W32578   5.548  14.927  14.264 -0.0365 -0.0162 -0.1233
17110W        W32579   9.885   3.001   0.732  0.0295 -0.1027 -0.0119
17111W        W32580   3.290   4.384  14.625 -0.2381  0.5183  0.5265
17112W        W32581   2.982   3.430  15.235  0.0542  0.3769  0.1274
17113W        W32582   3.301  11.130   0.143  0.5151  0.0683  0.2276
17114W        W32583  16.204   5.971   4.298 -0.1771  0.0682 -0.0196
17115W        W32584  15.816  12.429  10.751  0.1668  0.0107  0.1034
17116W        W32585   0.302   7.757   2.432 -0.3983  0.3438  0.2154
17117W        W32586   9.113   8.002   2.071 -0.5539 -0.0013  0.0750
17118W        W32587  12.634   4.887   0.542  0.1195 -0.0118  0.0084
17119W        W32588   1.261   0.310   5.107  0.0078 -0.3440  0.3175
17120W        W32589  11.819   7.518   4.289  0.0517  0.1163  0.1151
17121W        W32590   8.780   6.577  13.846  0.1446 -0.0933 -0.3342
17122W        W32591   8.179  17.355   2.441  0.1285 -0.0245  0.1737
17123W        W32592  12.522   4.095   2.822  0.0636 -0.2203 -0.0089
17124W        W32593   1.985  10.252   4.630  0.2167 -0.0264 -0.2688
17125W        W32594   8.707   6.295   1.737 -0.1309 -0.0804 -0.0411
17126W        W32595  10.203  16.352  14.430  0.1121  0.0121 -0.0648
17127W        W32596   9.542  12.217   4.007  0.1920  0.2131 -0.4038
17128W        W32597   5.387   9.094   1.053 -0.1763 -0.0682  0.1705
17129W        W32598   2.303   3.963   1.534  0.0438  0.1109 -0.0850
17130W        W32599  17.122   5.466  15.312  0.1510  0.1823  0.2912
17131W        W32600  12.275   2.526  12.059  0.0905  0.0503  0.1416
17132W        W32601  15.354  11.686   1.158 -0.1507 -0.1696  0.0707
17133W        W32602  10.352   6.673   4.063  0.0581  0.0274 -0.0006
17134W        W32603   7.336   7.377   2.612 -0.1636  0.2340  0.0371
17135W        W32604  11.430   3.413  13.306 -0.1250 -0.0502 -0.0930
17136W        W32605   1.306   6.627   3.990 -0.2509 -0.0260  0.0137
17137W        W32606   2.341  12.118  12.591  0.2396  0.1759 -0.1862
17138W        W32607   4.982   3.747   5.038  0.0666  0.0553 -0.1166
17139W        W32608  14.171  12.095   4.928 -0.3982  0.2265 -0.0399
17140W        W32609   2.999   6.728  11.371 -0.1717 -0.0874 -0.0583
17141W        W32610  13.068  15.459   3.888  0.0415  0.2061 -0.0273
17142W        W32611  10.526   8.134   0.307  0.2405 -0.0011  0.0434
17143W        W32612   8.690   7.568  12.927  0.0816 -0.2120 -0.0466
17144W        W32613  17.361  10.539  13.360 -0.1928 -0.4486  0.0990
17145W        W32614  14.689   4.233  11.088  0.0314  0.2229 -0.0928
17146W        W32615  17.740   2.215   3.881 -0.2176  0.0099 -0.2500
17147W        W32616   7.133  17.496   3.966 -0.1834  0.1682 -0.1698
17148W        W32617  12.855  16.197  10.251 -0.4032  0.0118 -0.0806
17149W        W32618  11.707   7.779   9.803 -0.1744 -0.2150 -0.1804
17150W        W32619  18.109   2.554  14.502  0.0126  0.3800  0.0669
17151W        W32620  14.285  10.598  11.834 -0.0502  0.2618 -0.0320
17152W        W32621  14.268   3.344   4.281  0.0699 -0.0830  0.0800
17153W        W32622  17.265  17.507  13.851 -0.2177 -0.0145  0.0203
17154W        W32623   0.084   1.602  11.971  0.1226 -0.0372  0.0806
17155W        W32624   9.728   0.245   1.761 -0.0878  0.1976  0.2398
17156W        W32625   7.672  16.837  13.713 -0.2253  0.1935 -0.2377
17157W        W32626  16.240   5.625   1.430  0.0946  0.0655 -0.1171
17158W        W32627  16.932  18.201   0.101 -0.1134 -0.0977 -0.0624
17159W        W32628   5.073  12.481  10.694  0.0038 -0.0263 -0.4231
17160W        W32629  14.963  10.051  12.032 -0.1636  0.1213 -0.0241
17161W        W32630   5.686  15.998  12.328  0.0611 -0.0388 -0.0396
17162W        W32631   1.172  11.516  15.258  0.1995 -0.1290 -0.0067
17163W        W32632   1.573   0.397   4.655 -0.1271  0.3519  0.3478
17164W        W32633   9.177  13.697   2.610  0.2126  0.0354  0.0071
17165W        W32634  16.830   8.347   4.343  0.0620  0.0902  0.1850
17166W        W32635  17.816   0.082   1.865  0.0514 -0.1037  0.1664
17167W        W32636   0.306  11.563  10.858  0.0473 -0.4060 -0.1533
17168W        W32637   3.794   1.311   3.918 -0.1831  0.2523  0.2434
17169W        W32638  17.179   2.171   3.862  0.0360 -0.0710 -0.0293
17170W        W32639  10.012   0.348  11.811 -0.0163  0.3102  0.2430
17171W        W32640  12.562   0.631   1.838 -0.1594  0.1658  0.2770
17172W        W32641  10.571   0.616   4.543 -0.1687  0.3821 -0.0915
17173W        W32642   5.703   5.208   3.206 -0.1614 -0.2359 -0.1111
17174W        W32643   2.083   1.189  14.688  0.1072  0.1042 -0.1593
17175W        W32644   3.946   7.201  14.191  0.0814 -0.0224  0.1599
17176W        W32645   6.175   2.755   4.895 -0.4339 -0.1361  0.1222
17177W        W32646   0.559  13.733  15.065  0.0523  0.1842 -0.1713
17178W        W32647   5.788  17.512   3.437  0.2020  0.1426  0.2204
17179W        W32648   3.710   6.708  14.088  0.1819  0.2536 -0.0729
17180W        W32649  11.786  14.717   3.957 -0.0082  0.1737  0.0246
17181W        W32650  13.651  18.140   5.109 -0.2762  0.1247  0.1674
17182W        W32651   5.584   7.670  15.187 -0.1038  0.0354 -0.2120
17183W        W32652  16.342   7.770  13.691 -0.5592  0.4246 -0.4530
17184W        W32653   1.540  18.101  14.200  0.0246  0.0111  0.1034
17185W        W32654   4.501   3.268   0.218  0.1219 -0.0606  0.1700
17186W        W32655   8.584  17.962  12.223 -0.0386 -0.0543 -0.1081
17187W        W32656  11.494  16.002  12.428  0.1897  0.0459  0.2735
17188W        W32657   7.676   0.282  11.848  0.0358  0.3925 -0.2431
17189W        W32658   2.440   2.504  12.887  0.0256  0.1745 -0.0499
17190W        W32659   5.299   7.431   4.532  0.3388 -0.0280 -0.1812
17191W        W32660   9.278  17.577   0.679  0.1940  0.0319 -0.0795
17192W        W32661   0.638  11.440  12.777  0.1043 -0.0368  0.1866
17193W        W32662   2.758  11.893  15.213  0.0905 -0.1810 -0.1410
17194W        W32663  10.151   5.236  12.845 -0.2055 -0.0008 -0.0761
17195W        W32664   7.251  15.891  11.297  0.1424  0.0938 -0.2151
17196W        W32665  15.345  12.458   1.850  0.1400 -0.2496  0.1136
17197W        W32666  18.232  10.949  15.725  0.1211  0.3565  0.1418
17198W        W32667   9.335  17.663   4.142 -0.2191 -0.5781  0.0428
17199W        W32668   7.293  17.295  11.349 -0.0204  0.2993 -0.4386
17200W        W32669  11.380  14.856   4.214 -0.0886  0.2073 -0.2260
17201W        W32670   0.811  10.496   1.809  0.0654  0.1416 -0.0220
17202W        W32671   1.590  17.501  15.391 -0.2594 -0.3941  0.1434
17203W        W32672  17.909   8.734  10.499 -0.0919  0.2379 -0.2333
17204W        W32673   5.114   3.264   0.928 -0.0117  0.1834  0.1362
17205W        W32674  17.103  18.073  11.791 -0.3144 -0.0076 -0.2971
17206W        W32675  14.010   3.781   1.069  0.0100 -0.1727 -0.1330
17207W        W32676  14.828   7.107   9.822 -0.0551  0.0486 -0.0716
17208W        W32677   4.623   2.606   2.171  0.1066 -0.2478 -0.0409
17209W        W32678  17.604  13.398  15.095 -0.1964 -0.1642 -0.3056
17210W        W32679   7.715   8.160   0.503 -0.0993  0.3840 -0.0447
17211W        W32680   4.168   6.729   2.092 -0.0543 -0.0206  0.0916
17212W        W32681  14.813   3.203   4.329 -0.0096 -0.0983 -0.1153
17213W        W32682   5.003   5.971   2.795  0.1526 -0.1620 -0.1167
17214W        W32683   9.104   9.238   3.731  0.3109 -0.0725 -0.2148
17215W        W32684   2.996  14.312  13.639  0.1217  0.1904 -0.3625
17216W        W32685   7.861  11.638  13.698  0.2107 -0.3174  0.0252
17217W        W32686  12.017  17.434  12.622  0.0784 -0.0029 -0.0869
17218W        W32687   6.721  13.084   2.946 -0.0715  0.0017 -0.0457
17219W        W32688   4.462   6.813  15.191 -0.0030  0.1603  0.0436
17220W        W32689  15.905  11.836  11.871  0.0765 -0.2245  0.2687
17221W        W32690   0.563   1.098  10.219 -0.0497  0.2997 -0.0902
17222W        W32691   4.731   5.989  13.350  0.0787 -0.2273 -0.1961
17223W        W32692  14.878  16.346  15.783  0.3812 -0.1740 -0.1844
17224W        W32693   1.157  11.942   4.117 -0.1986  0.0729 -0.0707
17225W        W32694   2.898   0.716   1.639  0.0496  0.3761  0.0663
17226W        W32695  11.089  12.131  14.395 -0.0605 -0.1676  0.0391
17227W        W32696   1.005   1.679   3.326  0.1645  0.1070 -0.4525
17228W        W32697   9.793   8.597  12.185  0.0568  0.0681  0.2688
17229W        W32698   3.086   9.749  12.314  0.0692 -0.1360 -0.1847
17230W        W32699   0.406  16.600  15.832 -0.1768 -0.0597 -0.1331
17231W        W32700   0.299  13.926   2.074 -0.0345 -0.1220  0.1687
17232W        W32701  16.851   2.759  11.265  0.0323  0.0526  0.0646
17233W        W32702   7.202   7.030  13.928 -0.1950  0.0319  0.1541
17234W        W32703   0.575  15.990   3.089  0.1084  0.1412 -0.5864
17235W        W32704  13.645  16.748  13.628  0.1102 -0.1365 -0.4941
17236W        W32705  16.883   9.053   2.699 -0.3878 -0.1327  0.0459
17237W        W32706   0.619   2.375  14.407 -0.2974 -0.6005 -0.4029
17238W        W32707  12.019   7.501  10.832 -0.2150  0.1603 -0.2922
17239W        W32708  12.798  10.666  14.143  0.2072  0.4715  0.0493
17240W        W32709  14.280   4.562  10.842 -0.0914  0.2261  0.3747
17241W        W32710  13.136   5.121  10.987  0.0224  0.1369  0.3202
17242W        W32711  16.394  14.951   3.304  0.0616 -0.2017 -0.0639
17243W        W32712   3.504   7.359   5.310 -0.1396 -0.4109 -0.0106
17244W        W32713  11.509   9.363   0.436 -0.0005  0.0699 -0.0213
17245W        W32714   5.897  15.190   2.472  0.2387 -0.1110 -0.2419
17246W        W32715  16.341   5.060   1.996 -0.0039  0.0485  0.1439
17247W        W32716   7.751   4.093  13.230 -0.0524  0.2659  0.0237
17248W        W32717   9.089   1.160   5.250  0.1031 -0.3657  0.0077
17249W        W32718   7.052   4.369  12.536 -0.4508  0.1183  0.0214
17250W        W32719  11.095  17.933  12.297 -0.1961 -0.2438 -0.0952
17251W        W32720   2.506  13.929   0.709 -0.1810  0.0243 -0.0885
17252W        W32721  17.230   7.636  13.349  0.0952  0.0754 -0.0249
17253W        W32722   3.476   1.733   4.969  0.1653 -0.0992 -0.3417
17254W        W32723   6.711  17.859   4.593 -0.2151 -0.1244 -0.0786
17255W        W32724   3.452   0.372   2.065  0.1580  0.0714  0.3482
17256W        W32725   5.491  10.415   1.622 -0.0680  0.3462 -0.3372
17257W        W32726  10.692   0.639  12.634  0.3064  0.1011  0.0823
17258W        W32727   2.859  11.425   5.343 -0.1884  0.0901 -0.2173
17259W        W32728  15.435  16.533  13.842 -0.1501  0.0848 -0.0001
17260W        W32729  12.245  11.082  14.330 -0.0457 -0.0031  0.1664
17261W        W32730   5.436   0.668  11.485  0.1586  0.0880 -0.3089
17262W        W32731  11.647   4.480   1.765 -0.1597 -0.1516 -0.3477
17263W        W32732  10.823   1.358  14.270  0.0462 -0.0022  0.2017
17264W        W32733  11.165   3.059   2.500  0.0580  0.0890 -0.0701
17265W        W32734   6.249  12.539  15.518  0.0203  0.4457 -0.1079
17266W        W32735   6.380   6.662   4.323 -0.0194  0.0602 -0.0034
17267W        W32736  14.184   5.301   1.802  0.0862 -0.0935  0.0629
17268W        W32737   0.949  18.372   4.691  0.0990 -0.2345  0.0350
17269W        W32738  17.075  15.007  13.498 -0.1261  0.2276 -0.2461
17270W        W32739   3.729   4.375   5.064 -0.0390 -0.1424 -0.0623
17271W        W32740   5.369  14.602   0.359  0.0710 -0.0538 -0.1525
17272W        W32741   1.358  16.586  12.803 -0.1634 -0.1294 -0.0029
17273W        W32742   1.622   2.372   3.661 -0.2956 -0.4243 -0.2745
17274W        W32743   1.967   3.570   2.956 -0.0937 -0.1389  0.0658
17275W        W32744   1.181   7.666   3.095  0.1932 -0.1153 -0.5646
17276W        W32745   7.530   7.584   3.084 -0.0164 -0.3095  0.0629
17277W        W32746  10.973  14.218   5.252  0.1487  0.0690 -0.3307
17278W        W32747   9.238   7.795   3.494  0.4988  0.1846 -0.1539
17279W        W32748  14.944   9.503  11.882  0.1314 -0.2877 -0.1324
17280W        W32749   6.761   8.798   1.082 -0.1035  0.0443 -0.0292
17281W        W32750   2.473  12.571   4.527 -0.1103  0.0642  0.0170
17282W        W32751  12.415  17.478   4.203  0.1353 -0.3422 -0.0950
17283W        W32752   0.926   5.857  15.556  0.0737  0.3565 -0.4120
17284W        W32753   8.566   5.769   1.569  0.4540  0.0162  0.1119
17285W        W32754   4.915  16.718   5.447  0.0110  0.1670 -0.1185
17286W        W32755   3.381  12.066  14.629  0.2352 -0.1316 -0.0509
17287W        W32756   1.575   4.950   2.494  0.0822  0.0861 -0.0514
17288W        W32757   7.719   4.150   3.885  0.0773  0.1896  0.0135
17289W        W32758   4.295   1.172  12.659  0.0317 -0.0244  0.0899
17290W        W32759  12.204  14.603  10.279 -0.2289 -0.0124 -0.2213
17291W        W32760   7.375  17.438   4.845  0.3964 -0.0132 -0.3184
17292W        W32761   7.158   1.396  10.996 -0.3477 -0.1806 -0.1123
17293W        W32762   3.919   8.700   3.361  0.1131 -0.2266  0.0775
17294W        W32763   2.021   5.499   4.324 -0.1834  0.0903 -0.2800
17295W        W32764   4.513  13.007   4.062 -0.1571  0.2788 -0.1958
17296W        W32765  13.211   8.452   4.789  0.0926  0.0407  0.1071
17297W        W32766  15.123  18.237   2.840  0.0652  0.5698  0.0179
17298W        W32767   2.984  16.978   3.734  0.0519 -0.2751  0.0317
17299W        W32768   2.510  17.363  15.873 -0.1077 -0.1378  0.3767
17300W        W32769  10.474   3.417   3.489 -0.0653 -0.1336 -0.3776
17301W        W32770  18.195   2.650  11.074 -0.0025  0.2088  0.1568
17302W        W32771   5.010  11.329   0.605 -0.1285 -0.0160  0.1128
17303W        W32772   4.418  12.008  15.691 -0.5230 -0.1618 -0.4910
17304W        W32773   4.587   4.133  15.901  0.3681  0.1450 -0.0700
17305W        W32774  15.799   1.493  11.094  0.1313  0.0459  0.0695
17306W        W32775   5.075   0.269   0.203 -0.3685 -0.1920  0.0305
17307W        W32776   6.370   8.422   3.876  0.1826 -0.0620 -0.2345
17308W        W32777   2.073   8.652  13.006  0.2817 -0.1239  0.1659
17309W        W32778  10.886   7.374  11.607  0.0568  0.1053  0.1734
17310W        W32779  14.404   1.611  15.303 -0.3263  0.2208 -0.1457
17311W        W32780  13.023  14.731   2.535 -0.1502 -0.1745 -0.0821
17312W        W32781  10.973   9.198   1.607  0.1223  0.2250 -0.0351
17313W        W32782   3.107   2.430  11.611  0.0412  0.2500  0.0941
17314W        W32783  18.058  17.200   1.466 -0.1518 -0.0279 -0.1472
17315W        W32784  15.640   8.080  13.298  0.0721 -0.2709  0.1379
17316W        W32785   9.248  15.513  11.322 -0.1701  0.0576  0.2657
17317W        W32786   2.597   5.997  10.704 -0.0957 -0.0006 -0.2659
17318W        W32787  14.593   4.753   1.201 -0.1148  0.1081 -0.0794
17319W        W32788   0.533  14.452  13.194  0.2807 -0.0387  0.2079
17320W        W32789   2.031  15.553  15.852  0.0438  0.2528 -0.0030
17321W        W32790   0.752   1.259  14.568  0.6646 -0.1069 -0.2912
17322W        W32791   5.680   6.563  11.461  0.2172 -0.4066  0.3101
17323W        W32792   5.995  17.823   5.267  0.1595 -0.1537 -0.0698
17324W        W32793  10.786  15.858  13.111  0.0065 -0.0272 -0.1720
17325W        W32794   8.428  14.712  11.311 -0.0209  0.1019 -0.2933
17326W        W32795   7.944  16.400  11.989  0.1731 -0.1193 -0.1465
17327W        W32796   2.544   4.653  12.551 -0.1699  0.0959 -0.1666
17328W        W32797   3.086   5.464  11.420 -0.0031 -0.1398  0.1544
17329W        W32798   9.698   4.864  11.391  0.1972  0.0859  0.0124
17330W        W32799   3.208   0.548  14.010 -0.1173 -0.1525 -0.3004
17331W        W32800  13.972  12.467  15.629  0.2550 -0.0658  0.2554
17332W        W32801   7.683  11.833  14.129 -0.1535  0.0445  0.2016
17333W        W32802   3.849   9.064  12.181  0.3033 -0.3318  0.0286
17334W        W32803  16.172  10.993  11.060  0.0285  0.1802  0.2100
17335W        W32804   7.869  14.399   2.428 -0.2057  0.0770 -0.1666
17336W        W32805  17.294  17.653   3.465  0.2021 -0.2331 -0.3100
17337W        W32806   7.218   3.424   5.608 -0.0161  0.0952  0.4490
17338W        W32807   7.364  16.342   3.675 -0.2165 -0.1454  0.1626
17339W        W32808  11.606   7.260   2.320 -0.1194  0.0082 -0.0896
17340W        W32809   3.974  13.886   4.272  0.3342 -0.0112  0.0388
17341W        W32810  11.917  16.400   3.650  0.1348  0.1309 -0.0420
17342W        W32811  11.279   2.542   1.552  0.2083 -0.2373  0.0814
17343W        W32812   8.839   2.408   0.675  0.2255  0.1190 -0.2420
17344W        W32813  10.886  15.423  10.764 -0.1899  0.0395  0.2335
17345W        W32814  11.994  17.096  13.591 -0.0161 -0.0375  0.1602
17346W        W32815  14.912  15.310  14.097  0.0356 -0.0336  0.0191
17347W        W32816  12.609   7.287   4.682  0.1679 -0.0664 -0.0178
17348W        W32817   5.899  11.352   4.539  0.0038  0.1003  0.2199
17349W        W32818   9.116   8.904   1.763  0.2097 -0.2213 -0.0415
17350W        W32819   4.061   8.131   2.182 -0.1823  0.2568 -0.1462
17351W        W32820  16.098  10.780   3.691  0.0873  0.1400  0.1152
17352W        W32821   7.395   1.969   2.938  0.1845 -0.3082 -0.0991
17353W        W32822   2.754   8.842   2.035 -0.0664  0.0944 -0.2124
17354W        W32823  15.809  17.701   3.052  0.0138  0.2704  0.1307
17355W        W32824   2.666   3.673   4.240  0.0656 -0.2749  0.1958
17356W        W32825  17.674  12.205   0.684  0.1951 -0.0232  0.1128
17357W        W32826   7.650   9.501  11.196  0.2207  0.2692  0.1628
17358W        W32827   4.354  18.240   1.944  0.1409 -0.1677  0.0517
17359W        W32828  15.385   6.383  13.078  0.0295 -0.1696  0.0544
17360W        W32829  13.035   0.928   2.442 -0.1052  0.0509 -0.1167
17361W        W32830   1.500  11.213   1.636  0.3854 -0.2511  0.0899
17362W        W32831  18.146   2.175  10.833  0.3384  0.0785 -0.0607
17363W        W32832   6.045  17.186  13.201  0.0963 -0.2774  0.4365
17364W        W32833  15.367   0.154   1.060  0.1342  0.0561 -0.0616
17365W        W32834  15.169  17.228   4.604 -0.0597  0.0555  0.0417
17366W        W32835   5.756  14.868  10.038 -0.0444 -0.0657 -0.1991
17367W        W32836  10.732  11.681   4.061 -0.0163 -0.0903 -0.0097
17368W        W32837   9.675  13.810  13.510  0.0403 -0.2148 -0.2128
17369W        W32838   1.576  11.277  15.411  0.1634 -0.1938  0.2869
17370W        W32839   1.882   1.667   4.009  0.1965  0.0758  0.0046
17371W        W32840   8.306   7.571  13.287 -0.4929 -0.1013 -0.2462
17372W        W32841  10.215  12.861   1.205  0.2511  0.1751 -0.0988
17373W        W32842   7.707   3.164  13.602 -0.2527 -0.1241 -0.0054
17374W        W32843   0.651  13.601   3.410  0.0939  0.0178 -0.0149
17375W        W32844   3.285   9.903   1.032  0.2671  0.1006 -0.0936
17376W        W32845   7.251  13.362   0.779 -0.1922  0.0094  0.0312
17377W        W32846  17.755   2.182  15.295  0.0294  0.0318  0.2492
17378W        W32847   6.044   9.414  14.384  0.1125 -0.3098  0.1079
17379W        W32848   6.128   5.792   0.843  0.1913 -0.0531  0.1971
17380W        W32849   9.901   6.703  11.281 -0.0515  0.3224 -0.3356
17381W        W32850   1.842   2.093  11.176 -0.4728 -0.1382  0.2118
17382W        W32851  13.151   8.273  13.664 -0.2870 -0.2124  0.1955
17383W        W32852  14.813   4.615  12.021 -0.0161  0.1464 -0.0733
17384W        W32853   8.290  12.975  12.409  0.2753 -0.0925 -0.1052
17385W        W32854   5.794  17.406  15.162  0.1376 -0.0863  0.2343
17386W        W32855   9.908  17.655   2.514 -0.0956 -0.0319  0.1277
17387W        W32856  17.378  15.120  14.839  0.0675 -0.1282  0.1646
17388W        W32857   8.466   2.637   5.839 -0.0848  0.0029 -0.0788
17389W        W32858   2.907   0.375   4.184 -0.1303 -0.1545 -0.2103
17390W        W32859   4.604   9.885  11.888 -0.1693 -0.0948  0.0547
17391W        W32860  11.662   0.301  15.342 -0.2164 -0.1384 -0.0603
17392W        W32861   7.548  11.112  12.989 -0.1308  0.0885 -0.0404
17393W        W32862   7.485  14.518   3.882 -0.0408 -0.1549 -0.0569
17394W        W32863  14.995   0.382   5.009 -0.2360  0.1536  0.3150
17395W        W32864  16.603   9.217   3.303  0.2716  0.1198 -0.1359
17396W        W32865   1.516   6.267  11.712 -0.0435 -0.2866 -0.0729
17397W        W32866   8.892  17.319   0.963 -0.1155  0.3129  0.0617
17398W        W32867   0.280  10.981   4.236  0.0251  0.0555 -0.1945
17399W        W32868   5.535  16.514  15.270  0.0861 -0.2018  0.0187
17400W        W32869   1.856  14.699   5.085  0.1462  0.1940 -0.0043
17401W        W32870   0.725  13.010   2.478  0.1024 -0.1735  0.0817
17402W        W32871  18.388   5.039  11.037 -0.0896 -0.1482 -0.2998
17403W        W32872   0.717  12.033   3.326 -0.1472 -0.1148 -0.0476
17404W        W32873   5.568   6.689  12.248  0.0714 -0.1289  0.1098
17405W        W32874  10.937  15.978   1.090 -0.2199  0.4545 -0.1487
17406W        W32875  17.240   5.991   2.054 -0.0052 -0.0434  0.2703
17407W        W32876   8.878   2.441  12.675 -0.3181 -0.3738  0.3854
17408W        W32877   5.277   7.055  12.065 -0.0052  0.0978  0.2501
17409W        W32878  14.786   7.215   5.208  0.2268  0.1610 -0.0558
17410W        W32879  13.270  14.708   4.849 -0.1488  0.0949  0.0442
17411W        W32880   8.989  15.753  12.687 -0.1024  0.0278 -0.0272
17412W        W32881   9.535   9.793   5.696 -0.0676  0.0755 -0.1220
17413W        W32882  15.187   6.913   2.845  0.0818 -0.0382  0.2100
17414W        W32883   2.678   5.800  11.567  0.4396  0.1657 -0.1622
17415W        W32884  16.992   6.234  10.628  0.0363  0.1482  0.4365
17416W        W32885   4.526  14.750  11.098  0.0980 -0.0609  0.0968
17417W        W32886   8.193   4.093  11.131  0.3529 -0.1893  0.0212
17418W        W32887  14.132  13.551  14.432 -0.0521  0.1613 -0.1910
17419W        W32888  17.747  11.803  11.879  0.1325  0.0794 -0.0704
17420W        W32889   4.759  18.146   1.130 -0.1761  0.1480  0.1179
17421W        W32890   1.125  13.524   3.056 -0.0691 -0.1616 -0.1734
17422W        W32891  16.986  15.420   4.450  0.3352  0.1674 -0.0932
17423W        W32892  10.302  11.006   2.658  0.0288  0.2209  0.1363
17424W        W32893   9.470  14.181   1.897 -0.1143  0.3958 -0.0195
17425W        W32894   1.575   5.867   0.065 -0.1422  0.1426 -0.2730
17426W        W32895  17.020   1.179  10.896 -0.1880 -0.2523  0.2104
17427W        W32896  10.438  18.024  11.723  0.0997 -0.1824 -0.1064
17428W        W32897   2.348  16.496   2.481 -0.1051  0.1775 -0.0276
17429W        W32898  14.031  16.479  12.498  0.0045  0.0505  0.1943
17430W        W32899   2.152   0.496  12.044 -0.1452 -0.0283 -0.0961
17431W        W32900  14.270  16.864   4.850 -0.1186 -0.1611 -0.1493
17432W        W32901  16.516   3.716   2.448 -0.1071  0.2148 -0.1415
17433W        W32902   4.636  10.381   3.609  0.0366  0.2464 -0.0429
17434W        W32903  11.309  17.761   1.053  0.0768  0.0401  0.0735
17435W        W32904   3.255  16.947  15.251 -0.1803  0.0779  0.2559
17436W        W32905   0.490  14.228   3.122 -0.1620 -0.2336 -0.1815
17437W        W32906   8.285   2.600   2.677 -0.0769  0.0855 -0.0630
17438W        W32907   2.063  14.770   3.175  0.3505  0.2062 -0.3023
17439W        W32908   2.585  13.291  13.724 -0.1064  0.1037 -0.0029
17440W        W32909   3.120  15.949   1.447  0.3723  0.0461  0.0751
17441W        W32910   1.616   9.683   9.941 -0.1348 -0.0705  0.0898
17442W        W32911   3.966   3.144  14.976 -0.0255  0.1525  0.1929
17443W        W32912   1.624  15.868   2.580  0.0548 -0.1205 -0.0977
17444W        W32913   3.644  14.498  11.446  0.3442 -0.0476  0.2367
17445W        W32914  13.704   6.415  15.431 -0.2409 -0.1648 -0.1198
17446W        W32915  17.433   0.608  12.831  0.0600 -0.1442 -0.0675
17447W        W32916  12.617   9.169   4.663  0.1195  0.2117 -0.0808
17448W        W32917  12.949   6.616   1.587 -0.2194 -0.1108 -0.0335
17449W        W32918   7.040   7.875  14.303 -0.2409 -0.1255  0.2304
17450W        W32919  11.656   0.744  15.572 -0.2784 -0.1104 -0.2104
17451W        W32920  15.949  14.702  11.831  0.3243 -0.3547  0.0588
17452W        W32921   7.383   1.035  15.682 -0.0333  0.2428  0.0144
17453W        W32922  12.889   4.150   2.275  0.1318  0.0140  0.0239
17454W        W32923   0.752   9.568  15.081 -0.2187 -0.3193 -0.0796
17455W        W32924  17.489   8.307   2.792  0.1390  0.0676  0.1596
17456W        W32925   8.277   5.871  14.263 -0.0966 -0.0857 -0.1366
17457W        W32926   8.459  18.047  14.020  0.0132 -0.2370  0.3420
17458W        W32927   3.599   1.728  11.758 -0.0368 -0.0658 -0.3121
17459W        W32928   4.693  16.222  13.566  0.2295 -0.0899 -0.1075
17460W        W32929  17.665   2.681   4.091  0.1684 -0.0024 -0.2402
17461W        W32930   4.913   5.497  11.832  0.2108  0.1229 -0.4935
17462W        W32931   2.719   9.143  15.227  0.4755  0.1485 -0.2363
17463W        W32932   8.412  18.180   5.593  0.1655  0.3215  0.3366
17464W        W32933   2.500  17.531   3.793 -0.0758 -0.0600 -0.0442
17465W        W32934   2.908  13.530   3.128 -0.1006 -0.2342  0.1832
17466W        W32935   5.578   3.621  14.702  0.1152  0.0604  0.1301
17467W        W32936  16.223  10.875  11.635  0.4055 -0.2203  0.1020
17468W        W32937   4.605   5.230  13.940  0.3712 -0.0817  0.0027
17469W        W32938  15.120  16.493   4.117 -0.0791 -0.0393  0.0922
17470W        W32939   8.717  15.656   6.340  0.0246  0.2383  0.2632
17471W        W32940  12.513   3.935   0.843 -0.2891 -0.2171 -0.0771
17472W        W32941   6.317  11.636   4.508  0.1290 -0.2133 -0.1299
17473W        W32942   4.732   1.470   5.382 -0.0556  0.0053 -0.0350
17474W        W32943  15.122  14.767   3.522  0.0497 -0.3672  0.0661
17475W        W32944  11.233   2.597  13.947 -0.2743  0.2075 -0.0627
17476W        W32945   4.183  16.199  14.460 -0.0233 -0.4438 -0.0652
17477W        W32946   4.077   7.822   0.067  0.3147  0.0004  0.1171
17478W        W32947   8.373   9.614   3.250  0.0371 -0.0479  0.0608
17479W        W32948   6.274  11.553  11.626  0.1995  0.1079 -0.0693
17480W        W32949  16.901   4.729  10.261  0.1989  0.0056  0.0798
17481W        W32950   2.077   0.087   1.637  0.0413  0.0521  0.0303
17482W        W32951   1.829  10.121  12.119 -0.1243 -0.1453 -0.0993
17483W        W32952   3.428  14.867   4.589  0.0694 -0.0107 -0.2458
17484W        W32953   9.095  16.208   5.282  0.3941  0.1028  0.0684
17485W        W32954  12.222   6.016  11.785 -0.1180  0.1442 -0.0155
17486W        W32955  11.017  16.429   4.485  0.2438 -0.1273  0.0970
17487W        W32956  11.143   2.579  12.751 -0.0803  0.1141 -0.1604
17488W        W32957  13.223   4.924   9.975 -0.1923  0.1279  0.0663
17489W        W32958  12.010  14.293   4.762  0.1292 -0.1382  0.0441
17490W        W32959   0.913   5.276   2.653 -0.0918  0.2454  0.1811
17491W        W32960   7.654   7.645  15.220 -0.2989  0.1254  0.0606
17492W        W32961   1.076  17.858  14.179  0.4786 -0.0865 -0.1691
17493W        W32962  16.396   4.592  11.168 -0.2664 -0.1482  0.0934
17494W        W32963  12.031  17.996  13.737  0.1397  0.3910  0.1268
17495W        W32964   9.974   6.424  10.773  0.1393 -0.0696 -0.3663
17496W        W32965   1.857   9.593  10.838 -0.1464 -0.3282 -0.1689
17497W        W32966  12.224  14.169   0.651  0.0066  0.1595  0.0711
17498W        W32967   1.628   6.235   4.046  0.1206 -0.0861 -0.1057
17499W        W32968  13.479  12.944   4.840  0.2262  0.2227  0.0340
17500W        W32969   5.022  10.563   1.889  0.1470 -0.1974 -0.1816
17501W        W32970  12.724  13.794   0.072  0.2209 -0.2725 -0.0090
17502W        W32971   2.654  11.076   0.431  0.0543 -0.2470  0.3286
17503W        W32972   3.088   3.383  11.124  0.1237 -0.0620 -0.1269
17504W        W32973   3.110  14.472   4.894 -0.2478 -0.1599 -0.0234
17505W        W32974   6.210   4.561  12.367 -0.4169  0.0010 -0.1940
17506W        W32975   1.945   6.725  12.486 -0.1625  0.0412 -0.1084
17507W        W32976   4.085   2.226   2.869  0.1884 -0.0590 -0.0328
17508W        W32977   4.927   1.970   5.337  0.0426  0.2403  0.0435
17509W        W32978  16.809  14.881   1.345 -0.0871  0.0632  0.2914
17510W        W32979  16.627  17.936   4.783 -0.0812 -0.0539  0.0008
17511W        W32980   1.191  15.685   0.387 -0.1549  0.2533  0.1601
17512W        W32981  10.896  16.274  15.068 -0.2117 -0.1022  0.0938
17513W        W32982   6.400  16.953  14.420  0.0785 -0.0670 -0.1593
17514W        W32983   3.584  14.618  12.337 -0.1275  0.2422  0.2445
17515W        W32984  10.958   6.495   4.161  0.1478 -0.0649  0.0439
17516W        W32985  18.388  12.068   5.916  0.1693  0.1631  0.2914
17517W        W32986   4.967  13.739  13.897 -0.0624 -0.4827  0.0476
17518W        W32987  11.222   3.788  14.423  0.0954  0.3688 -0.2245
17519W        W32988   4.509   0.558  12.249 -0.1163 -0.2779  0.3149
17520W        W32989  12.967   7.128   0.988 -0.1524 -0.3918  0.0839
17521W        W32990  18.392   0.504  15.156  0.3389 -0.3646 -0.0658
17522W        W32991   6.570  12.122   0.672  0.1172 -0.0448  0.0082
17523W        W32992  18.294  15.634   1.938 -0.2914  0.2311  0.2115
17524W        W32993   9.995  10.131   2.966  0.0103  0.2221 -0.0033
17525W        W32994   9.357  10.564   4.999 -0.1831 -0.0411  0.0303
17526W        W32995   9.979   8.979   2.493 -0.0920  0.0085  0.1131
17527W        W32996   3.085  10.032  11.385  0.0359 -0.0122 -0.0800
17528W        W32997   8.164   9.464  15.101  0.2766 -0.1087 -0.0493
17529W        W32998  18.312  15.865   3.478 -0.2404 -0.0100  0.1407
17530W        W32999   2.383   5.506   5.103  0.1105  0.2503 -0.1988
17531W        W33000  15.896  15.334  15.780 -0.3496  0.1126  0.1342
17532W        W33001  12.842   9.388  15.429 -0.2633  0.0408  0.1726
17533W        W33002   8.771  17.282  11.313 -0.1115  0.3634 -0.0495
17534W        W33003   5.531   2.503   5.045 -0.1353  0.1181 -0.0253
17535W        W33004   1.996  18.032  13.980  0.0436 -0.1703 -0.1257
17536W        W33005   6.793   9.450  10.975  0.0986 -0.1386  0.1710
17537W        W33006   2.778  14.448   0.725  0.1213  0.2074  0.2123
17538W        W33007   4.907  12.532  11.350  0.0163 -0.2804 -0.1811
17539W        W33008   7.346   5.397   4.795  0.1067 -0.1035  0.0541
17540W        W33009   6.599  11.596  11.226  0.0793 -0.0388 -0.1008
17541W        W33010  17.629  16.472  11.278  0.0107 -0.0409  0.2334
17542W        W33011   2.840  17.684   0.238 -0.0696 -0.3374 -0.0021
17543W        W33012  10.043   6.811   1.459  0.3062  0.1755 -0.1297
17544W        W33013  17.863  14.843  11.568 -0.1812 -0.2423 -0.1607
17545W        W33014   4.104   2.248   1.160  0.2531 -0.1508  0.0543
17546W        W33015  13.986  15.018   2.298  0.0109 -0.1712  0.1656
17547W        W33016   8.034   0.744  13.628  0.2209  0.1471  0.0966
17548W        W33017   2.805  12.991  12.255 -0.2465 -0.0148 -0.0026
17549W        W33018   9.451  15.600   5.097  0.0935  0.1829  0.0596
17550W        W33019   4.679   4.176  12.929 -0.2008  0.0524  0.0323
17551W        W33020   6.699   7.838   1.752  0.1924 -0.0995 -0.0893
17552W        W33021  11.630   4.756   4.276  0.1023 -0.2125 -0.0151
17553W        W33022   6.582  14.796   5.046  0.0321  0.3162 -0.0594
17554W        W33023  17.733  15.612   2.847 -0.0390 -0.1540 -0.0437
17555W        W33024   4.161   4.559  12.758 -0.0083  0.0292 -0.0962
17556W        W33025  12.958   8.568   5.303  0.2646  0.4819 -0.0418
17557W        W33026   3.896  12.909  11.605  0.0081  0.1358 -0.0912
17558W        W33027   0.603   6.472   4.905 -0.3330 -0.1474  0.3214
17559W        W33028  14.582  15.867   3.111 -0.0420 -0.2078  0.1897
17560W        W33029  10.772   9.714  11.441 -0.1451 -0.2470  0.2343
17561W        W33030  14.353   1.208   3.179  0.1719  0.0934  0.0905
17562W        W33031  16.273  12.181  10.276 -0.0448  0.1103  0.1411
17563W        W33032   8.642  10.041  14.156 -0.1930  0.2337  0.1968
17564W        W33033   1.912   2.760   5.148 -0.0512  0.0417 -0.1505
17565W        W33034  16.933   0.031   0.852  0.2118 -0.0262  0.0979
17566W        W33035   0.690   4.990   4.373  0.0669  0.2030  0.1388
17567W        W33036  15.922  17.356   0.943 -0.0816 -0.0161  0.2019
17568W        W33037   6.341   6.195   2.479 -0.0276  0.1159 -0.1434
17569W        W33038  16.548   7.176  10.582 -0.2162  0.1032 -0.0219
17570W        W33039  14.314  17.148   0.308 -0.1213  0.0058  0.2750
17571W        W33040  11.414  12.944   4.530  0.0018  0.2202 -0.1862
17572W        W33041  15.977  15.463  14.216  0.1492  0.1012  0.1151
17573W        W33042  10.318  14.042  14.998 -0.0520 -0.1431 -0.0239
17574W        W33043   2.165  16.567   1.726  0.1715 -0.1327 -0.4711
17575W        W33044  18.177  18.197   5.113 -0.2918  0.0423 -0.2715
17576W        W33045   1.564   1.608   6.016  0.2418  0.1503  0.0088
17577W        W33046  15.651  13.353   0.272  0.0809 -0.0116  0.0517
17578W        W33047   4.406  17.616   3.356  0.0216 -0.0368 -0.0380
17579W        W33048   0.811  10.346   3.370 -0.1910 -0.2036  0.0593
17580W        W33049   4.084   5.913   2.392 -0.2790  0.0537 -0.1136
17581W        W33050  13.493   6.221   2.898  0.0910  0.1037 -0.1439
17582W        W33051  12.073  11.330  12.250  0.2121  0.0772 -0.0276
17583W        W33052   4.498   7.534   0.652  0.0916 -0.2422 -0.2535
17584W        W33053   4.938   4.783  13.951 -0.3585 -0.1013  0.2580
17585W        W33054   8.699   4.015  11.843 -0.0503  0.1448  0.2704
17586W        W33055   5.498   1.430   1.218  0.0046 -0.0454  0.3225
17587W        W33056  13.572  15.207   1.737 -0.1106 -0.1509 -0.1275
17588W        W33057  10.154  13.228   4.635  0.3203  0.0907  0.0885
17589W        W33058   2.239   9.243   2.823  0.2637  0.3317 -0.0323
17590W        W33059   0.743   3.523   2.572 -0.0255  0.2109  0.0638
17591W        W33060  13.104  14.000   2.218 -0.1043 -0.2226 -0.1379
17592W        W33061  17.398   5.059  11.892  0.0812 -0.0566 -0.1904
17593W        W33062   5.999  14.247  15.569  0.4441  0.1188 -0.3617
17594W        W33063   9.579   4.841   3.154 -0.1483  0.1935 -0.1189
17595W        W33064   3.224   9.097  13.904  0.0050  0.0211  0.0017
17596W        W33065   6.843  15.159   4.774  0.1308 -0.0044  0.0636
17597W        W33066  14.631  14.866  12.045 -0.3920  0.4258  0.4533
17598W        W33067  17.502  12.740  10.072 -0.4585  0.2235  0.0202
17599W        W33068   5.293   5.820   1.107 -0.2566  0.1210 -0.3905
17600W        W33069  12.718   1.308   0.595  0.3867  0.2405 -0.0691
17601W        W33070  16.900   8.476  10.669 -0.1616  0.1136 -0.1558
17602W        W33071  10.158   3.109  15.695 -0.3372  0.1022  0.0403
17603W        W33072  15.187   7.076  14.062 -0.0387  0.0711 -0.1171
17604W        W33073   0.116   5.522  14.312 -0.0731 -0.0985 -0.3573
17605W        W33074   1.086  13.348  13.734  0.2636  0.2612  0.0024
17606W        W33075  16.819   6.210  12.400  0.1345 -0.0313  0.0313
17607W        W33076  13.413  11.194   1.476 -0.1667 -0.0866 -0.1558
17608W        W33077   1.054   6.287   4.775 -0.2536  0.1481  0.0908
17609W        W33078   6.692   9.499   5.478  0.0281 -0.1133 -0.1870
17610W        W33079   1.715  16.394  15.872  0.2342 -0.1678 -0.0543
17611W        W33080   6.776  11.064   0.809 -0.0060 -0.0523 -0.3664
17612W        W33081  13.944   2.940   2.434 -0.0287 -0.0357 -0.0800
17613W        W33082   6.769  12.795  15.622  0.1360  0.0896 -0.1310
17614W        W33083   3.065   8.068  11.335 -0.0164  0.1003 -0.1767
17615W        W33084  11.511  14.304  14.186  0.0116  0.0542 -0.0412
17616W        W33085   7.807  18.445   2.628  0.0915  0.1172  0.0252
17617W        W33086  16.072   3.490   0.807 -0.0406  0.0395  0.0398
17618W        W33087  10.915  14.256   1.046  0.0536  0.0767 -0.1816
17619W        W33088  11.821   9.291  10.706 -0.1956 -0.0250 -0.0271
17620W        W33089  16.905  13.777   2.502 -0.1062 -0.3751  0.1475
17621W        W33090   0.634  13.493  14.233  0.0479  0.3986  0.0408
17622W        W33091  13.373  18.346   5.520 -0.3571 -0.1119 -0.2866
17623W        W33092   4.058  12.707   5.202 -0.1314  0.1507  0.2188
17624W        W33093   9.431  14.409   1.415  0.1079 -0.4216 -0.0472
17625W        W33094   1.307   5.769   3.976  0.2311 -0.2274 -0.3325
17626W        W33095  12.101   9.524   2.753  0.0174  0.2479 -0.0122
17627W        W33096  17.670   8.043  15.604 -0.2858  0.0899 -0.0166
17628W        W33097  12.538   3.032   2.767 -0.0606  0.0705 -0.1884
17629W        W33098   2.282  16.930   0.156  0.0779 -0.0959  0.1491
17630W        W33099   9.747  10.636   1.919 -0.3910 -0.2995 -0.1462
17631W        W33100  12.115  16.002   1.808 -0.1905 -0.1233 -0.0933
17632W        W33101   1.969   4.695   1.465  0.0366  0.1347  0.2114
17633W        W33102   9.634   3.158  14.915 -0.2453 -0.0670  0.1985
17634W        W33103  17.792  18.036  15.162  0.0798 -0.2247  0.0770
17635W        W33104   8.104   7.439  15.309 -0.1471  0.0098  0.2144
17636W        W33105  13.946  13.492  14.905  0.1525  0.2512 -0.2552
17637W        W33106   8.291   8.782   3.922 -0.0601  0.0753 -0.1122
17638W        W33107   6.111  10.954   0.933 -0.0179  0.0277 -0.1237
17639W        W33108   0.539   4.061   5.001 -0.0622 -0.0690 -0.1817
17640W        W33109   8.251  10.988   1.777 -0.1988  0.0692 -0.2813
17641W        W33110   9.752   2.185  11.648  0.0614  0.2828 -0.0162
17642W        W33111   1.871   5.854  15.565  0.1600 -0.0378  0.0429
17643W        W33112   7.134   9.959   1.890  0.0870 -0.0500  0.0708
17644W        W33113   9.590  13.498  15.338 -0.1370  0.1267  0.0096
17645W        W33114   7.646   0.377  12.561 -0.1476 -0.0286 -0.2425
17646W        W33115  13.395  17.571  15.027 -0.0437  0.0649  0.1384
17647W        W33116   5.141   6.887   2.082 -0.4672 -0.3255  0.0357
17648W        W33117   5.368   4.052  14.109  0.0060 -0.3246 -0.4326
17649W        W33118   9.188  18.286  14.368  0.0625 -0.1657 -0.1428
17650W        W33119  17.658  18.438  12.366 -0.1876  0.1928  0.0580
17651W        W33120  12.041   3.882   5.001 -0.2576 -0.1530 -0.2157
17652W        W33121  16.119   1.782  12.127 -0.4972 -0.0928 -0.3527
17653W        W33122   7.988   1.290   2.539 -0.1833 -0.0459 -0.1302
17654W        W33123   6.371   0.560   3.456 -0.0735 -0.1433  0.0478
17655W        W33124  11.052   9.150   2.117 -0.0062 -0.5490  0.1307
17656W        W33125   4.940  17.106  15.417  0.2069 -0.1223 -0.0767
17657W        W33126   7.490   9.710   2.573 -0.1585 -0.4340 -0.1784
17658W        W33127  12.475   8.420  15.786 -0.0173  0.1534  0.0838
17659W        W33128  10.505  10.068   5.365 -0.2410  0.2485  0.0526
17660W        W33129  12.533   8.086  12.486 -0.2333 -0.2504 -0.1752
17661W        W33130  17.686  15.736   3.352  0.2121 -0.0710 -0.2312
17662W        W33131   6.129   5.423  11.883  0.1531  0.0201 -0.0674
17663W        W33132  13.096   4.380  13.540  0.2744 -0.3393 -0.2723
17664W        W33133  11.301   5.904   2.085  0.3834  0.1231  0.3933
17665W        W33134  14.610  17.014  15.403  0.0136  0.0308 -0.0007
17666W        W33135   3.602  17.901   0.746  0.1664 -0.1706  0.0713
17667W        W33136  12.726   3.270  11.725 -0.1067 -0.1556 -0.1536
17668W        W33137   5.500   8.996   5.408 -0.2097  0.3047  0.1892
17669W        W33138   9.557   1.262   4.981  0.3122  0.2264 -0.1056
17670W        W33139  15.068   5.475  11.721  0.1626 -0.2043 -0.0529
17671W        W33140   0.476   9.208  14.876 -0.1377 -0.1191 -0.3334
17672W        W33141   5.929  13.796  15.658  0.0542  0.1691 -0.0551
17673W        W33142  17.111   4.324   3.165  0.0098  0.0121  0.0080
17674W        W33143   8.123   3.699   5.087 -0.0662 -0.3598  0.2466
17675W        W33144  16.981   0.346  12.071 -0.2669 -0.1219  0.0163
17676W        W33145   1.232  18.211  10.910  0.0525  0.0702  0.1432
17677W        W33146   0.916  10.241  11.555 -0.1909  0.3276 -0.2122
17678W        W33147  14.828  17.271   3.516 -0.2537  0.0314  0.0969
17679W        W33148   3.363  17.839  13.435  0.3783 -0.0075 -0.0993
17680W        W33149  10.086  17.348   5.544  0.1308 -0.2335 -0.1673
17681W        W33150  16.930   9.121   0.924  0.0904 -0.0922  0.0472
17682W        W33151  13.750   5.571   3.001  0.1011  0.0227  0.0338
17683W        W33152   7.881   6.174  11.061  0.0437  0.1508 -0.3265
17684W        W33153   7.676  17.850   0.754 -0.1060  0.1539  0.0567
17685W        W33154  18.194   2.033  12.674  0.1507 -0.2101 -0.0145
17686W        W33155   9.459   8.681  11.006 -0.1714  0.1190  0.1580
17687W        W33156   9.607   2.204   0.372 -0.1902  0.2047  0.1369
17688W        W33157   2.448  12.989   2.588 -0.0846  0.2504  0.0149
17689W        W33158  12.869   8.846   1.108  0.2317  0.0846  0.0477
17690W        W33159  14.469   7.931  14.222 -0.0935  0.1063 -0.0706
17691W        W33160   3.930  15.412   5.746  0.1469  0.0398 -0.1546
17692W        W33161   0.657  13.408  10.549 -0.2217  0.1015  0.0201
17693W        W33162  17.368  13.891  13.532  0.3504  0.1658  0.0130
17694W        W33163  18.011  17.986   0.867 -0.3602 -0.0912 -0.0111
17695W        W33164   3.931  11.366  12.664 -0.2483  0.2578 -0.1581
17696W        W33165   5.035   3.042   2.407  0.2468 -0.2298  0.1605
17697W        W33166  17.311  12.408  15.003  0.2221  0.1451  0.0464
17698W        W33167   3.945  18.209   2.411  0.0077  0.1863  0.1185
17699W        W33168  10.887   7.931   1.319  0.1011  0.1528 -0.3044
17700W        W33169   5.631   5.292  12.191 -0.0259 -0.0240  0.3051
17701W        W33170   2.079  17.003   0.600  0.0267 -0.1645  0.1748
17702W        W33171  11.578   5.332  14.289  0.0285 -0.1677 -0.1435
17703W        W33172   5.130   6.679  15.801  0.2583 -0.1038 -0.2124
17704W        W33173   4.906  12.238   2.956 -0.0111 -0.0476  0.1008
17705W        W33174   2.534   8.258  10.422 -0.1649 -0.0039 -0.1222
17706W        W33175   7.130  17.049   4.793  0.0762  0.0759 -0.4408
17707W        W33176   2.322   5.347  11.582 -0.0465 -0.0609 -0.1845
17708W        W33177   8.224  15.116  13.874  0.2545 -0.4411 -0.1248
17709W        W33178  10.505  14.982   2.522 -0.1559 -0.0427 -0.0438
17710W        W33179   2.600  10.466   1.197 -0.4098  0.1042  0.3121
17711W        W33180  13.525   8.076  11.681  0.2342 -0.0721  0.0700
17712W        W33181   1.764   8.737   1.099  0.2351 -0.1567  0.1070
17713W        W33182  18.010   4.336  11.575  0.1586 -0.3082  0.0096
17714W        W33183  15.222  10.791  11.846 -0.0692  0.0479 -0.0425
17715W        W33184  11.120   8.464  14.776  0.1756  0.0389  0.0815
17716W        W33185   2.538   2.606   1.743 -0.0226 -0.2625 -0.1988
17717W        W33186  16.210   8.257   1.618  0.4330  0.0331 -0.2803
17718W        W33187  17.441  15.977  11.167  0.2845  0.2436 -0.1335
17719W        W33188   0.573  18.293  15.227  0.2828  0.1069 -0.1806
17720W        W33189   7.643   8.392  15.849 -0.0547 -0.0780  0.0998
17721W        W33190   7.392   3.903  11.856  0.1105 -0.0101 -0.0320
17722W        W33191  17.457   6.034  12.136  0.0238  0.1687  0.0380
17723W        W33192   3.269   7.558   4.444 -0.0321  0.1601  0.1558
17724W        W33193  16.318  17.283   0.125  0.1412  0.0838 -0.0738
17725W        W33194  10.161   4.908   2.339  0.1392  0.0414 -0.0240
17726W        W33195   7.522   2.146  11.486  0.0712  0.2784 -0.0543
17727W        W33196  17.061  12.912   2.363  0.0559 -0.1249 -0.0766
17728W        W33197   5.011   0.129  12.128 -0.0860  0.0746  0.0786
17729W        W33198  12.873  13.715  15.398  0.2920  0.2570 -0.3121
17730W        W33199   3.110  17.333   5.416 -0.1225 -0.0576  0.1470
17731W        W33200  15.189  15.188   5.084  0.2018 -0.3570 -0.0070
17732W        W33201  15.226   3.429  12.021  0.2818 -0.3448  0.2057
17733W        W33202   5.597   7.649   0.431  0.1488  0.0268  0.1661
17734W        W33203   1.162   7.782   5.519 -0.0519 -0.2466 -0.0336
17735W        W33204   4.796  10.187  13.745  0.0303  0.1352  0.1029
17736W        W33205   3.269   5.310   4.660  0.2752 -0.0923 -0.0646
17737W        W33206   3.498   1.818   2.300  0.2436  0.2504  0.1599
17738W        W33207   4.546   2.356   5.111 -0.0725  0.0618 -0.0445
17739W        W33208  18.270  17.722   4.906 -0.3145  0.2527  0.0387
17740W        W33209  15.287   7.186  14.616  0.2681 -0.0713 -0.2583
17741W        W33210   2.881  15.992   1.901 -0.1815  0.2163  0.1804
17742W        W33211  17.468   9.333  15.095  0.1696 -0.0946  0.0377
17743W        W33212   3.745   1.550   0.156 -0.2028  0.3985  0.2464
17744W        W33213   8.485  16.335   5.255 -0.2198  0.0980 -0.0510
17745W        W33214   0.333  10.431   1.484 -0.3075 -0.0175  0.0956
17746W        W33215  10.519   3.612  14.661  0.0966 -0.1669  0.0812
17747W        W33216  17.819  16.983   1.065  0.0505 -0.0365 -0.0076
17748W        W33217   5.446  14.461  13.865  0.1261  0.0337  0.1217
17749W        W33218  16.182   3.941  11.069  0.0741  0.1186 -0.0351
17750W        W33219   6.973   9.648   2.508  0.1284  0.0311 -0.2751
17751W        W33220  11.853  12.566  11.849 -0.2486 -0.2063  0.1180
17752W        W33221  15.442  16.006   4.271 -0.0326 -0.1295 -0.1955
17753W        W33222  10.771  15.615  14.891 -0.0098 -0.0291 -0.4184
17754W        W33223   7.565   4.569  11.278  0.3114 -0.0057 -0.0981
17755W        W33224   3.395   9.733   0.153  0.2410  0.0082  0.0801
17756W        W33225  17.372   2.331   4.406  0.1348  0.2857 -0.4010
17757W        W33226  13.320   3.079  12.425  0.3698  0.1516 -0.2579
17758W        W33227   4.424   8.858  13.184 -0.0216  0.0028  0.3036
17759W        W33228  15.566   6.572   4.050 -0.0279 -0.3504 -0.1488
17760W        W33229  11.127  17.244   4.570  0.1547  0.1314  0.1247
17761W        W33230  11.187  15.514  12.428  0.0296 -0.0951 -0.1254
17762W        W33231  15.892   3.298  14.419 -0.0422  0.0606  0.1110
17763W        W33232   5.255   6.256   5.485 -0.2477 -0.0296  0.0627
17764W        W33233   5.149   6.785  14.799  0.0730  0.0357  0.0135
17765W        W33234   5.984  12.518   4.865  0.3104  0.1456 -0.0112
17766W        W33235  12.985   8.974   3.145  0.0040  0.1237 -0.1781
17767W        W33236   5.023  17.712   1.264  0.2527  0.2216 -0.1664
17768W        W33237   5.649  12.471  15.487  0.0182 -0.1292  0.3064
17769W        W33238   3.881  15.593   4.951  0.0963 -0.0756 -0.1379
17770W        W33239  10.148   9.529   3.164 -0.0003  0.3799  0.2334
17771W        W33240   7.051  15.470   0.029 -0.0364 -0.0500  0.1374
17772W        W33241   8.747  14.851  12.149 -0.4746  0.0550  0.0859
17773W        W33242   4.710  12.813   2.225 -0.1652 -0.2325  0.2936
17774W        W33243  11.182   3.829   0.964  0.0757  0.0346 -0.3166
17775W        W33244  10.699  13.482  14.713  0.0831  0.1117 -0.0384
17776W        W33245   8.360   7.624  14.531 -0.1043  0.0210 -0.2267
17777W        W33246   7.993  11.090  12.934 -0.2131  0.0304  0.1851
17778W        W33247  11.734   8.460   3.032 -0.0167  0.2729  0.0433
17779W        W33248   7.169  13.853  12.761 -0.1321 -0.1042 -0.0304
17780W        W33249  11.787   8.392  13.768 -0.1180  0.0510 -0.2417
17781W        W33250   0.166   6.385  14.078  0.1992 -0.1712  0.0189
17782W        W33251   6.163   3.687   1.457 -0.0529  0.1017 -0.3238
17783W        W33252   7.465  14.709   5.434 -0.0484 -0.0033  0.0778
17784W        W33253  15.995   5.658   2.903 -0.1950  0.3251  0.1345
17785W        W33254   1.364   3.907  12.316  0.1468 -0.5338  0.2838
17786W        W33255   8.364  10.001   3.666  0.1454 -0.1586  0.1853
17787W        W33256   1.285  12.519  11.477  0.0545 -0.2263  0.0203
17788W        W33257   3.933   9.986   2.310  0.1102  0.2927 -0.1768
17789W        W33258   3.760  13.445   0.532  0.2061 -0.0630 -0.0821
17790W        W33259   0.216   7.078  13.061  0.0295  0.2819 -0.3276
17791W        W33260  12.376   3.579   5.351  0.0161 -0.1890  0.0593
17792W        W33261  18.313   8.862   1.932 -0.1223 -0.1297  0.1458
17793W        W33262   3.816  15.966  11.423 -0.1207  0.0524 -0.0224
17794W        W33263   8.911  11.619   5.613  0.0139  0.1062  0.2225
17795W        W33264  12.209   5.686  12.712  0.2981 -0.0378 -0.0431
17796W        W33265   0.984   9.865   2.469 -0.1009 -0.4777 -0.0280
17797W        W33266   2.131  11.356   0.617  0.2614 -0.2225  0.0795
17798W        W33267   8.236   1.522  11.197 -0.2960 -0.2604 -0.2660
17799W        W33268  12.131  16.806   1.661 -0.1136  0.1791 -0.1496
17800W        W33269  11.687   4.405   0.165 -0.0753  0.1928 -0.0711
17801W        W33270  15.765   5.768   4.233  0.2263  0.1352  0.1074
17802W        W33271   4.307   0.561   4.923  0.0893  0.4715  0.0308
17803W        W33272  12.090  18.451  11.225 -0.0326 -0.2333 -0.3055
17804W        W33273   1.858   0.655   6.140 -0.0625 -0.0086 -0.0639
17805W        W33274  15.981   3.780   3.104 -0.2442 -0.2534  0.2068
17806W        W33275   6.803  12.405  15.292  0.2974 -0.1427 -0.1398
17807W        W33276  12.516  17.380  15.305 -0.3734  0.0077 -0.0413
17808W        W33277  12.775   8.076  13.431  0.2037  0.0895 -0.0004
17809W        W33278   8.564  11.832   3.448 -0.3513 -0.2183  0.1339
17810W        W33279  10.191  13.912   1.669  0.0303  0.0177  0.0265
17811W        W33280  16.716   4.611  15.674 -0.1669 -0.1971  0.0250
17812W        W33281  14.254  10.018  10.493  0.0218  0.1668  0.1811
17813W        W33282  16.129   8.019  12.440 -0.2412  0.1929  0.1819
17814W        W33283   5.769   6.282  15.125 -0.0736 -0.1439 -0.2560
17815W        W33284  18.018   9.125   0.215  0.0059  0.0925 -0.1591
17816W        W33285  12.508   3.667   1.773  0.0488  0.4983  0.0254
17817W        W33286  12.047  17.956  11.344 -0.1590  0.1522  0.0684
17818W        W33287   2.630  13.480   5.643 -0.4056 -0.0092  0.1396
17819W        W33288  15.991  16.486   0.373 -0.1138  0.0566 -0.0428
17820W        W33289   9.475  16.739  12.281 -0.2155 -0.3760  0.3923
17821W        W33290  10.680  14.253  14.098 -0.0287  0.0094  0.0602
17822W        W33291   9.148  13.134  14.157 -0.1879 -0.1532  0.1720
17823W        W33292   1.302  16.218  11.588 -0.1225  0.0373 -0.1314
17824W        W33293  15.998   2.057   2.586  0.3655 -0.2270 -0.1521
17825W        W33294   2.220  14.411   5.391 -0.1755 -0.1074 -0.2724
17826W        W33295   1.215  12.256  12.762 -0.5224 -0.0210 -0.0339
17827W        W33296  11.292  18.250  15.301 -0.0088  0.0201 -0.0843
17828W        W33297  13.835  15.276   6.147  0.0484  0.1961  0.2349
17829W        W33298  14.749   8.921  15.867  0.2665  0.4100  0.1983
17830W        W33299  10.296  13.639  11.059 -0.0012 -0.4982 -0.0507
17831W        W33300   3.080   5.812  10.988  0.1153 -0.2735  0.1751
17832W        W33301   4.997   3.758  13.653  0.0973  0.2720  0.0599
17833W        W33302   0.999  12.497   0.369  0.1482  0.3216  0.1571
17834W        W33303  10.391   8.478  11.633 -0.4538  0.0702  0.0570
17835W        W33304   7.280   6.395   4.337  0.0240 -0.1229 -0.2114
17836W        W33305   7.401  11.576   4.921 -0.0447  0.1406  0.0818
17837W        W33306  14.845   6.574  11.780 -0.2271  0.1558  0.2656
17838W        W33307   6.007  10.870   4.715 -0.0070 -0.0347  0.0379
17839W        W33308   3.645  14.560  12.975  0.1284  0.1712 -0.1245
17840W        W33309   6.360  11.918  14.515  0.2786 -0.0425 -0.1703
17841W        W33310  17.591  11.685   4.554 -0.1572  0.0850 -0.0080
17842W        W33311  10.540  17.863  15.247 -0.0225  0.0897  0.0513
17843W        W33312  17.296  11.535  14.465 -0.1782 -0.1231  0.0656
17844W        W33313   6.443   9.666   4.282  0.0938 -0.1258 -0.0349
17845W        W33314   4.058   9.799  10.054 -0.2749 -0.0916 -0.2964
17846W        W33315   2.774   1.042  15.121  0.1661 -0.1643  0.0128
17847W        W33316  14.741   4.299   0.338 -0.0952 -0.0431 -0.0197
17848W        W33317  14.196  18.135   0.691  0.0629  0.1021 -0.1871
17849W        W33318   3.311   3.862  11.889  0.1497 -0.0852  0.0940
17850W        W33319  13.535   7.955   3.390  0.1571  0.1145 -0.2430
17851W        W33320  17.858  13.301   4.726 -0.1668  0.1280 -0.0589
17852W        W33321  11.786   5.826   1.179  0.0825  0.1190 -0.0587
17853W        W33322   8.184   6.083   1.669  0.1352 -0.1147  0.0992
17854W        W33323  14.940  17.140  10.066  0.5397 -0.1731 -0.4059
17855W        W33324  13.340   4.751  15.773  0.1075  0.0320 -0.2591
17856W        W33325  17.093   5.291  15.773 -0.0503  0.1591 -0.1779
17857W        W33326   5.246   2.707  14.149  0.2775  0.3270 -0.1752
17858W        W33327  10.291   9.593   1.266 -0.0928 -0.0651  0.1074
17859W        W33328   1.308   7.481   1.823 -0.0862 -0.0164  0.1494
17860W        W33329   2.809  16.232   0.617  0.0171 -0.0709  0.0863
17861W        W33330  17.082  11.282  12.359 -0.0611 -0.3526 -0.1544
17862W        W33331   4.820  14.517   1.317 -0.2162  0.2221  0.2145
17863W        W33332   7.803  13.519   2.570 -0.0204 -0.0451 -0.1896
17864W        W33333  11.074   0.358  14.527 -0.2435 -0.1425  0.2158
17865W        W33334   6.646   8.813   4.611 -0.3341  0.1033  0.1604
17866W        W33335   9.635  14.907   1.162 -0.0687  0.0671 -0.1600
17867W        W33336  17.262  15.728  14.332 -0.0597  0.2479  0.1625
17868W        W33337   7.389  10.458  14.221 -0.0544  0.1447  0.1115
17869W        W33338   6.142  15.010   3.759 -0.0767 -0.0408  0.1548
17870W        W33339  17.672  11.954   3.513 -0.0842 -0.5496 -0.2088
17871W        W33340  12.377   4.604  11.650  0.2516  0.1060  0.3012
17872W        W33341   7.042  13.131   3.899 -0.3065 -0.0350 -0.1211
17873W        W33342   4.827  16.297  13.114  0.0737  0.1643 -0.3128
17874W        W33343   0.765  11.229  13.312  0.0677  0.1641  0.3559
17875W        W33344   8.122   9.267   0.054 -0.0274  0.1072 -0.1169
17876W        W33345   2.104   7.518   5.594  0.0976 -0.1401 -0.2664
17877W        W33346   3.812   2.475  14.557  0.0164  0.2476 -0.2722
17878W        W33347   8.386   6.308  15.180  0.0805  0.3296  0.3496
17879W        W33348  14.345   1.047  11.907  0.1950 -0.1911  0.0003
17880W        W33349   9.970  10.753   0.008  0.0712 -0.0093  0.2184
17881W        W33350   1.204  17.580  12.832  0.1303  0.1249  0.1229
17882W        W33351  10.532   1.299   1.579  0.0690 -0.1686  0.4066
17883W        W33352   7.362  18.402   0.868  0.3062 -0.1920  0.1540
17884W        W33353   8.286  11.946   0.294 -0.0175 -0.3203 -0.2785
17885W        W33354  17.429   6.812  12.326 -0.3970  0.2882  0.5422
17886W        W33355  10.342   4.368   4.317 -0.2541 -0.0397  0.0551
17887W        W33356   4.949  18.185   1.873  0.2195 -0.1638  0.1195
17888W        W33357   8.269   7.116   2.880  0.1132  0.1378  0.1386
17889W        W33358  10.184   0.820  13.794  0.0322 -0.2596  0.2153
17890W        W33359   7.463  10.551   2.369 -0.0147  0.0072 -0.0879
17891W        W33360   2.162  13.827   4.372 -0.1249  0.3704  0.0545
17892W        W33361   6.302  12.821  11.237  0.0005 -0.0356 -0.0398
17893W        W33362  11.735  10.408  13.523 -0.0566  0.1460  0.1888
17894W        W33363   2.308   9.798   0.803 -0.1076  0.0603  0.0295
17895W        W33364   2.256   8.560   1.033 -0.2303  0.0096  0.0053
17896W        W33365  10.618   5.404  14.047  0.2933 -0.3046 -0.0562
17897W        W33366   0.898  16.249  15.094 -0.2433 -0.1767  0.0601
17898W        W33367  18.280   4.316  15.496 -0.2950  0.2394 -0.0955
17899W        W33368  18.373   0.617   3.230  0.0834  0.1696  0.0922
17900W        W33369  15.343  11.099   4.836 -0.0165  0.4424  0.0544
17901W        W33370   0.395   2.414   0.090  0.0467 -0.0981  0.1712
17902W        W33371  16.028   5.452   3.947 -0.5135 -0.0576 -0.0792
17903W        W33372   8.963   2.413   1.160  0.0522  0.0612  0.1906
17904W        W33373   0.578  15.903  12.426 -0.1819  0.1226 -0.1294
17905W        W33374  14.302   0.045  11.624 -0.1148  0.0155 -0.3148
17906W        W33375  12.610  14.053  11.014 -0.1092 -0.0537  0.0615
17907W        W33376  15.338  10.165  12.388 -0.0328  0.2076  0.0597
17908W        W33377  12.723   8.491   3.896  0.0426 -0.1231  0.0473
17909W        W33378  13.062   9.678   4.159 -0.0855 -0.3177 -0.3284
17910W        W33379   8.300   6.616   4.943  0.0084 -0.1365 -0.2271
17911W        W33380  14.781  11.168  13.179  0.0066 -0.0316 -0.4637
17912W        W33381   8.586   4.465   0.826  0.0290  0.2302 -0.4110
17913W        W33382   1.511  13.249  14.355  0.1255 -0.3594 -0.0221
17914W        W33383   0.259  17.487  15.721 -0.1180  0.0802 -0.1686
17915W        W33384   7.214   6.133   0.412 -0.1874 -0.1262 -0.2011
17916W        W33385  16.160  16.773  13.238  0.1438 -0.2843 -0.1820
17917W        W33386   8.031  14.256   0.699 -0.0290  0.3278  0.2404
17918W        W33387   3.179  11.849   4.096 -0.2489  0.2244 -0.1195
17919W        W33388   5.362   9.266  11.625  0.0799 -0.1477 -0.0231
17920W        W33389  13.502   3.100  13.613 -0.0492 -0.1152  0.1276
17921W        W33390   8.823   8.559  11.447 -0.1645  0.2258 -0.1169
17922W        W33391  10.272   1.275   2.674  0.1032 -0.2947 -0.0260
17923W        W33392  17.102  10.609   3.946  0.0081  0.0194 -0.6506
17924W        W33393   4.169  10.149   5.404 -0.0815 -0.2854  0.3000
17925W        W33394   9.792   7.760   0.383 -0.0368  0.0601 -0.1438
17926W        W33395  15.629   6.827   0.344  0.4526 -0.1296  0.1564
17927W        W33396  18.299   6.095   3.128 -0.0600 -0.2520 -0.0253
17928W        W33397  12.402  11.660   0.115 -0.1726  0.5754  0.0164
17929W        W33398  14.407   3.686   2.921  0.0014 -0.0680  0.0848
17930W        W33399   0.620  15.222  11.168 -0.2656 -0.3715  0.2182
17931W        W33400  12.218  16.633   3.995  0.1239 -0.0800  0.0575
17932W        W33401   8.600   5.219  11.995  0.0043 -0.0617 -0.0445
17933W        W33402  13.433  11.674   9.957  0.2140  0.1613 -0.0406
17934W        W33403   9.523  11.530  15.683  0.1530 -0.0365  0.2208
17935W        W33404   1.993  12.017  14.251 -0.0979 -0.5489 -0.2737
17936W        W33405   0.392  10.499   2.406  0.1958 -0.2472  0.2007
17937W        W33406  18.007   7.385   3.197 -0.0439  0.2544  0.1940
17938W        W33407   9.628   0.951   1.773  0.0222  0.0620  0.1654
17939W        W33408  16.130   5.691  14.134 -0.1495 -0.0752  0.0366
17940W        W33409   5.488   3.390   4.999 -0.2103  0.1567  0.0445
17941W        W33410  13.978  13.564   5.445 -0.1499 -0.0663  0.1044
17942W        W33411  18.138  12.191  13.159 -0.0244 -0.1247  0.0541
17943W        W33412  15.819  16.409  10.004 -0.2609  0.0283  0.1521
17944W        W33413  17.628   0.092   5.318  0.2691 -0.1607 -0.0363
17945W        W33414   8.460  14.732   3.164  0.1306 -0.0474 -0.1220
17946W        W33415   2.165   0.649   5.002 -0.0057 -0.0051 -0.1620
17947W        W33416   3.115   4.381  11.967  0.0420 -0.0068 -0.1062
17948W        W33417  14.448   2.521   4.940 -0.1794  0.0473 -0.4798
17949W        W33418   4.738  10.946   5.108 -0.0716  0.1252 -0.4936
17950W        W33419   6.744   6.999   0.453 -0.0524  0.1022 -0.0967
17951W        W33420   0.948   2.089  11.478  0.1021 -0.0031  0.0221
17952W        W33421  15.454   9.909   1.527  0.1391 -0.0250  0.0802
17953W        W33422   9.127  13.120   3.456 -0.0445  0.1562 -0.0586
17954W        W33423  18.353   2.900   5.529  0.0024 -0.0183 -0.0316
17955W        W33424  16.129   5.377   4.469 -0.0268 -0.1095 -0.2225
17956W        W33425  17.218   9.070   4.955  0.1674  0.0230 -0.2056
17957W        W33426  11.745   0.042   4.807 -0.1717  0.0570  0.0472
17958W        W33427   1.174   5.600   0.733  0.2199 -0.0869  0.0446
17959W        W33428   0.132   7.425   4.121 -0.1002  0.0255 -0.1337
17960W        W33429   7.978  17.544  15.190  0.2664 -0.2862 -0.0006
17961W        W33430  15.756   4.784   3.264 -0.0057  0.1335 -0.2404
17962W        W33431   9.740  14.065  15.771  0.2713  0.0193  0.1136
17963W        W33432   8.184   5.109   0.504  0.1240 -0.1219 -0.3013
17964W        W33433   9.158  13.870  13.811 -0.0009 -0.1455 -0.0066
17965W        W33434  11.175  14.047  13.928 -0.0636 -0.0856 -0.1739
17966W        W33435   1.971  12.089   1.037  0.0413 -0.0362 -0.1608
17967W        W33436   8.004  17.585  12.517 -0.4016  0.1061  0.1356
17968W        W33437   6.070  14.823   5.096 -0.1795  0.0711  0.3178
17969W        W33438  11.162  12.410   3.489 -0.2474 -0.1864  0.0327
17970W        W33439   7.868   9.729  12.692 -0.1056 -0.2057  0.2416
17971W        W33440  10.801   1.088   2.860  0.0106  0.0394  0.1785
17972W        W33441   3.406  14.935   1.212 -0.1645  0.6663 -0.0919
17973W        W33442   0.823  17.830   1.261 -0.0101 -0.2520 -0.3895
17974W        W33443   8.528  10.014   0.318 -0.1305  0.1692  0.0254
17975W        W33444  17.906  14.777   0.632  0.1050 -0.1838  0.0862
17976W        W33445   9.425   2.612   1.898  0.1694  0.1964  0.1328
17977W        W33446  10.554  12.010   1.639 -0.0476  0.2252 -0.0795
17978W        W33447   6.733  17.728   4.126  0.0071  0.1384 -0.3872
17979W        W33448   7.043  12.865   3.407  0.1853 -0.0495  0.4924
17980W        W33449   5.799  11.284  15.499  0.0177 -0.0431 -0.2446
17981W        W33450  16.418   4.375  13.938  0.2098 -0.1538 -0.2095
17982W        W33451  17.554   2.549   2.481 -0.1395 -0.2216 -0.0084
17983W        W33452   1.920  11.322  11.612 -0.2651 -0.5741  0.0745
17984W        W33453   3.242   9.438   4.240  0.2035  0.0618  0.3680
17985W        W33454   7.971  10.339  13.898  0.1121 -0.0329 -0.1155
17986W        W33455   7.818  13.163   3.293  0.1232  0.0064 -0.2183
17987W        W33456  16.467  17.516   2.312  0.3288  0.3636 -0.2240
17988W        W33457   5.128  16.687  14.932  0.4435  0.0021  0.1805
17989W        W33458  16.417   3.155  13.744  0.3262 -0.2234  0.3638
17990W        W33459   3.456   1.109   5.175  0.0070  0.0693 -0.2362
17991W        W33460   1.903  17.631  15.015 -0.1566 -0.0760  0.0935
17992W        W33461  14.804  12.302  12.341  0.2749 -0.2005 -0.0677
17993W        W33462   6.513  13.975  14.675  0.0884 -0.3655 -0.1566
17994W        W33463  14.138  13.003  10.717 -0.0893 -0.1468  0.1566
17995W        W33464  10.106   6.974   2.499 -0.1022 -0.0291 -0.2268
17996W        W33465  11.737  14.672   0.008  0.0221 -0.0327  0.1398
17997W        W33466   8.785   6.741  11.957  0.2639 -0.1282 -0.0781
17998W        W33467   3.648  11.021  12.972  0.1026 -0.0868  0.0280
17999W        W33468  11.802  16.918   2.050  0.4038 -0.2560 -0.1174
18000W        W33469  13.731   6.079  14.087 -0.3572  0.0940 -0.0793
18001W        W33470   7.301  13.723   4.470  0.1857  0.2486  0.0464
18002W        W33471   5.656  11.526   3.625 -0.0940 -0.0781  0.1679
18003W        W33472  15.766  18.376   9.919 -0.0246 -0.0112 -0.2408
18004W        W33473  10.660  17.440   3.130 -0.1119  0.1518  0.1126
18005W        W33474  11.987   9.360   4.086 -0.2234 -0.1392 -0.0915
18006W        W33475   1.139  11.479  11.478 -0.0798 -0.1887  0.1594
18007W        W33476  14.264  15.846  14.299 -0.0785 -0.1590  0.1945
18008W        W33477  16.157   2.840  10.786 -0.0773 -0.2355 -0.1828
18009W        W33478  14.616   9.081   5.060  0.1302 -0.0363  0.0238
18010W        W33479  10.739   7.547  14.017  0.0013 -0.0926 -0.1137
18011W        W33480  12.686   2.375   0.581  0.4337  0.1147 -0.0518
18012W        W33481  13.822  18.402   0.989  0.2972  0.3275  0.2905
18013W        W33482  15.612  11.141  12.110 -0.4970  0.2143 -0.3214
18014W        W33483  15.346  11.617   4.822  0.1251  0.1096  0.2463
18015W        W33484   9.263  17.476  14.351 -0.3368  0.2293 -0.0088
18016W        W33485   1.816  12.292   5.236 -0.1190  0.0528 -0.0003
18017W        W33486   4.505   7.077  13.690 -0.2212 -0.3974  0.0010
18018W        W33487   6.178  12.180   5.260  0.1690  0.1206  0.1922
18019W        W33488  12.801  13.495   0.528  0.0851 -0.1689  0.0157
18020W        W33489  11.617   1.530   3.531  0.4705 -0.1881  0.2317
18021W        W33490   5.120  11.494  14.705 -0.2076  0.2922 -0.1883
18022W        W33491   7.027   7.145  11.849 -0.0536 -0.0084  0.1551
18023W        W33492   4.557  13.004   0.658  0.1807  0.2484  0.0874
18024W        W33493  10.882   5.260   2.669  0.0122 -0.1219  0.0348
18025W        W33494   4.620   5.912   4.587  0.3923  0.1993  0.4435
18026W        W33495  13.138  17.142  13.500  0.0571 -0.4891  0.0239
18027W        W33496   3.677   9.430   5.351 -0.3996  0.1812  0.2790
18028W        W33497   9.195  15.260   5.351  0.0597 -0.2942 -0.0250
18029W        W33498  12.244   9.950   5.235 -0.1530  0.2178 -0.0729
18030W        W33499  11.514  17.285   0.889  0.3141  0.0133  0.2184
18031W        W33500   9.842  11.703  13.048  0.1002 -0.3663  0.3480
18032W        W33501  12.499   8.599   5.027  0.0463  0.0526 -0.0505
18033W        W33502  16.632   8.737  14.785 -0.2081 -0.1523 -0.1923
18034W        W33503   1.217  10.344   1.616 -0.0071  0.3054  0.0537
18035W        W33504   1.445  17.581   6.586  0.0949 -0.1518 -0.1138
18036W        W33505  15.102   2.756  10.965 -0.0001  0.0235 -0.2767
18037W        W33506   4.790  11.953  14.864  0.0820 -0.0719  0.2108
18038W        W33507  16.846   2.686  14.827 -0.0503 -0.0729  0.1676
18039W        W33508   3.863   0.743  14.387  0.0671 -0.0996  0.0929
18040W        W33509  16.063  14.720   5.084  0.0553 -0.4400 -0.0136
18041W        W33510   8.300  10.490  11.965 -0.2130 -0.2701  0.2760
18042W        W33511  15.485  12.727   2.762  0.5582  0.3256  0.4988
18043W        W33512   3.209   7.177   3.907  0.2788  0.1986  0.1668
18044W        W33513   5.654   1.138  12.612  0.1061 -0.3280  0.2172
18045W        W33514  12.551   7.774   3.409 -0.1690  0.2440 -0.4175
18046W        W33515  18.347   3.896   5.367 -0.0710  0.1173  0.2175
18047W        W33516  12.444   4.829   0.053  0.1516 -0.0158 -0.1313
18048W        W33517  15.469  16.911  15.353  0.1938  0.1615 -0.0020
18049W        W33518   4.231   9.086   3.351  0.0518  0.1731  0.1139
18050W        W33519   0.140   0.750  11.486 -0.2383  0.2488  0.1833
18051W        W33520  14.091   8.403  10.947 -0.0640  0.2407  0.0535
18052W        W33521   5.963   3.511  13.270  0.0495 -0.0446 -0.2341
18053W        W33522  10.031   2.408   0.148 -0.4261 -0.0581  0.0882
18054W        W33523  13.500   3.901   1.115 -0.2103  0.3928 -0.2366
18055W        W33524  15.055   3.213   3.877 -0.0777 -0.1634  0.2124
18056W        W33525   5.719   1.063   0.529 -0.0886  0.0262  0.0316
18057W        W33526  14.780   3.355  13.040 -0.2637  0.1359 -0.0120
18058W        W33527  15.754  15.910   4.703 -0.0659  0.2254  0.3957
18059W        W33528  17.928   2.193   0.363 -0.0642 -0.2196  0.0993
18060W        W33529  17.483   6.387   0.181  0.2228 -0.1230 -0.1035
18061W        W33530  18.255   5.018   1.062 -0.1180 -0.1789 -0.0478
18062W        W33531   1.655  15.461  15.498 -0.0438 -0.2472 -0.2565
18063W        W33532   3.654  14.019   5.139 -0.4396  0.1555 -0.0991
18064W        W33533   7.395   7.584   1.823  0.1238 -0.2411 -0.1089
18065W        W33534   9.005   8.906  12.256 -0.1484 -0.0121  0.1160
18066W        W33535   5.030   4.334  13.745  0.1088  0.2252 -0.2825
18067W        W33536  16.396  12.705   1.667 -0.1546 -0.0963  0.2472
18068W        W33537  12.942   7.575   0.285 -0.4200  0.0672 -0.0596
18069W        W33538  16.321  13.127  15.792  0.0611 -0.0652  0.0359
18070W        W33539  16.858  16.516   2.922  0.3675 -0.1370  0.0719
18071W        W33540  16.276  11.243   3.798  0.3223 -0.1995 -0.1438
18072W        W33541   8.692   2.476   4.543 -0.2142  0.2412  0.0247
18073W        W33542  15.380   6.493   3.091  0.1196 -0.1139  0.1322
18074W        W33543  17.762   8.883   2.105  0.0071  0.3317 -0.1641
18075W        W33544  10.426   4.847  15.343  0.0431  0.0656 -0.0813
18076W        W33545  16.238   1.558   0.092  0.0032 -0.1983 -0.2176
18077W        W33546   9.489  13.584   3.010  0.0138  0.3277  0.0227
18078W        W33547   3.548  14.780   2.619  0.1994  0.0275  0.2168
18079W        W33548  14.902   7.774  11.709  0.3069 -0.0179 -0.1725
18080W        W33549   4.430   7.003  12.801  0.2082 -0.0062 -0.1298
18081W        W33550   1.821   7.911   0.241 -0.0291 -0.3603 -0.0183
18082W        W33551  16.413   5.158   1.369  0.0366 -0.0119 -0.1891
18083W        W33552   9.844  14.887   2.359  0.1412 -0.3076  0.1571
18084W        W33553  17.531  12.642  12.384  0.0615  0.2944  0.0164
18085W        W33554  16.933   2.585   1.610  0.0840 -0.1440  0.0896
18086W        W33555  17.615  11.867   2.380  0.0920  0.0095 -0.0632
18087W        W33556   2.948   0.257   1.896  0.0718  0.0044  0.0114
18088W        W33557  10.674   7.847   0.723 -0.0706 -0.3833  0.0440
18089W        W33558   5.748   1.042   2.020 -0.1428  0.1771 -0.1517
18090W        W33559  14.744   5.191  11.407  0.0686  0.2165 -0.0785
18091W        W33560   7.643   2.232  14.535  0.4426 -0.1182 -0.0212
18092W        W33561   7.939  12.617  13.525  0.1127  0.3652 -0.0293
18093W        W33562  14.256   1.453  12.999  0.1318  0.2094  0.0815
18094W        W33563  14.640  17.949   5.174 -0.0406  0.1284 -0.1818
18095W        W33564  12.591   4.848   1.882  0.1882  0.1596  0.0144
18096W        W33565  16.810   8.229   1.503 -0.0561  0.4218 -0.2180
18097W        W33566  12.630   6.103  11.132 -0.0499  0.0072 -0.2150
18098W        W33567   1.195   7.700   4.040 -0.0932  0.4623 -0.3173
18099W        W33568   7.419   3.634  11.203  0.0743 -0.0640 -0.1692
18100W        W33569   3.307  15.298   0.171  0.0585 -0.0667 -0.2367
18101W        W33570   2.194  12.532   2.478 -0.1662 -0.0939 -0.1126
18102W        W33571   6.358   0.345   2.632  0.1180  0.3011  0.1469
18103W        W33572  16.198  16.266  12.409 -0.0319 -0.0089 -0.0748
18104W        W33573  18.333   4.044   0.477 -0.2190  0.0929 -0.0334
18105W        W33574  12.101   3.122   2.981 -0.2239  0.1600  0.1909
18106W        W33575   0.702   6.721   1.201  0.1619 -0.1216 -0.2668
18107W        W33576   5.996  13.918  14.171  0.5638  0.0152  0.1309
18108W        W33577  14.724  16.755   1.829  0.0508 -0.2121  0.1058
18109W        W33578   0.656   5.077   5.536  0.1246  0.1459 -0.2128
18110W        W33579   2.061   2.361   3.284 -0.1029 -0.1061  0.5268
18111W        W33580  18.406   4.058  13.564  0.1215  0.4574  0.2568
18112W        W33581   2.512   8.180  11.817 -0.1378  0.2587  0.3414
18113W        W33582   8.944   8.302   4.745  0.1137  0.1607  0.0110
18114W        W33583  15.799   2.294  13.988 -0.1943 -0.1310 -0.1708
18115W        W33584  14.185  18.272  14.180  0.4632  0.1553 -0.0399
18116W        W33585   3.490   8.380  13.738  0.1785 -0.1555 -0.1131
18117W        W33586  11.288  12.722  15.741  0.0293  0.0917  0.2332
18118W        W33587  14.671  10.238   3.410  0.2606 -0.0414  0.2311
18119W        W33588  15.942  11.420  11.201 -0.3896 -0.0009 -0.0032
18120W        W33589   1.156   1.610  12.259 -0.3651 -0.2734  0.0507
18121W        W33590  12.799  11.149   0.201  0.1661  0.1575 -0.1905
18122W        W33591  16.683  16.992   0.026  0.0929  0.2289 -0.1822
18123W        W33592   0.570   0.360  14.267  0.2619 -0.1031 -0.4104
18124W        W33593   9.844   0.719  15.065  0.0815  0.1481  0.1478
18125W        W33594   7.913  15.406   3.139  0.1126  0.0377  0.0404
18126W        W33595   4.597   5.283  13.078 -0.0885  0.1996 -0.1683
18127W        W33596  18.012   7.898   3.934 -0.1771  0.1593  0.3490
18128W        W33597  13.527   2.368   3.475 -0.1866  0.0766  0.2635
18129W        W33598   4.095  17.717  11.665  0.0457 -0.0439 -0.0865
18130W        W33599  12.786  17.019  11.905  0.2183 -0.1491 -0.1582
18131W        W33600   6.092   4.170   2.159  0.0362  0.0630 -0.0608
18132W        W33601  17.400  10.922  12.551 -0.1388 -0.0241 -0.4205
18133W        W33602  18.157   7.048  14.673 -0.0195 -0.0102 -0.0627
18134W        W33603   1.832  14.470  11.134 -0.0607 -0.2316 -0.1243
18135W        W33604   6.586   3.230  10.845  0.1356 -0.1893 -0.0582
18136W        W33605  17.843  10.993   2.858 -0.0203 -0.0199  0.0347
18137W        W33606   1.168   2.847  13.231  0.1198 -0.2389 -0.1056
18138W        W33607  10.862   2.696   4.188 -0.1464 -0.0369  0.0429
18139W        W33608  14.241  11.120  11.808  0.1801  0.3036  0.0729
18140W        W33609  14.151  13.685  15.326 -0.0879  0.2868 -0.1960
18141W        W33610  17.790   3.360  12.943  0.2667  0.0145 -0.3065
18142W        W33611   4.284  15.290   6.083 -0.2175 -0.2135 -0.0862
18143W        W33612  17.165   1.009  15.238 -0.1314  0.1659  0.3157
18144W        W33613   5.175   6.064   3.712 -0.0139  0.0973  0.1094
18145W        W33614  17.000   9.519   5.154  0.2530 -0.1201  0.0935
18146W        W33615   7.733   5.010   0.724  0.0042  0.2187  0.2278
18147W        W33616  18.104   9.931   0.801 -0.1311  0.4763 -0.2911
18148W        W33617  11.983   5.792  12.194  0.1920  0.2499  0.1725
18149W        W33618  12.783   1.026   4.945  0.2801 -0.1292  0.0220
18150W        W33619  14.832  18.449  11.537  0.2574  0.2331 -0.1355
18151W        W33620  13.908   6.483  13.754 -0.2290  0.2080  0.1535
18152W        W33621  18.306   0.426  15.640 -0.6343 -0.0932  0.2044
18153W        W33622   5.519  13.643  10.906  0.0275  0.2877 -0.2724
18154W        W33623  11.737  11.158  15.869 -0.1594 -0.0709  0.2252
18155W        W33624   6.605   3.439  11.976 -0.3193  0.2647 -0.0123
18156W        W33625  12.461   3.112   5.118  0.3197 -0.0395  0.1318
18157W        W33626  14.408   6.169  10.110  0.1964  0.0446 -0.3571
18158W        W33627   3.135  13.647   2.148  0.0890 -0.2424  0.0178
18159W        W33628  14.635  15.931  13.972 -0.4046 -0.1586  0.1888
18160W        W33629  11.185  11.351  11.594 -0.1648 -0.1209 -0.1994
18161W        W33630   6.576   6.009  15.321  0.0648  0.0662  0.0766
18162W        W33631  13.952  14.158  13.662  0.0174  0.1719  0.0718
18163W        W33632  11.969  13.855   1.492 -0.0715  0.1498  0.0384
18164W        W33633  12.095  11.145   3.279  0.1109  0.2952 -0.0141
18165W        W33634   5.972  17.218  14.264  0.0377  0.1000  0.0386
18166W        W33635   5.665  18.097   4.425  0.2048 -0.2772  0.1245
18167W        W33636   1.289  10.984  12.265  0.0338  0.0059 -0.1707
18168W        W33637   4.632   4.084  10.899  0.0664  0.2643  0.0633
18169W        W33638  13.453  14.141  12.081  0.1607 -0.0736 -0.1058
18170W        W33639   1.858  15.121  13.260  0.0808  0.0227  0.0910
18171W        W33640   1.029  12.564   1.121 -0.3242  0.2831  0.2844
18172W        W33641  16.056   5.648   0.486  0.0902 -0.1726  0.1559
18173W        W33642  16.338   8.123   0.113  0.1835  0.3230  0.1595
18174W        W33643   8.043   8.760   2.659  0.0385 -0.1871 -0.1537
18175W        W33644   8.600   7.648  11.630 -0.0015  0.1656 -0.2095
18176W        W33645   8.862   7.394  14.604  0.2112 -0.2001 -0.1094
18177W        W33646   0.188   7.763   0.787 -0.3698  0.0580  0.2383
18178W        W33647  14.072  17.756  12.617 -0.1096  0.1777  0.2540
18179W        W33648   0.977   8.584  11.998 -0.2090  0.0694  0.0611
18180W        W33649  18.362   1.962   5.291 -0.2751  0.2467  0.2424
18181W        W33650  11.300  17.406   5.059 -0.1310 -0.0645  0.1272
18182W        W33651   3.110   2.908   2.427 -0.0908  0.4962  0.0934
18183W        W33652   5.910  14.751  14.600 -0.1124  0.3056 -0.2381
18184W        W33653   2.166   8.591  15.915  0.2821 -0.1710 -0.3333
18185W        W33654  11.993   8.694   2.059  0.0204  0.2049  0.0351
18186W        W33655   4.091   9.421   4.225 -0.4402 -0.0623 -0.2806
18187W        W33656  15.436   1.796   1.967  0.2089  0.0759  0.1995
18188W        W33657   9.063   7.208   4.622  0.0201 -0.2032  0.0581
18189W        W33658  18.392  14.050   3.984  0.0214 -0.2432 -0.0039
18190W        W33659   6.753  11.926  12.176  0.1261  0.1606 -0.2134
18191W        W33660   1.995  10.802  11.165 -0.0134 -0.1796  0.1148
18192W        W33661   5.546  15.571  12.072  0.0959 -0.0151  0.4059
18193W        W33662  17.678  16.789  12.072  0.0004 -0.0898  0.1722
18194W        W33663   8.352   5.081  10.925  0.1702 -0.1254  0.0615
18195W        W33664   6.001   7.892  14.568 -0.1527  0.0201  0.0850
18196W        W33665   2.944  14.815   0.324 -0.2921 -0.3634  0.0582
18197W        W33666  10.945  14.302  13.501 -0.0508  0.0718 -0.2710
18198W        W33667  13.679  15.683  13.754  0.0801 -0.2470 -0.1200
18199W        W33668  14.923  10.684   2.922 -0.4095  0.1837 -0.2839
18200W        W33669   0.745   7.660   2.250  0.3651 -0.2286  0.0499
18201W        W33670   3.124   7.633  10.215 -0.0627  0.0095 -0.1252
18202W        W33671   9.041  11.929   5.202  0.0094  0.0269  0.2272
18203W        W33672   4.917   2.060   6.251  0.1346  0.1261  0.1053
18204W        W33673  12.049  16.890   0.435  0.0397  0.4295  0.0890
18205W        W33674   7.776   4.650  13.209 -0.0938  0.1908 -0.2612
18206W        W33675   2.909   3.876   0.937  0.1643 -0.1936 -0.2898
18207W        W33676  15.953   3.668   1.631 -0.2515 -0.1516 -0.0449
18208W        W33677  11.317   3.500   4.484 -0.0208  0.0888 -0.0722
18209W        W33678   0.007   9.574  11.487  0.0729 -0.0095 -0.1251
18210W        W33679  15.365  10.497   2.650 -0.2388  0.1945  0.0238
18211W        W33680  16.911   9.892  14.119  0.3722 -0.1536  0.0615
18212W        W33681   5.341   6.208   4.221  0.4713  0.0611  0.1073
18213W        W33682   3.009  16.394  12.147 -0.1623 -0.1939 -0.0533
18214W        W33683   1.444  17.613  13.394  0.4313 -0.1961 -0.0018
18215W        W33684  13.530   7.816   4.886 -0.0386  0.0387  0.0266
18216W        W33685   5.541   6.518  13.316  0.0699 -0.3631  0.1249
18217W        W33686  16.981   6.965   0.030 -0.1387  0.1428  0.0574
18218W        W33687  16.282   0.825   1.956 -0.2685 -0.0669  0.0464
18219W        W33688  16.468  10.182  10.410 -0.0287  0.2488 -0.0533
18220W        W33689   9.813   3.150   3.713 -0.0920 -0.0852  0.0013
18221W        W33690   8.159   1.979  13.878 -0.0931 -0.3431  0.1803
18222W        W33691  14.633   2.390   2.756  0.0708 -0.1340  0.1835
18223W        W33692   5.967  13.167   0.253 -0.2668 -0.1841  0.0055
18224W        W33693  15.022  10.010   3.008 -0.0196 -0.0068 -0.0153
18225W        W33694   2.283   4.426  13.009 -0.3706 -0.4118 -0.4628
18226W        W33695  10.739  11.560   1.910 -0.1818  0.0749  0.0524
18227W        W33696  10.352  17.200  10.510 -0.2230 -0.0961  0.2392
18228W        W33697   4.272   4.955   4.528 -0.1396 -0.2623  0.1710
18229W        W33698  12.669  17.978   5.895  0.0611 -0.1978  0.1724
18230W        W33699  11.647   4.380   1.077  0.1440  0.0884 -0.1460
18231W        W33700   8.922   6.888   3.848  0.0911  0.0148 -0.1810
18232W        W33701   1.640  10.689   1.465 -0.2583  0.0697  0.3224
18233W        W33702   2.116   4.535   3.372 -0.2376  0.0611  0.0411
18234W        W33703   1.406   2.171   6.274 -0.0748 -0.0649 -0.2674
18235W        W33704   7.461  15.140  13.374 -0.0207  0.0124 -0.0275
18236W        W33705  14.849   1.943   5.472 -0.2549 -0.1849  0.0043
18237W        W33706  17.953   4.854  11.638  0.1969  0.0448 -0.0273
18238W        W33707  17.808  17.047   3.831  0.2306 -0.3583 -0.2913
18239W        W33708   8.270   3.069   3.093  0.0258  0.0471 -0.1347
18240W        W33709   6.944   6.879   1.357  0.1218 -0.0967 -0.0193
18241W        W33710   3.775   4.662  14.459  0.2778  0.4724 -0.0789
18242W        W33711   9.242  14.168   5.724 -0.2581  0.0253  0.3066
18243W        W33712   2.168  17.387  13.015  0.2202  0.1678  0.0652
18244W        W33713  13.364  17.240  15.468 -0.1757  0.1456  0.1867
18245W        W33714   1.352   2.828  11.517 -0.1314 -0.0828 -0.0372
18246W        W33715   8.285  12.458  14.256 -0.1672  0.3682 -0.0245
18247W        W33716  18.345  11.169  11.774  0.1234 -0.0762 -0.0818
18248W        W33717  15.639  18.025  13.454 -0.1247 -0.0589 -0.0410
18249W        W33718  10.982  17.699   2.880  0.0901 -0.5190  0.0861
18250W        W33719  14.319  14.971  13.628 -0.0020  0.1494  0.2804
18251W        W33720   8.626   3.485  12.638 -0.0116  0.2044  0.0362
18252W        W33721  16.917  17.207  15.114  0.4275 -0.1753  0.3308
18253W        W33722  18.383  14.845   0.719  0.1157 -0.1092  0.0163
18254W        W33723  18.166   6.927   4.913  0.2605 -0.0937  0.0712
18255W        W33724  11.886   1.120   3.712 -0.1846  0.0271 -0.2615
18256W        W33725   1.889   7.228   4.324  0.2243  0.0860 -0.0967
18257W        W33726   3.201   3.397  12.079  0.0739  0.3380  0.3660
18258W        W33727   3.303  14.343  14.085 -0.0347 -0.1034  0.0718
18259W        W33728  17.918  12.264  11.917 -0.0122  0.0280  0.0799
18260W        W33729   6.926  11.710   5.795  0.0884 -0.3281 -0.3317
18261W        W33730  14.527  11.198   1.116  0.1642 -0.1894 -0.0213
18262W        W33731  13.233  15.699  12.756  0.2247  0.3067  0.1194
18263W        W33732  13.879  12.430   2.737  0.2355 -0.1658 -0.1994
18264W        W33733  12.768  12.753   1.257  0.1542 -0.0201  0.3068
18265W        W33734   5.720   0.171  12.392 -0.0614 -0.0847  0.0167
18266W        W33735   3.047   7.391   5.806 -0.1186  0.0633 -0.0436
18267W        W33736  17.183  10.496   4.629  0.0088  0.1441  0.1261
18268W        W33737   2.429   6.599  13.843  0.2220 -0.2647 -0.2719
18269W        W33738   8.274  11.720   4.230 -0.1924  0.0898  0.2216
18270W        W33739   6.227   8.499   5.143 -0.0661 -0.2172 -0.0851
18271W        W33740   6.400   5.014  10.496  0.2243  0.1823 -0.0497
18272W        W33741  10.129   8.604   1.382 -0.0898 -0.1863 -0.5963
18273W        W33742   5.253   5.656   3.954 -0.1491  0.0254 -0.3402
18274W        W33743   5.721  18.461   3.571 -0.0902 -0.4331 -0.1458
18275W        W33744  18.243  17.812  15.301 -0.2419  0.0836 -0.1000
18276W        W33745  12.173   2.397   1.364  0.0364  0.1021  0.3458
18277W        W33746   6.689  16.518   3.670  0.1623 -0.0189 -0.0243
18278W        W33747  10.544   1.628  11.677  0.1597  0.1707 -0.0873
18279W        W33748   7.499   8.741  14.807  0.2292  0.0794 -0.0123
18280W        W33749   2.285   8.178  12.920  0.1823  0.2245  0.2195
18281W        W33750  14.368  14.134  12.373 -0.2628  0.1091 -0.0805
18282W        W33751   8.918   2.941  13.293 -0.0023  0.0090  0.0686
18283W        W33752   6.406   5.115   5.215 -0.0533  0.0947 -0.0037
18284W        W33753  13.983   8.832  15.556  0.0732  0.1195 -0.0568
18285W        W33754   5.579  15.375   5.704 -0.1727  0.1023  0.1560
18286W        W33755   7.662  10.771  13.802 -0.0091 -0.0830 -0.1015
18287W        W33756   6.285  13.106   3.234 -0.1280  0.2688  0.0462
18288W        W33757   9.061   5.525   0.347 -0.3317  0.0136  0.0098
18289W        W33758   4.406   9.863   0.772 -0.3406 -0.3030  0.1523
18290W        W33759  13.367   1.874   5.529 -0.0932 -0.2021  0.0569
18291W        W33760  17.221  14.711   4.052 -0.0831  0.1779  0.0207
18292W        W33761  13.621  17.036   3.472  0.1125  0.0181 -0.4111
18293W        W33762   0.525  11.640   5.399  0.0760 -0.0087  0.2043
18294W        W33763  11.125  14.209  15.609 -0.2114  0.0220  0.3814
18295W        W33764  12.431   2.313  10.607  0.0670 -0.1022 -0.0439
18296W        W33765  11.215  13.899  11.796  0.0933 -0.2659 -0.3147
18297W        W33766   4.963   8.008  15.835 -0.1905 -0.0560  0.0877
18298W        W33767   5.774   5.001  14.567 -0.1052  0.1759 -0.1321
18299W        W33768  16.076   4.770  15.845  0.2929  0.1807  0.1194
18300W        W33769  12.000   4.394   5.122  0.2002  0.1476 -0.7268
18301W        W33770   3.460  16.635   2.023 -0.1730  0.0077 -0.0032
18302W        W33771  10.210   3.678   1.893  0.1855 -0.1042  0.1263
18303W        W33772   2.497  17.410  11.709 -0.0990 -0.0700  0.3573
18304W        W33773  11.809   9.246  12.018 -0.0156  0.0612  0.0651
18305W        W33774   8.155  17.176  14.819 -0.1040 -0.0051  0.2468
18306W        W33775  16.807  15.466   2.823  0.0846  0.3514  0.1481
18307W        W33776  13.434  17.652   2.650 -0.2650  0.0890  0.4143
18308W        W33777   2.008   8.272  13.362  0.0214 -0.4797 -0.0516
18309W        W33778   4.029  16.028   0.540 -0.1018 -0.0139 -0.1490
18310W        W33779  16.056   2.066  14.439 -0.0234  0.0540  0.3246
18311W        W33780   4.590   3.941   4.230  0.1659 -0.0936 -0.2070
18312W        W33781   9.499  12.621   4.769 -0.0059  0.0176 -0.0593
18313W        W33782  14.460  13.127  11.959 -0.0014  0.2315 -0.2587
18314W        W33783  15.764   6.295   5.809  0.1485  0.4070 -0.0079
18315W        W33784  16.727   4.352  11.927  0.0446  0.0256 -0.1305
18316W        W33785  12.038   0.337  11.733 -0.3357  0.1500 -0.1505
18317W        W33786  17.715   2.780   3.527 -0.3298 -0.0828 -0.1740
18318W        W33787  14.596  14.781   4.689 -0.1814  0.1216  0.0423
18319W        W33788   6.571  17.054  11.652  0.1897  0.1818 -0.0322
18320W        W33789   2.937  17.634   4.601 -0.1405 -0.1374  0.1763
18321W        W33790   3.884  10.982  14.427  0.2086  0.3199  0.0393
18322W        W33791   6.912  12.199  15.787 -0.3742  0.0311  0.0844
18323W        W33792  10.069   6.142   2.862  0.1745  0.3744 -0.1581
18324W        W33793   0.421  16.275  12.777  0.2365  0.1073  0.1083
18325W        W33794  17.841   9.889   5.390 -0.1778 -0.0034  0.2357
18326W        W33795  17.370  10.904  15.798  0.2274 -0.2294 -0.0286
18327W        W33796   2.401   6.562   4.943  0.1157 -0.4475 -0.0813
18328W        W33797   6.051   5.470  14.557 -0.0171  0.1539 -0.4084
18329W        W33798   1.635   1.853  14.724 -0.2827  0.0631 -0.0112
18330W        W33799   6.740   6.745  13.182 -0.2521  0.2869  0.2097
18331W        W33800  13.464  11.088  13.156 -0.0316  0.1327 -0.3449
18332W        W33801   4.277  13.443   0.627 -0.1275 -0.0232  0.1444
18333W        W33802   5.416   1.448   3.841  0.6339 -0.0115 -0.3028
18334W        W33803  15.963  17.559  15.294 -0.0867 -0.0416  0.0635
18335W        W33804  12.277   1.816  14.538 -0.1701  0.3487  0.2976
18336W        W33805   8.118   5.248   3.699 -0.2793 -0.0230 -0.0583
18337W        W33806  10.371  15.657  11.942  0.4972 -0.1488 -0.0805
18338W        W33807   6.656  17.126  13.028  0.4027  0.0262  0.0349
18339W        W33808  13.308   7.587   1.333 -0.2587  0.0761  0.0093
18340W        W33809   3.001   3.590  11.575  0.1427 -0.0190  0.2403
18341W        W33810   1.997  16.021   1.788 -0.0031 -0.1919  0.0735
18342W        W33811  18.194   7.013   1.212  0.0327 -0.0572  0.1636
18343W        W33812  11.650   3.178   2.645  0.0788 -0.0586  0.1058
18344W        W33813   4.578  10.064   4.606 -0.2716  0.0735 -0.4267
18345W        W33814  15.632   4.454  15.301  0.0267  0.2015 -0.3659
18346W        W33815   8.009  17.060   3.782  0.1340 -0.0741  0.5028
18347W        W33816   5.753   1.440  12.218 -0.0294 -0.0862 -0.0195
18348W        W33817   1.646  14.914  10.050  0.1336 -0.2867 -0.3663
18349W        W33818  11.305   8.266   3.712  0.0731 -0.2767  0.1978
18350W        W33819   1.024   7.634  14.965 -0.0367 -0.3017 -0.1059
18351W        W33820  16.298  11.313  15.898  0.2064 -0.3120  0.1958
18352W        W33821   0.918  17.130  15.852 -0.1201 -0.0357 -0.1862
18353W        W33822  10.460   0.174   4.335  0.1062  0.0005  0.2649
18354W        W33823  14.564   8.763   2.349  0.1453 -0.2486  0.1126
18355W        W33824  11.067  18.213   2.860  0.0248 -0.1753  0.1265
18356W        W33825  10.260  17.970   5.970 -0.0975  0.0320 -0.0357
18357W        W33826   9.942   8.760  12.617  0.1652 -0.0537  0.0460
18358W        W33827   7.120   5.607   0.205 -0.0159 -0.0415 -0.0753
18359W        W33828  16.981   5.551   3.200 -0.0167  0.2369  0.1519
18360W        W33829   3.710   9.289  11.220 -0.3391 -0.1737 -0.0599
18361W        W33830   7.764  17.185   2.177  0.1249  0.1826  0.2230
18362W        W33831   4.450  11.296   2.353 -0.3821 -0.5792 -0.2761
18363W        W33832  10.728  16.067   2.330 -0.3348  0.1279  0.0452
18364W        W33833  11.726   0.448   0.809  0.0521 -0.1294 -0.0143
18365W        W33834   9.369   8.459   2.010  0.1854  0.1672 -0.1595
18366W        W33835   1.558   5.901  10.290  0.0397 -0.4140 -0.1801
18367W        W33836  15.775  15.371   2.809 -0.2020  0.0733  0.3889
18368W        W33837   2.273  18.140   1.820 -0.1647  0.2138 -0.4189
18369W        W33838  11.569  11.277   3.182  0.2470 -0.2086 -0.3085
18370W        W33839   4.596  15.080   2.025 -0.0507 -0.0424  0.2891
18371W        W33840  18.430   0.486   5.635  0.2975 -0.0392  0.0856
18372W        W33841   2.424  14.626  12.952 -0.2429 -0.3333 -0.1818
18373W        W33842  17.603  17.663  15.609 -0.2541  0.0678  0.1269
18374W        W33843   2.128   9.880  14.742 -0.0890  0.0211 -0.0574
18375W        W33844   0.353   7.003  13.973  0.1991 -0.0164 -0.3152
18376W        W33845  13.371   3.584  12.431 -0.2241 -0.1515  0.2808
18377W        W33846  15.919   9.825  11.237 -0.1633  0.0397 -0.0636
18378W        W33847   7.494  15.004  11.157  0.4064 -0.0292 -0.2061
18379W        W33848  15.810  16.204  12.771  0.1771  0.3769 -0.1147
18380W        W33849  14.460  15.993   3.598 -0.0978 -0.1412  0.1323
18381W        W33850   1.608   4.153  15.659  0.0064 -0.1582  0.1753
18382W        W33851   9.423   6.022  14.616 -0.0675  0.4160 -0.0235
18383W        W33852  11.677   0.755  10.921  0.2669  0.2854  0.2025
18384W        W33853   8.616  10.906  14.691  0.0690  0.2283 -0.1816
18385W        W33854  13.117   7.543  12.936  0.0752 -0.0465  0.3353
18386W        W33855   5.241   4.455   2.461  0.0450 -0.0598 -0.4231
18387W        W33856  12.195   1.790  14.010 -0.1608  0.1834  0.0799
18388W        W33857  16.367   3.652   3.444  0.3566  0.2115 -0.0771
18389W        W33858   0.568  18.337  11.444 -0.2438 -0.5611 -0.0401
18390W        W33859   3.974   5.426  11.309 -0.0444 -0.2609 -0.1008
18391W        W33860   1.124  12.741  11.001 -0.2062  0.1174  0.3227
18392W        W33861  17.769   4.657  13.860 -0.1662 -0.0439 -0.0143
18393W        W33862   5.115   1.594  13.222 -0.0590  0.0828 -0.1436
18394W        W33863  12.399  18.413  14.045 -0.1576 -0.1866 -0.0161
18395W        W33864  16.279   3.503   1.274 -0.0174 -0.0276  0.0332
18396W        W33865  16.139   2.762  13.925 -0.0793  0.2498 -0.3368
18397W        W33866   8.816   0.194  13.133  0.2651 -0.0466 -0.0412
18398W        W33867   1.193   5.780  14.706 -0.1799  0.2753  0.0237
18399W        W33868   1.710  18.464  12.330 -0.2696  0.0764 -0.0397
18400W        W33869  13.388   3.750   2.300 -0.1735 -0.0447 -0.2433
18401W        W33870   2.610  15.763   0.583  0.1413 -0.3445 -0.0295
18402W        W33871   3.838  16.185   1.829 -0.0553 -0.0538 -0.1149
18403W        W33872   6.254  17.909  12.592 -0.0869 -0.0291 -0.1650
18404W        W33873   8.353  16.035  11.236  0.2075  0.1407 -0.2857
18405W        W33874   8.088   7.942   1.553  0.1318 -0.1244  0.1802
18406W        W33875  18.009   6.990   4.335  0.0319  0.1389 -0.0311
18407W        W33876  17.378  17.293  11.456  0.2285  0.0238 -0.1009
18408W        W33877  17.633   2.121   2.179  0.0753  0.0618  0.0733
18409W        W33878  14.996   9.616  12.354  0.1586 -0.1870  0.1356
18410W        W33879   4.213   5.087   2.042  0.0936  0.0631 -0.2160
18411W        W33880   7.436   1.775   5.113  0.2760  0.0276  0.1682
18412W        W33881   3.616   8.763  13.962 -0.1612  0.4083  0.1543
18413W        W33882  10.285   6.482  15.141  0.1034 -0.0549  0.2281
18414W        W33883  11.108   5.244  15.809  0.5371 -0.0491 -0.0879
18415W        W33884   7.600   4.004   2.879 -0.2102  0.2622 -0.0129
18416W        W33885  13.614   6.972   9.611 -0.0141 -0.1069  0.0147
18417W        W33886   4.069  17.519   5.594 -0.0572  0.1744 -0.0664
18418W        W33887   8.903   1.605   4.529 -0.0973 -0.0899  0.1764
18419W        W33888   5.822   2.775   0.837  0.3734  0.0491 -0.0356
18420W        W33889  10.928   4.812   1.052  0.1234 -0.1291  0.1574
18421W        W33890  12.024  11.991  10.882  0.0079  0.3835 -0.1666
18422W        W33891  15.377   8.510   5.487  0.1702 -0.2164 -0.0081
18423W        W33892  11.146   2.750   3.293 -0.1550  0.4022  0.0631
18424W        W33893   1.958   3.558  11.724  0.2215  0.1795 -0.0185
18425W        W33894   8.593   5.175   3.880 -0.1008  0.1232 -0.0723
18426W        W33895   9.284  16.105  11.367  0.0806 -0.0064 -0.1163
18427W        W33896   5.677   7.904  12.553 -0.0883  0.1802  0.2131
18428W        W33897   7.454   1.863  11.866  0.1743  0.0744  0.2383
18429W        W33898   0.839   1.194   1.203  0.1384 -0.0736  0.2029
18430W        W33899   4.717  11.448   5.313  0.1069 -0.2252  0.0682
18431W        W33900  10.913  14.516   4.143  0.3712  0.0284 -0.0999
18432W        W33901  11.677   7.899   3.915  0.0549 -0.0113 -0.1955
18433W        W33902  14.178  12.327  12.429 -0.0261 -0.0212 -0.1627
18434W        W33903   3.093   4.190   6.446 -0.2089 -0.2091  0.0462
18435W        W33904  18.057   6.105   4.101  0.1572  0.2129  0.0682
18436W        W33905   1.015  11.400   1.677 -0.1368 -0.0574 -0.1913
18437W        W33906  17.707   3.516  11.909  0.0447 -0.0485 -0.0946
18438W        W33907   4.641  12.711   3.124 -0.2914 -0.4433 -0.0029
18439W        W33908  11.243  16.740  10.855  0.1966  0.1769 -0.1343
18440W        W33909  11.861   9.740  13.708  0.0709 -0.1183 -0.0155
18441W        W33910   7.589  12.838   2.668  0.1341 -0.3403 -0.1008
18442W        W33911  11.706  15.896  15.321  0.1552  0.1057  0.0414
18443W        W33912   3.036  17.079  14.460  0.2182  0.2348  0.1417
18444W        W33913   7.832   9.153  14.909 -0.0784  0.2019  0.0718
18445W        W33914   2.181  15.318  13.650  0.1283 -0.0505  0.0485
18446W        W33915   3.178  12.886  13.421 -0.2243 -0.2870 -0.0745
18447W        W33916  12.604  17.538   0.141 -0.2748 -0.0680  0.0865
18448W        W33917   9.671   9.200  12.819  0.1984  0.0324 -0.1962
18449W        W33918   7.524   2.359   5.967  0.2272 -0.1962  0.2129
18450W        W33919  13.748   7.530  13.774 -0.1391 -0.1237 -0.1818
18451W        W33920  15.795  10.326   1.525 -0.1831 -0.1517 -0.1828
18452W        W33921   1.996  10.955   1.737  0.0892  0.0348 -0.1378
18453W        W33922  16.558   5.296   3.237  0.0260 -0.0350 -0.2554
18454W        W33923  12.816   9.668   3.694 -0.0736  0.2443 -0.0060
18455W        W33924   2.792  13.476  15.740 -0.0802 -0.2915  0.0199
18456W        W33925   6.513   0.302  12.045  0.1747  0.2780  0.2893
18457W        W33926  13.836  13.216   5.882  0.1611  0.0182  0.1795
18458W        W33927  11.054   1.889   4.887 -0.0318  0.0052  0.2324
18459W        W33928   1.259   3.517  15.180 -0.1276  0.0959  0.0937
18460W        W33929   7.497   8.142   5.846 -0.1647  0.2390 -0.3780
18461W        W33930   6.275  13.201   3.719  0.0609  0.1280  0.0191
18462W        W33931  13.430  17.345   3.882  0.0032  0.1924  0.2739
18463W        W33932   9.759   5.410   1.678 -0.2134 -0.0667  0.3534
18464W        W33933  17.347   8.958   2.479 -0.1042  0.0193  0.0113
18465W        W33934  10.629  17.069  14.841 -0.1195 -0.0975  0.1150
18466W        W33935  14.262   9.387   1.330 -0.2511 -0.0230  0.2654
18467W        W33936  13.624   2.398   0.733  0.2090  0.3553  0.0318
18468W        W33937  18.380  13.294  10.899  0.1193  0.0844  0.0962
18469W        W33938   8.212   1.352   3.138  0.0114 -0.2557 -0.2330
18470W        W33939   3.180  18.468  15.234  0.3140  0.2999  0.0418
18471W        W33940   0.202  15.308  15.230 -0.0942 -0.1394  0.1984
18472W        W33941   9.426   9.067  15.582  0.1483  0.3733  0.0183
18473W        W33942   4.820   7.243  14.072  0.0531 -0.2963 -0.0380
18474W        W33943  16.703   7.242   3.747 -0.1215 -0.2479  0.1950
18475W        W33944   6.445   8.754   2.106 -0.0402  0.0186 -0.0983
18476W        W33945  13.108   9.789  15.374  0.1320  0.0397  0.1468
18477W        W33946   7.627  15.112  14.284  0.0555 -0.3736 -0.0119
18478W        W33947   3.802  11.181   4.797  0.0647 -0.2443 -0.1754
18479W        W33948   1.720   3.888   2.645 -0.1593 -0.0864  0.1943
18480W        W33949   0.660  14.400   5.209  0.1456 -0.1584  0.1398
18481W        W33950  11.739   8.565  15.165 -0.0232  0.0082  0.1086
18482W        W33951   9.238   2.683  12.312  0.1289 -0.6183 -0.1089
18483W        W33952   2.770   7.831   4.134 -0.4384 -0.2579  0.0055
18484W        W33953  12.007   9.605  12.360 -0.1907 -0.1936  0.1953
18485W        W33954  13.054   4.232   3.043  0.1076  0.1299 -0.0847
18486W        W33955  14.569   9.529  13.365  0.2606 -0.2014 -0.0312
18487W        W33956  11.354  15.150   2.294 -0.0187  0.0879 -0.1847
18488W        W33957   1.387  17.218  13.707 -0.1365  0.1965  0.0366
18489W        W33958   9.851  14.692   5.176  0.0175 -0.1068 -0.0683
18490W        W33959   8.681  15.297   5.081 -0.3701  0.1344 -0.1381
18491W        W33960   2.075  10.879   9.709 -0.1848 -0.0332 -0.1799
18492W        W33961   6.280   3.163   0.281  0.0120 -0.0891  0.3080
18493W        W33962   1.330   0.363   6.190 -0.0083 -0.1839 -0.0931
18494W        W33963  10.488   8.020  11.695  0.0248 -0.2446 -0.1385
18495W        W33964  10.966  10.387  12.090  0.0683  0.1244  0.0678
18496W        W33965   9.802  10.290  14.161  0.1389  0.1944  0.0202
18497W        W33966   3.239   6.243  13.970 -0.0265  0.2271  0.3555
18498W        W33967   6.744   3.734   1.028  0.3510  0.2689  0.0999
18499W        W33968  16.817   3.113  12.312  0.0122 -0.1604  0.2269
18500W        W33969  18.471   4.720  11.500  0.0184 -0.0544  0.0086
18501W        W33970  12.646  14.767   4.251 -0.0500  0.0604 -0.3549
18502W        W33971  17.670   9.895   2.014 -0.4208  0.2313 -0.0055
18503W        W33972  12.122   6.699   0.013  0.1141  0.0957 -0.2103
18504W        W33973  11.795   4.915  14.587  0.0724 -0.0417 -0.1918
18505W        W33974  13.524   2.382  10.449  0.2302 -0.0256 -0.1801
18506W        W33975  12.925  17.794  14.125  0.0884 -0.4418 -0.0776
18507W        W33976  11.963   5.312  12.099 -0.0894 -0.1965  0.0764
18508W        W33977   3.388  16.796   1.379 -0.0035  0.0886  0.1736
18509W        W33978   0.680   0.389  15.529  0.3506 -0.1941 -0.2785
18510W        W33979   9.485   9.820   4.288 -0.0488 -0.1917  0.0413
18511W        W33980  15.188  15.741  14.214 -0.1997  0.1297 -0.0563
18512W        W33981   6.341   6.332  12.206 -0.1511  0.1119  0.0070
18513W        W33982   8.314  16.812   5.410 -0.4526  0.0465  0.2433
18514W        W33983   8.886   6.730   2.606 -0.0016  0.2411  0.0397
18515W        W33984   5.531  12.931   0.958 -0.1054  0.0836  0.3743
18516W        W33985   0.336   0.708   2.785 -0.1802 -0.1817  0.0536
18517W        W33986   7.603   8.083  12.818  0.0326  0.0939  0.0308
18518W        W33987   5.896  11.922  10.802 -0.0723 -0.0436 -0.0567
18519W        W33988  12.436   2.880  11.473  0.0057 -0.0238 -0.2073
18520W        W33989   2.316   9.764  10.820 -0.1155  0.1672  0.1775
18521W        W33990  15.382  13.131  11.529 -0.1144  0.3702 -0.1439
18522W        W33991   9.079   8.788  15.182 -0.3120 -0.0829 -0.2350
18523W        W33992  15.722   6.247  15.822 -0.1776 -0.0302 -0.1116
18524W        W33993  11.142  10.662   2.462  0.0012  0.0275  0.0371
18525W        W33994   9.635  18.098  13.188 -0.0157 -0.2560  0.1380
18526W        W33995   1.229   6.091   5.220 -0.0355 -0.1862  0.0923
18527W        W33996   4.272  11.972   0.744 -0.1953  0.1500  0.1775
18528W        W33997  12.882  12.563  14.892  0.1240  0.2402  0.0681
18529W        W33998   1.333  15.260  10.114  0.0121  0.0539 -0.0549
18530W        W33999  12.336  17.690  13.030 -0.2315  0.2733  0.0543
18531W        W34000   4.293   4.125  14.526  0.1107  0.2041 -0.1027
18532W        W34001   5.843   1.117  14.972  0.2948  0.1572  0.1052
18533W        W34002   1.084   1.699   4.890 -0.0631  0.0554  0.3255
18534W        W34003   0.115   7.888   1.371  0.0472  0.0451 -0.1964
18535W        W34004  17.792  18.057   2.654 -0.1882 -0.2483  0.2407
18536W        W34005  16.346  14.083  11.874 -0.1739 -0.1953  0.2680
18537W        W34006   7.117   4.648   1.179  0.0060  0.1777  0.1334
18538W        W34007  14.605  10.541   5.032 -0.1772  0.1289  0.0788
18539W        W34008   1.833   9.884  15.165  0.3320 -0.3800 -0.3193
18540W        W34009   5.001  17.406   2.255  0.2834  0.0513 -0.1302
18541W        W34010   8.200  14.851   3.922 -0.1151 -0.0239 -0.0791
18542W        W34011   6.177  16.282   3.726  0.0192 -0.3276  0.1681
18543W        W34012   4.397   7.760  12.090 -0.1914 -0.0604 -0.3660
18544W        W34013   6.022  11.424   3.183 -0.0824 -0.0517  0.2211
18545W        W34014   2.147  18.279   0.282 -0.2244 -0.3675  0.0400
18546W        W34015   2.927   0.787  12.603 -0.3420  0.0154 -0.0187
18547W        W34016   6.772   4.600   1.543  0.1130  0.0710  0.0863
18548W        W34017   4.789   1.447  11.356 -0.0893  0.0881 -0.3017
18549W        W34018  17.250   3.856   1.359 -0.3068 -0.3115  0.0234
18550W        W34019   7.998   8.599  13.792  0.1593  0.0488  0.0201
18551W        W34020  10.165  14.485   5.475  0.1957  0.0582 -0.0480
18552W        W34021  12.933   3.880   1.610 -0.0806  0.2574 -0.0943
18553W        W34022  16.559   7.842  12.240 -0.2474 -0.1093  0.2376
18554W        W34023   0.090  16.716  15.046  0.0063 -0.1778 -0.0526
18555W        W34024   8.103  12.385   4.880 -0.1965  0.3522  0.3121
18556W        W34025  10.589  14.354  13.111 -0.0798  0.1754  0.1913
18557W        W34026   4.581  11.016  14.684 -0.0551 -0.0975  0.1206
18558W        W34027   2.663   9.082  13.978  0.0136  0.1845  0.1833
18559W        W34028  15.107   0.696  11.808  0.1759 -0.1147  0.0372
18560W        W34029  15.556  17.463   4.421 -0.0758  0.3447  0.1734
18561W        W34030  10.332   0.032  12.651  0.0871  0.1148  0.1466
18562W        W34031  13.245  16.853   5.763 -0.5210 -0.1226 -0.0498
18563W        W34032  17.850   4.984  15.326  0.1421  0.0854 -0.0051
18564W        W34033   1.392   4.460   5.452 -0.3495  0.0540  0.1554
18565W        W34034  11.677   0.586   2.934  0.1025 -0.1704  0.0768
18566W        W34035   8.475   7.581   2.950 -0.1473  0.0835  0.0700
18567W        W34036   8.292  18.216   0.053 -0.2348  0.1098  0.1787
18568W        W34037   5.221   2.189  11.271 -0.0156 -0.1395 -0.0860
18569W        W34038  14.180   4.638   0.943  0.2485 -0.0264  0.0447
18570W        W34039   4.399   9.975   3.299 -0.2893  0.0298 -0.2113
18571W        W34040   4.461   3.582  11.873  0.0207  0.1266  0.3604
18572W        W34041   2.814   2.619  14.859 -0.2402 -0.2442  0.0109
18573W        W34042   1.611   8.221  11.580  0.1327  0.3972  0.1819
18574W        W34043  16.971  16.673   1.237  0.3354  0.1189  0.1981
18575W        W34044   0.602   9.902  11.272  0.3086  0.0198  0.2388
18576W        W34045   7.427  13.485  15.801 -0.0050  0.1205  0.1900
18577W        W34046  12.020   1.927   1.018  0.2162  0.1568  0.0827
18578W        W34047  16.073  11.046  13.189  0.2426 -0.0170  0.2634
18579W        W34048   0.098  11.977  14.068  0.2264  0.0438 -0.0345
18580W        W34049   1.222   8.845  14.352 -0.0394  0.3650 -0.1444
18581W        W34050   0.987   7.076   0.437  0.0048 -0.2857  0.1028
18582W        W34051  17.224   6.086   4.668  0.0858 -0.0037  0.3997
18583W        W34052   8.041   1.323   4.717  0.1499  0.0922  0.2156
18584W        W34053   2.505   8.724   3.807 -0.0659 -0.0769 -0.1068
18585W        W34054  15.351   6.106   0.744  0.0095 -0.2540  0.1553
18586W        W34055  17.572   1.385  12.196  0.0651  0.2588  0.1117
18587W        W34056  14.079  13.369   4.074 -0.0769 -0.0489  0.2039
18588W        W34057   9.684  16.068   0.010 -0.3143  0.1939 -0.0559
18589W        W34058   2.178   1.455   4.793  0.1702 -0.0087  0.0002
18590W        W34059   1.678   2.850   3.753 -0.0648  0.1589 -0.2114
18591W        W34060   9.154   4.035  15.140  0.2948 -0.0501 -0.2526
18592W        W34061   5.588   8.426  13.972  0.2941 -0.0695 -0.1754
18593W        W34062  12.769   0.260  14.241  0.0597 -0.0165  0.3452
18594W        W34063  15.221   2.020  11.784  0.1555  0.2607 -0.1371
18595W        W34064   5.826   7.424   4.890 -0.2403 -0.3745  0.1983
18596W        W34065  16.295   7.620  11.170 -0.0515  0.0046 -0.0871
18597W        W34066   8.701  13.921   2.600 -0.1078  0.1241 -0.1157
18598W        W34067  14.741  12.153  13.677  0.2422 -0.0773 -0.1304
18599W        W34068   7.384   4.851  12.599 -0.0221  0.3533  0.0231
18600W        W34069   7.746  16.865  15.780  0.0881 -0.0057 -0.1291
18601W        W34070   9.549  15.612  10.922  0.1591  0.0501 -0.0324
18602W        W34071  10.127   9.903  10.617  0.4619  0.1134 -0.2603
18603W        W34072  17.101   3.115   0.858  0.2830 -0.1960  0.0961
18604W        W34073   1.430   8.069  15.588  0.1399 -0.0356  0.1980
18605W        W34074  14.417   3.820   2.035  0.2387 -0.1500 -0.1601
18606W        W34075   8.867  14.734  11.615 -0.2257 -0.2326 -0.1394
18607W        W34076   7.694   8.752  12.827 -0.3254  0.1152  0.2754
18608W        W34077  15.390  15.372  13.873  0.5830 -0.2567  0.0020
18609W        W34078  13.101   2.499  13.031  0.0553 -0.1716 -0.2758
18610W        W34079   3.970   9.739   0.296 -0.1060  0.3692 -0.3412
18611W        W34080  10.989  13.070   2.353 -0.0209 -0.3981  0.3427
18612W        W34081  12.596  11.656  15.272 -0.3224 -0.0106 -0.0102
18613W        W34082  16.725   3.766   3.800 -0.0677 -0.1693 -0.2451
18614W        W34083   5.976   0.539  12.035  0.2200 -0.1872 -0.2628
18615W        W34084   4.977  17.763   5.343  0.3597  0.0715 -0.0464
18616W        W34085   5.680  17.753   3.955 -0.5047  0.0717  0.2379
18617W        W34086   2.563   1.790  14.376  0.0571 -0.2444  0.1625
18618W        W34087   7.113   3.742   6.034 -0.0629  0.1592  0.0748
18619W        W34088  12.175   7.428   3.342  0.2008  0.1854 -0.3498
18620W        W34089   7.658  15.933   3.807  0.0726  0.1860 -0.0455
18621W        W34090   4.139   1.895  15.253 -0.2449 -0.2375 -0.2486
18622W        W34091  15.405   8.156  11.273 -0.1919  0.0557  0.0576
18623W        W34092   5.989  16.960   2.763 -0.1228 -0.3145 -0.0044
18624W        W34093   5.869   2.025  12.767  0.4859 -0.5885  0.2891
18625W        W34094  13.820   3.166  13.231 -0.0332 -0.1901 -0.0340
18626W        W34095   5.872  16.060   2.955  0.1962 -0.0894  0.3084
18627W        W34096  11.672  18.102   1.903  0.0149 -0.0061  0.4457
18628W        W34097   6.971  15.906  12.814 -0.0311  0.1696 -0.1935
18629W        W34098  16.291  18.147   0.820 -0.0208  0.0050 -0.5058
18630W        W34099  13.873   4.698   3.181 -0.2111 -0.1138  0.0741
18631W        W34100   5.381   8.097  11.359 -0.1376  0.1766  0.0791
18632W        W34101  14.504   0.856  14.939  0.1177  0.3142  0.1191
18633W        W34102   3.933  10.135  13.370 -0.0272  0.1161  0.0145
18634W        W34103   5.449   3.076   0.646  0.1952  0.0014  0.1399
18635W        W34104  10.759   9.793   3.826  0.1934 -0.1507  0.1240
18636W        W34105  16.468   2.551  12.428  0.1079 -0.0983 -0.0903
18637W        W34106   2.343  12.130   2.758  0.1793 -0.0621 -0.2591
18638W        W34107  10.922  11.893   9.853  0.2966  0.0388 -0.1851
18639W        W34108  18.153  11.865   0.169  0.0338  0.3417 -0.2695
18640W        W34109  10.888  12.857  14.879  0.0956  0.1118 -0.2006
18641W        W34110   6.382   4.496   2.421 -0.1067  0.0765 -0.1324
18642W        W34111  16.630   4.496   3.568 -0.1635  0.0260  0.4085
18643W        W34112  13.547   6.953  13.379 -0.2475  0.0937  0.2269
18644W        W34113   6.577  16.210   4.038  0.0760  0.0699 -0.0589
18645W        W34114   9.727   2.864  12.545 -0.1704  0.1522 -0.4104
18646W        W34115   3.272   0.018  12.137  0.2980  0.1973  0.2206
18647W        W34116   8.600   6.325   4.494  0.1117 -0.1153  0.1694
18648W        W34117  13.351  17.051   4.290  0.0307 -0.1917 -0.0173
18649W        W34118   5.990  12.188  15.241 -0.2270  0.0402  0.0894
18650W        W34119   9.171   9.345  12.660 -0.0996 -0.2177 -0.1930
18651W        W34120  10.807   4.732   2.824 -0.0694 -0.3178 -0.2098
18652W        W34121  13.277  12.583   1.006  0.1957 -0.0821  0.0658
18653W        W34122  12.400   1.589   0.938  0.2399  0.0243  0.0407
18654W        W34123   1.713   6.586   3.148  0.0695  0.1390 -0.3888
18655W        W34124   6.107   6.950  11.465 -0.0670  0.1224  0.1177
18656W        W34125  12.286   8.049   4.492  0.3007 -0.4212 -0.1658
18657W        W34126  11.709  11.831  15.826 -0.2253  0.1060  0.2008
18658W        W34127  18.064  16.756   1.996  0.2558  0.1629  0.2825
18659W        W34128   4.914   3.262  14.619  0.0962 -0.0410 -0.0514
18660W        W34129   2.547  10.926  10.998 -0.0722 -0.0910 -0.0503
18661W        W34130   5.066   0.786   4.084  0.2702 -0.1623 -0.1250
18662W        W34131  14.217  11.435   4.209 -0.0834 -0.2602 -0.0253
18663W        W34132   2.926  18.433   0.524  0.0376  0.1275 -0.2214
18664W        W34133  11.514  12.056   3.651 -0.0513 -0.0095  0.0537
18665W        W34134   5.044  17.275   5.525  0.0213 -0.0790 -0.2653
18666W        W34135  11.251   7.867   3.157 -0.0860 -0.0356 -0.2210
18667W        W34136   5.148   6.976  10.151 -0.0398 -0.0563  0.0222
18668W        W34137  13.763   8.033  10.849 -0.0618 -0.2582 -0.1636
18669W        W34138   6.978  14.436  15.914 -0.2229  0.2264  0.0819
18670W        W34139   6.714   9.285  11.936  0.2742  0.0431 -0.0814
18671W        W34140  13.241   4.296  12.177  0.1944 -0.2022 -0.1661
18672W        W34141  14.383  13.057   1.947 -0.1098  0.2730  0.0834
18673W        W34142   2.805  15.122   3.753  0.1535 -0.2242  0.0927
18674W        W34143  14.582  10.582   1.939  0.3051  0.2195 -0.0305
18675W        W34144  17.270   3.574   5.964 -0.2261 -0.2316  0.2117
18676W        W34145  16.063  10.631  15.728  0.1052  0.3746  0.0762
18677W        W34146  11.998  12.026   4.381  0.0604  0.1112 -0.1490
18678W        W34147  17.345  15.954  15.320 -0.0688  0.0483  0.2913
18679W        W34148   8.473   4.712   2.300 -0.0732  0.1060 -0.0406
18680W        W34149   4.101  13.705  15.237 -0.0242  0.1426 -0.0751
18681W        W34150  13.253  10.105  15.795 -0.1886 -0.2033 -0.0775
18682W        W34151   7.336   6.174  14.191  0.0207  0.1129 -0.1097
18683W        W34152   6.817  15.989  14.138  0.3039 -0.0827  0.2203
18684W        W34153  17.198  18.416  11.057  0.0157  0.1846 -0.0694
18685W        W34154  12.166  13.320  13.705 -0.0095 -0.1038 -0.2295
18686W        W34155  15.887   1.795   1.705 -0.2225 -0.1187 -0.0367
18687W        W34156  16.558  16.954   2.613 -0.3094 -0.2444  0.2720
18688W        W34157  12.966  12.276  15.328  0.1018  0.2608 -0.0462
18689W        W34158  16.349  12.936  13.253 -0.0167 -0.0082  0.0477
18690W        W34159  16.292   4.075  12.130  0.0565 -0.2406 -0.1130
18691W        W34160  11.712   6.333   0.232  0.2013  0.1696 -0.1366
18692W        W34161   6.831  15.396  11.447  0.0095  0.1420  0.1318
18693W        W34162  17.038  13.154   1.177  0.0318 -0.0669  0.0171
18694W        W34163  18.120   1.316  15.612  0.0110 -0.0108 -0.0012
18695W        W34164  10.764  14.247  15.277 -0.1637  0.4930 -0.0007
18696W        W34165   3.137  15.551  13.790 -0.0709  0.1312  0.0905
18697W        W34166   3.716   5.251   5.691 -0.1323  0.3257  0.0451
18698W        W34167   9.551  18.056   2.320 -0.0178  0.1867 -0.0352
18699W        W34168   6.264   2.771  11.010  0.3240 -0.2267 -0.0320
18700W        W34169   4.513  14.248   6.188 -0.0789 -0.0690  0.0714
18701W        W34170   9.750  15.695   3.707 -0.1118 -0.2225 -0.1099
18702W        W34171  10.600  15.699  13.662  0.1739  0.2107  0.2187
18703W        W34172   7.218   6.222  10.442 -0.1573  0.1000 -0.3266
18704W        W34173   5.165   4.534   1.956  0.1292  0.1513 -0.1787
18705W        W34174   6.614   5.989   5.403 -0.1724  0.2356  0.0083
18706W        W34175   1.299   4.119   3.351 -0.1393  0.1392 -0.0069
18707W        W34176  14.697  16.838  11.731  0.0594  0.0463  0.1571
18708W        W34177   4.597  15.285   0.537 -0.1418  0.2877 -0.1191
18709W        W34178  16.263  11.697   4.028  0.0392  0.1135  0.0938
18710W        W34179   2.069  11.558  15.015  0.1283 -0.3969  0.0924
18711W        W34180  10.827  13.699   4.819  0.1319  0.1162 -0.0004
18712W        W34181   1.549   1.211   1.163  0.0577  0.1251 -0.4298
18713W        W34182   1.210   1.888   2.939  0.0819 -0.0403 -0.1952
18714W        W34183   6.502  15.937   3.554  0.4018 -0.3162 -0.0136
18715W        W34184   6.287   1.008  14.664  0.3493 -0.1015  0.3224
18716W        W34185   6.372   0.997  13.394  0.1135 -0.0647 -0.0020
18717W        W34186  16.199  10.035   2.289 -0.1743 -0.1131  0.2054
18718W        W34187   9.701  12.435   3.592 -0.0600  0.1609  0.4023
18719W        W34188  11.424   5.825  12.011 -0.0549 -0.3486 -0.0708
18720W        W34189  10.194   4.150   2.914 -0.1583 -0.0212  0.0320
18721W        W34190  18.264  14.549  13.859 -0.0408 -0.0952 -0.1496
18722W        W34191   6.800   7.483   1.061  0.0035  0.3785 -0.3909
18723W        W34192   3.989  16.780   3.534  0.2627 -0.2597 -0.1124
18724W        W34193  14.976   5.843   5.096 -0.1315 -0.2728 -0.3564
18725W        W34194   3.742   2.998   1.882  0.0602 -0.0458 -0.2206
18726W        W34195   8.822   8.078   4.331 -0.0040 -0.0624  0.1094
18727W        W34196  13.027   8.375  13.143 -0.1031  0.3944  0.0597
18728W        W34197   5.742   2.417  15.011  0.1483 -0.3735 -0.3239
18729W        W34198  16.364   0.477   1.169 -0.0511 -0.2159  0.3003
18730W        W34199   5.948  16.815  15.327  0.0226  0.1857 -0.1364
18731W        W34200  10.795   3.082   0.857 -0.1084 -0.0750  0.1589
18732W        W34201   7.336  16.575   5.999 -0.0651  0.0124 -0.1670
18733W        W34202  13.033  17.814  13.649 -0.1778  0.0243 -0.2017
18734W        W34203  13.953  12.259   1.534 -0.0474 -0.1977 -0.0470
18735W        W34204   5.684  18.013  11.256 -0.2484 -0.1564  0.2118
18736W        W34205  12.212  11.053   4.936 -0.2053 -0.0698 -0.0607
18737W        W34206  16.784  10.185   3.375  0.1562  0.0480 -0.0297
18738W        W34207  16.477   0.172   0.743  0.0881  0.0044 -0.2192
18739W        W34208   0.597  16.465   5.144  0.0782 -0.1536  0.0214
18740W        W34209   9.225   6.681   2.052  0.2022 -0.0002 -0.1094
18741W        W34210   2.583  11.451  14.914 -0.2135 -0.1757 -0.0995
18742W        W34211  16.492  10.341  15.844 -0.3880  0.0729  0.0151
18743W        W34212  11.745   8.447  11.257 -0.2579 -0.1450  0.2147
18744W        W34213   3.700  14.729  13.855  0.1365  0.4135 -0.1149
18745W        W34214   4.813   5.314   3.915 -0.0058  0.2368  0.0128
18746W        W34215  17.389  11.334   2.205  0.2112 -0.1601 -0.0761
18747W        W34216  13.128   7.331  14.456 -0.0275 -0.1151  0.1628
18748W        W34217  18.195  17.420   3.406 -0.0244 -0.0246 -0.0581
18749W        W34218   8.405   0.624   3.941  0.1618 -0.0713 -0.2361
18750W        W34219   3.094  12.284  11.699 -0.0881  0.0987 -0.2980
18751W        W34220   5.184   0.900   1.966 -0.0919 -0.1194 -0.0460
18752W        W34221   5.280  14.865   2.679  0.2798  0.1492 -0.2867
18753W        W34222  13.584  11.819   0.605 -0.2704 -0.1438 -0.1347
18754W        W34223   4.736  13.859  14.825  0.1381 -0.0041  0.2107
18755W        W34224   1.975   1.876  12.187 -0.1623 -0.1987 -0.0973
18756W        W34225  14.110  12.985  11.657 -0.1762 -0.2316  0.4707
18757W        W34226   0.742   0.436   2.943 -0.1441 -0.0665  0.0346
18758W        W34227  11.957   2.455   3.559 -0.2915  0.2465  0.0958
18759W        W34228  13.944   2.785   3.109  0.1081 -0.2121 -0.0951
18760W        W34229   6.862  13.368   2.586 -0.0964 -0.2521  0.2546
18761W        W34230   1.658   3.790  11.342  0.1613  0.2793  0.3517
18762W        W34231   9.046   9.909   0.373  0.0331 -0.0035 -0.1428
18763W        W34232   1.015   4.800  14.665 -0.1215  0.0482 -0.1538
18764W        W34233  11.150  10.056   4.638  0.2939  0.1136  0.0105
18765W        W34234   7.751   7.401  11.405  0.1139 -0.3547  0.4705
18766W        W34235   9.818   8.611   2.221  0.1305  0.2209 -0.1098
18767W        W34236   8.003   1.013   0.836 -0.0794  0.2988  0.0509
18768W        W34237   1.506  13.645  15.100  0.0989 -0.2857 -0.0875
18769W        W34238   6.690  10.263  11.661 -0.1472  0.2083  0.1664
18770W        W34239   4.403   5.052  14.710  0.0502 -0.0277  0.0160
18771W        W34240   6.288   5.962  14.434  0.0246 -0.2585  0.0855
18772W        W34241   4.327  13.540  15.687  0.2027 -0.3022 -0.0664
18773W        W34242  16.200   9.460   2.403  0.3838 -0.0200  0.0564
18774W        W34243   5.646  10.649  10.799  0.1728 -0.0556  0.4341
18775W        W34244  11.806   3.769   2.238 -0.0630  0.1742  0.2207
18776W        W34245  14.062  12.311  13.120 -0.0026 -0.0056  0.1254
18777W        W34246  13.411   8.605  12.852 -0.1546  0.0089  0.1177
18778W        W34247   0.846  17.591   0.829 -0.1769 -0.1384  0.2660
18779W        W34248  10.624  11.403   0.901  0.2852  0.1650 -0.0830
18780W        W34249  17.411  14.883   3.580 -0.3991 -0.0247 -0.0485
18781W        W34250  10.868   0.781  14.240  0.0577 -0.1230 -0.3219
18782W        W34251  17.297   3.172  13.149 -0.1435 -0.3079  0.0861
18783W        W34252   0.955  11.136   3.707 -0.0490 -0.2415  0.0592
18784W        W34253   2.296  16.656  11.495 -0.2127 -0.2834 -0.3511
18785W        W34254   2.344   8.312   2.874 -0.2491 -0.2899 -0.2434
18786W        W34255  11.289   6.617   0.264 -0.1265  0.1041 -0.0096
18787W        W34256   8.046   5.469  13.900  0.2513 -0.1108 -0.0615
18788W        W34257   1.314  12.273   3.736  0.0585 -0.2506 -0.2187
18789W        W34258   8.833   8.595  14.201 -0.1036 -0.0617  0.3388
18790W        W34259   4.857   3.758   0.242 -0.4036 -0.2186 -0.0157
18791W        W34260   6.493  12.317  14.888 -0.0144  0.3090 -0.0967
18792W        W34261  13.653  14.453   4.609  0.0423  0.2647 -0.0944
18793W        W34262  12.665   6.691  14.004  0.2272 -0.1712 -0.0110
18794W        W34263   7.484   2.407   3.184  0.0677  0.0672 -0.0606
18795W        W34264  14.471  16.531  15.533  0.3127 -0.0158 -0.0230
18796W        W34265   7.369   6.669  14.272 -0.3080  0.0130 -0.0834
18797W        W34266   2.481  16.995   2.427 -0.1654  0.0840 -0.2177
18798W        W34267  15.666   2.242   1.689 -0.0812 -0.0114  0.3802
18799W        W34268   9.578   9.480   4.725 -0.0311 -0.0458 -0.0995
18800W        W34269  10.044  11.136  14.354  0.3421  0.2305  0.0827
18801W        W34270  16.779   3.346  14.730 -0.0598 -0.0175  0.0848
18802W        W34271   5.716   6.867  12.829 -0.1641  0.0034  0.1005
18803W        W34272   2.217   3.769   2.054  0.1176  0.3267  0.2072
18804W        W34273  13.405   8.689   2.268  0.0200 -0.0802 -0.3550
18805W        W34274  14.064   7.092   3.982 -0.0921  0.0550 -0.4525
18806W        W34275  18.471   8.825  15.876  0.0163  0.1300 -0.0664
18807W        W34276   0.934   4.981  13.095 -0.0076 -0.1239 -0.4389
18808W        W34277  13.005  10.911  11.355 -0.0746 -0.3068 -0.1104
18809W        W34278   1.621   7.185  14.147 -0.0783  0.0696  0.0478
18810W        W34279  14.842  15.261   1.538 -0.0665 -0.0235  0.0771
18811W        W34280  15.785   6.294   1.757 -0.0693 -0.1152  0.2156
18812W        W34281  17.888  10.447  11.028 -0.0679 -0.2140 -0.3769
18813W        W34282   6.576   2.273  14.513 -0.0802  0.0962 -0.0702
18814W        W34283   9.841   6.886  13.048  0.0213  0.4394  0.1110
18815W        W34284   1.411   1.940  11.407 -0.1941  0.0207 -0.2148
18816W        W34285   9.672  15.669   5.633 -0.0428  0.1482  0.0811
18817W        W34286   4.301   2.202  14.313  0.1115  0.0427 -0.1975
18818W        W34287   7.678   4.695  13.968  0.0473  0.1071  0.0530
18819W        W34288  14.450   3.335  11.807 -0.0448  0.1549  0.0618
18820W        W34289   1.518   7.512  13.260  0.0273  0.2365  0.1907
18821W        W34290  16.595   8.508  11.472  0.1949  0.0924 -0.0288
18822W        W34291   2.899  13.895  10.649  0.2398 -0.1757  0.0220
18823W        W34292  16.374   7.381  15.847 -0.0669  0.0263  0.0151
18824W        W34293  10.116   7.202  11.535  0.0057 -0.1504 -0.1969
18825W        W34294   8.177   8.493  13.237  0.0357 -0.1039  0.0102
18826W        W34295   5.843  11.943  11.488 -0.1779 -0.1234  0.0519
18827W        W34296  16.214   3.435   2.799  0.3716  0.2605  0.1726
18828W        W34297   7.609  12.640   1.684  0.0214 -0.1267 -0.4711
18829W        W34298   2.812   0.964   3.311  0.2473  0.0107  0.1804
18830W        W34299   9.959   1.586  12.326 -0.5368  0.4168  0.3652
18831W        W34300   4.096   1.212   4.326 -0.1126  0.2391 -0.1386
18832W        W34301  12.511   2.352  12.878  0.0381  0.3277 -0.0352
18833W        W34302   4.721  10.940   0.550 -0.1873  0.4001 -0.4322
18834W        W34303   5.140  12.684  14.800  0.0420 -0.1114  0.0311
18835W        W34304   8.956   4.599   0.023  0.0387 -0.2443  0.3580
18836W        W34305   3.786   2.544   5.507 -0.1147  0.1725 -0.0350
18837W        W34306   0.420  10.287  11.781 -0.0453  0.0906 -0.3454
18838W        W34307   0.297   7.984   4.190  0.1876 -0.1968 -0.0051
18839W        W34308   1.923   2.804   1.084  0.3095  0.0352  0.2473
18840W        W34309   3.998  18.312  12.966 -0.1875 -0.0593  0.4860
18841W        W34310  13.720  16.148   3.378 -0.3441 -0.2824  0.0106
18842W        W34311   9.479  17.478  15.335 -0.2253 -0.0957 -0.0195
18843W        W34312   8.287   6.984  15.080  0.1392  0.1008 -0.1931
18844W        W34313  15.480   5.909  12.672  0.1278  0.2729 -0.1816
18845W        W34314  15.337  10.092   5.554  0.0167 -0.1717 -0.0350
18846W        W34315   9.692  11.492   0.274  0.5886  0.0917 -0.1074
18847W        W34316   0.227   4.955   2.361 -0.1912  0.1414  0.0947
18848W        W34317   8.401  12.090  11.051 -0.0786 -0.0240 -0.2468
18849W        W34318   1.679   9.675   1.946  0.0409 -0.1549 -0.2009
18850W        W34319   4.151   9.303  14.332  0.1074 -0.2867 -0.0954
18851W        W34320   3.423  10.820  13.366  0.0446 -0.0738 -0.0234
18852W        W34321  14.238   8.523  15.258 -0.0967  0.0321  0.2148
18853W        W34322   2.089  16.121   0.194 -0.0473  0.0703  0.0487
18854W        W34323  12.676  14.818   4.755 -0.2211 -0.3116 -0.2780
18855W        W34324  11.780   3.834   3.686 -0.0617  0.2731 -0.1152
18856W        W34325  12.254   8.485   4.165 -0.3030 -0.2710  0.0380
18857W        W34326  10.458   5.227  14.489 -0.2284 -0.0095 -0.0103
18858W        W34327   4.316  13.087   3.022  0.1822  0.0496 -0.2143
18859W        W34328  11.530   6.216  13.061 -0.0685 -0.0263  0.3075
18860W        W34329   4.943   7.967   3.930 -0.0937  0.0294  0.2944
18861W        W34330   2.220   3.969  12.859 -0.1238  0.3040  0.0954
18862W        W34331   4.377  16.705   5.644 -0.3868 -0.1447 -0.1923
18863W        W34332  11.848  12.512   4.374  0.0372  0.0616  0.2187
18864W        W34333   8.942   3.783   0.484 -0.0998 -0.2243  0.4165
18865W        W34334  15.058   2.733   4.226 -0.2547  0.1436  0.2890
18866W        W34335   6.201  12.011   4.153  0.0921 -0.1678  0.2064
18867W        W34336  10.025  12.413  13.762 -0.1296  0.1697  0.2404
18868W        W34337   6.550   2.832   2.154 -0.1587 -0.0176 -0.1168
18869W        W34338   8.372   1.400  12.145  0.0620 -0.0998 -0.0428
18870W        W34339   4.217  17.089   1.225  0.0291  0.1002  0.1109
18871W        W34340  10.776  13.365  13.738 -0.1639  0.0765 -0.2169
18872W        W34341   0.001   7.973   4.939  0.3990  0.2093  0.1352
18873W        W34342   8.881  14.464   5.500  0.1464  0.0535 -0.3193
18874W        W34343  12.865  13.521  13.124 -0.0212 -0.0657  0.0509
18875W        W34344  14.939  17.741   2.671 -0.0150  0.1448 -0.0242
18876W        W34345  14.469   1.269   4.274  0.2940 -0.3190 -0.1186
18877W        W34346   1.443   1.916  15.180 -0.1159  0.1319 -0.0026
18878W        W34347  11.638   0.841  13.513  0.0408  0.3252 -0.1699
18879W        W34348  15.858  15.890  12.334  0.0480 -0.0130 -0.2497
18880W        W34349   8.723  17.694   0.696 -0.0673  0.1215  0.2118
18881W        W34350  12.455   1.539  11.119 -0.1611 -0.0100  0.3879
18882W        W34351  14.514  16.413  13.957  0.5178 -0.1743  0.0807
18883W        W34352  11.215   1.543   1.991 -0.0596 -0.1248 -0.1826
18884W        W34353   9.541  11.047  12.513 -0.1761 -0.0975 -0.1645
18885W        W34354  14.782   1.358   1.625 -0.0435 -0.1399 -0.1599
18886W        W34355   4.622  13.355   5.364  0.0165  0.1737 -0.0363
18887W        W34356   9.975  15.776   2.550 -0.1018  0.2386  0.0134
18888W        W34357   3.621  12.852  13.118 -0.1001  0.0945  0.2849
18889W        W34358   9.404  12.640   2.755  0.0834 -0.4532  0.0145
18890W        W34359  10.531   5.853  12.703 -0.3898  0.2258  0.2110
18891W        W34360   3.196  14.142   1.318 -0.0216 -0.2150 -0.2521
18892W        W34361  11.258  13.649  11.323 -0.2326  0.2555 -0.0549
18893W        W34362  17.943   0.309   2.293 -0.1857  0.2112 -0.1859
18894W        W34363  17.412   1.922  12.211 -0.1935 -0.1755 -0.2465
18895W        W34364  12.562   8.478   0.898 -0.1835  0.1358  0.0120
18896W        W34365   8.290   5.833   3.259  0.1332  0.1243  0.0342
18897W        W34366   9.593  11.064   1.485 -0.1202 -0.0751 -0.0101
18898W        W34367   1.243   6.699   3.492 -0.0389 -0.1033 -0.1510
18899W        W34368   4.285   5.942   4.202 -0.3224 -0.1840 -0.0528
18900W        W34369   3.755  16.395  15.178 -0.1192  0.1166 -0.2180
18901W        W34370   0.503  11.849   3.765  0.1660 -0.1429 -0.4219
18902W        W34371  10.768  13.155   2.979 -0.0768  0.1261  0.0390
18903W        W34372   3.148  11.649   2.866 -0.2407 -0.0044 -0.1126
18904W        W34373   7.338  10.817  12.236 -0.0366 -0.2644 -0.3670
18905W        W34374  12.342   9.962  12.197 -0.2643 -0.1268  0.0856
18906W        W34375   9.598  16.990  15.773  0.0122  0.1305 -0.2730
18907W        W34376   9.505   0.518   1.360 -0.1315 -0.1918  0.0323
18908W        W34377  13.383   7.830   2.906  0.0075 -0.0182 -0.0956
18909W        W34378   4.201   3.689   5.587  0.0662 -0.0615  0.1637
18910W        W34379   4.095   1.270   1.964 -0.0635  0.1573 -0.1783
18911W        W34380  13.984  14.036  14.427  0.2014  0.0939 -0.1386
18912W        W34381  13.224  12.454   2.143 -0.1583  0.1204 -0.2065
18913W        W34382   7.057  15.424  13.063  0.2050  0.0241  0.2300
18914W        W34383  11.990  12.570   1.678  0.1290 -0.0914 -0.0344
18915W        W34384   5.088   1.753   3.616  0.0184  0.0799  0.0329
18916W        W34385   7.319  13.689   4.994 -0.3741  0.1424 -0.0679
18917W        W34386   7.274  17.542  10.872  0.0397  0.0629 -0.0320
18918W        W34387   4.376  11.493   1.834 -0.1372  0.1071 -0.2514
18919W        W34388  11.521  11.532   0.657 -0.0572 -0.1118  0.1976
18920W        W34389  14.922   1.253   0.295  0.1467  0.2463  0.0464
18921W        W34390   2.006   4.285   1.188  0.4909 -0.0892  0.3252
18922W        W34391   7.372   1.830  15.328 -0.0045  0.2513  0.2675
18923W        W34392   1.586   1.176   5.313  0.1454 -0.0141  0.1470
18924W        W34393  18.124   7.781  12.342  0.1702 -0.0355  0.0736
18925W        W34394  17.759  15.278  15.572  0.1408 -0.2615  0.0004
18926W        W34395   3.449  17.245  15.596  0.0935  0.1600 -0.3935
18927W        W34396  15.341   4.502   4.344 -0.0016  0.0844  0.3478
18928W        W34397  13.760  10.105  13.504  0.3307  0.0805 -0.2952
18929W        W34398   7.921  11.075   0.590  0.1511 -0.0484  0.1817
18930W        W34399  12.776  16.667  13.394  0.2256 -0.0718 -0.1060
18931W        W34400  18.442  14.941   3.559  0.4448 -0.0539 -0.1473
18932W        W34401   0.308   1.396  12.711  0.1842 -0.1608 -0.0952
18933W        W34402  14.319  17.329  15.104 -0.1954  0.1531  0.2196
18934W        W34403   0.401  13.064  13.265 -0.1988 -0.1584 -0.0545
18935W        W34404  17.170  18.476   1.282  0.2155  0.1610  0.0330
18936W        W34405   3.945   8.534  12.943 -0.0904  0.0695  0.1555
18937W        W34406  17.138  14.287  11.223  0.0951 -0.0187  0.2595
18938W        W34407   6.785  15.028  12.670  0.2029  0.1499 -0.3228
18939W        W34408   5.439   4.633  14.922 -0.0050 -0.0257  0.1590
18940W        W34409  11.287  11.596   1.168 -0.1677 -0.1111  0.2392
18941W        W34410   2.160  14.119  15.347  0.1887  0.0347  0.0892
18942W        W34411  13.622   1.949  14.515  0.0894  0.0750  0.1499
18943W        W34412  18.328  16.888   1.097  0.0721  0.0798  0.0373
18944W        W34413   0.271   2.330   1.998 -0.1795 -0.1160  0.0671
18945W        W34414   8.487   4.041   0.573 -0.1722  0.1059  0.0035
18946W        W34415  11.635  12.421   3.197  0.0983  0.2225 -0.0366
18947W        W34416   8.969  11.844  15.808  0.3074 -0.2771 -0.0809
18948W        W34417  13.301   0.737   2.969 -0.2246  0.2052 -0.2450
18949W        W34418   2.189   1.758   4.430  0.1544  0.0944  0.0648
18950W        W34419  16.205   5.877   3.823 -0.3746  0.3494 -0.1600
18951W        W34420   3.247   8.991   0.912 -0.1048 -0.1339  0.4432
18952W        W34421  12.153   4.276  14.633  0.0189  0.0627  0.0190
18953W        W34422  15.339  13.756  12.427  0.2406  0.2766  0.1885
18954W        W34423  13.165   2.806  11.728 -0.1209 -0.1788 -0.3343
18955W        W34424   7.533  14.315  15.034 -0.3361 -0.1366  0.2464
18956W        W34425  10.143   9.985  15.639  0.1567 -0.0172 -0.0191
18957W        W34426   1.968   1.959   1.234 -0.3979 -0.3385 -0.1427
18958W        W34427   3.853  14.375   2.457  0.0350  0.1941  0.2904
18959W        W34428  17.479   8.343  15.130  0.2001 -0.1903  0.4119
18960W        W34429  16.258   0.237  10.650 -0.1046 -0.0610 -0.3993
18961W        W34430  10.622  10.971   5.696 -0.1299  0.0785 -0.0987
18962W        W34431   7.813   3.967   2.140 -0.0394 -0.1152  0.1840
18963W        W34432   2.767  11.705  12.367 -0.0344 -0.1970  0.1754
18964W        W34433   5.449   6.608   1.753  0.0893 -0.0418 -0.2435
18965W        W34434  15.148  14.959  13.504  0.2381 -0.2500  0.0006
18966W        W34435  11.439   7.580   2.718  0.1407  0.0326  0.2780
18967W        W34436   0.958   2.455  13.493  0.1422  0.1400 -0.1134
18968W        W34437   1.663   1.853   5.557 -0.1942 -0.0955  0.0504
18969W        W34438   2.599   5.322  15.177  0.2760  0.2324  0.1487
18970W        W34439  18.300  13.836   0.547  0.0190  0.1215 -0.2803
18971W        W34440   4.793   2.016   4.740 -0.1498 -0.0712  0.1615
18972W        W34441   4.643  11.629  10.463  0.1548  0.0675 -0.0081
18973W        W34442   0.443   7.674   3.759 -0.2969 -0.3411 -0.1732
18974W        W34443  13.908   6.799   0.275  0.1318 -0.0120  0.1636
18975W        W34444   9.068  16.656   1.619  0.2248  0.1969  0.1808
18976W        W34445   4.416  10.520   5.183 -0.0168 -0.0092 -0.0472
18977W        W34446   4.433   9.413   5.919 -0.1026 -0.1717  0.1586
18978W        W34447  17.597  16.878   2.095  0.0837 -0.0179  0.1483
18979W        W34448  13.076   5.442  13.042  0.2821 -0.0192 -0.0798
18980W        W34449   5.907  15.417   0.349  0.0350  0.3887  0.1075
18981W        W34450   2.556   2.870  13.833 -0.0619 -0.1674 -0.1354
18982W        W34451   7.599  18.482  12.898  0.1101 -0.0384  0.3834
18983W        W34452  15.369  16.440   5.599 -0.1538 -0.0290 -0.2913
18984W        W34453  13.689   7.497   3.969 -0.0657  0.0219 -0.1052
18985W        W34454  15.276   9.557   5.589 -0.1324 -0.1634  0.2028
18986W        W34455   2.104   5.897  10.696 -0.0140 -0.3186 -0.2409
18987W        W34456  15.278   7.671   4.380 -0.0288 -0.2872 -0.3106
18988W        W34457   4.355  11.739   3.510 -0.1162 -0.1750  0.0630
18989W        W34458  13.947  12.680  14.244  0.0840  0.0752  0.1605
18990W        W34459  10.342  17.628   4.267 -0.1318  0.2788 -0.1360
18991W        W34460   4.336   0.644   3.460 -0.0505  0.3127  0.2275
18992W        W34461   6.811  17.971  14.307  0.2325  0.1166 -0.0189
18993W        W34462   4.440  13.007  15.672 -0.1662  0.0125  0.0134
18994W        W34463   3.916  13.464  11.470  0.0195  0.0343  0.1135
18995W        W34464  14.750   9.716  11.065  0.3835  0.2356 -0.0306
18996W        W34465   0.395   5.133   3.352 -0.0802  0.0896 -0.0681
18997W        W34466  14.013   5.244   9.538  0.1530  0.1793  0.5208
18998W        W34467   6.945   7.508  14.786  0.0210 -0.1283 -0.3878
18999W        W34468  18.343   0.139   0.392 -0.2213  0.1318  0.1537
19000W        W34469  16.141  13.508  10.917  0.2892 -0.2999  0.0120
19001W        W34470   2.546  10.011   2.093 -0.1164  0.5046 -0.1389
19002W        W34471   9.971   6.514   3.176 -0.0914  0.3208 -0.0894
19003W        W34472   1.131   1.273  13.545  0.2833 -0.1529  0.1719
19004W        W34473  13.926  10.133   4.063  0.0839  0.1994 -0.0963
19005W        W34474   6.887   5.525   4.575  0.1429  0.0809  0.1888
19006W        W34475   3.919   4.654  12.123  0.1297  0.0555 -0.1782
19007W        W34476   1.661  15.461   5.289  0.0057  0.0653 -0.2827
19008W        W34477   4.653   5.626   5.035  0.2028  0.1599 -0.1393
19009W        W34478  15.655  10.098  14.033  0.0395 -0.3867 -0.1575
19010W        W34479   1.901   8.675  10.811 -0.0231  0.3012  0.1091
19011W        W34480  11.881  10.874   6.335  0.0977  0.1379  0.1224
19012W        W34481   2.359  12.642   1.906  0.0926 -0.0692 -0.2855
19013W        W34482   1.417  14.308  12.862 -0.1673 -0.0956  0.0013
19014W        W34483   0.503   8.488   5.471 -0.0237 -0.1611 -0.1815
19015W        W34484  12.496  10.779   5.341  0.2200 -0.0345 -0.2021
19016W        W34485   9.860  13.275   4.225  0.2427  0.0100 -0.2147
19017W        W34486  11.820   1.179  12.234  0.2736  0.1868 -0.1104
19018W        W34487  16.509  13.600  11.408  0.2444 -0.0782 -0.0528
19019W        W34488  17.848   1.386  13.137 -0.0236 -0.0289 -0.1502
19020W        W34489   7.102  11.075   3.935 -0.3709 -0.0407 -0.1882
19021W        W34490  10.384  15.743   6.543  0.1503 -0.0954 -0.1336
19022W        W34491   1.458  14.315  11.971 -0.2134  0.3042 -0.1236
19023W        W34492   8.862  17.550  12.062  0.0491  0.0180 -0.0501
19024W        W34493  17.121  11.638   0.035 -0.0298 -0.1564 -0.1851
19025W        W34494   7.654   7.781   1.414  0.0066  0.2677 -0.3473
19026W        W34495  16.335   6.280   3.501 -0.0579  0.1026  0.0866
19027W        W34496  14.969  13.035  14.238 -0.1182  0.0878  0.1977
19028W        W34497   4.324   5.922   0.881  0.1636 -0.0375  0.5010
19029W        W34498   6.942   1.326  12.336  0.1359  0.0663 -0.1191
19030W        W34499   1.040   8.426  13.098  0.0538  0.0754 -0.0611
19031W        W34500   4.491  13.774   1.823  0.0651 -0.0989 -0.2117
19032W        W34501  13.511  17.993  11.847 -0.0284 -0.2968 -0.0729
19033W        W34502  13.090   9.534   1.290  0.1416 -0.0795 -0.0097
19034W        W34503  13.353  17.559   4.387 -0.0854 -0.0894 -0.1566
19035W        W34504  16.645   7.301   0.345 -0.3613 -0.0492  0.1911
19036W        W34505   2.849   4.859  15.365  0.1482  0.0590 -0.0960
19037W        W34506  13.462  12.255   3.471  0.0593  0.1896 -0.1790
19038W        W34507   6.770  15.137   3.557 -0.0040  0.0637 -0.4802
19039W        W34508  10.137   8.170  10.732 -0.1077 -0.0517  0.0112
19040W        W34509   9.153   4.354  10.650 -0.1493 -0.0728  0.1488
19041W        W34510   3.965  17.270   4.359  0.3763  0.3339  0.0980
19042W        W34511   2.111   9.090   0.757 -0.2109  0.1313 -0.2129
19043W        W34512  17.797   1.705   0.230  0.0362  0.1545  0.1501
19044W        W34513  11.271  15.585   0.870  0.1259 -0.1551  0.0419
19045W        W34514  14.122   4.561  10.343 -0.0386 -0.4581  0.1144
19046W        W34515   8.521   0.749  11.764 -0.0861 -0.0964  0.0823
19047W        W34516   8.462  18.352  11.882  0.0639  0.3835 -0.2905
19048W        W34517   2.688  14.995   0.749 -0.1169  0.2144 -0.1430
19049W        W34518  14.389  15.202   1.518 -0.3187  0.1116  0.1402
19050W        W34519   9.365   5.049  11.672 -0.4304  0.2478 -0.2213
19051W        W34520  11.760  17.196  14.276  0.1814  0.1348  0.3907
19052W        W34521  17.291  11.721  12.279  0.0608  0.0859  0.2484
19053W        W34522   0.623  10.994  10.971 -0.2254 -0.0601  0.1344
19054W        W34523  13.413   4.102   2.725  0.0645 -0.1215  0.0213
19055W        W34524   0.550   3.039   1.399 -0.3868 -0.0179 -0.1898
19056W        W34525  10.512  18.349   5.155  0.1604 -0.0960  0.1188
19057W        W34526   6.912   8.279   2.272 -0.3612 -0.1596  0.1017
19058W        W34527   8.331   8.559  14.236 -0.0369 -0.0918 -0.2040
19059W        W34528  11.339   3.070   3.578 -0.0662  0.2118 -0.0284
19060W        W34529  18.382   3.304  14.471 -0.2762  0.1822  0.0083
19061W        W34530   9.185   4.481  14.803  0.0901 -0.1464 -0.1076
19062W        W34531   6.015   4.066   2.658 -0.0781  0.0874  0.2263
19063W        W34532   1.938  13.748  13.112  0.0564  0.0198  0.2044
19064W        W34533  16.680   2.368  11.055 -0.2446 -0.1213 -0.0904
19065W        W34534  15.850  12.668  14.899  0.0385 -0.0470 -0.2098
19066W        W34535  13.509   2.371  14.188  0.0652  0.0813  0.0336
19067W        W34536   1.492   9.623   2.499  0.1740 -0.1927  0.0537
19068W        W34537   2.269   0.395  12.876  0.0896 -0.2824 -0.0182
19069W        W34538  11.780  14.609   3.037 -0.2270 -0.3843  0.0779
19070W        W34539   3.855  12.406  14.594  0.0572  0.1732 -0.0358
19071W        W34540  14.510  16.055  14.713 -0.1785  0.0954  0.0007
19072W        W34541   1.078   8.756   2.048 -0.1785  0.1578  0.1497
19073W        W34542   6.695   6.067  14.180  0.0362  0.3331 -0.0797
19074W        W34543  11.818  10.206  15.886  0.1454 -0.1419 -0.2600
19075W        W34544   8.881   4.845   1.182  0.0490 -0.1218  0.0196
19076W        W34545  13.793   7.001  13.836  0.1545  0.4984  0.1851
19077W        W34546  16.962   8.799  15.536  0.0397  0.0891  0.1359
19078W        W34547   7.507   5.611  12.956  0.0892 -0.1795 -0.0809
19079W        W34548   8.833   3.784  15.508 -0.1813 -0.1997 -0.1861
19080W        W34549   7.760   2.828  12.265 -0.2004 -0.0164 -0.1249
19081W        W34550   4.382  13.281  11.631 -0.2016  0.2439 -0.1470
19082W        W34551   4.382   2.730   3.027 -0.0130  0.0549  0.1576
19083W        W34552   6.546   2.492   5.867  0.1902 -0.1828 -0.1075
19084W        W34553  12.561  17.214  12.944 -0.0015  0.3755  0.1382
19085W        W34554   0.503   3.746   2.168  0.2002 -0.0084  0.0226
19086W        W34555   4.137  17.492  15.029  0.0526  0.2117 -0.2252
19087W        W34556  11.806  10.145   5.852 -0.0577  0.1228  0.0577
19088W        W34557   0.622   4.991   4.907 -0.1561 -0.0608  0.1274
19089W        W34558   2.372  15.318   0.558 -0.0234 -0.1105  0.1111
19090W        W34559  10.433  14.773  15.543  0.3896 -0.2203 -0.0266
19091W        W34560   6.534   2.061  14.992  0.2165  0.0529  0.2739
19092W        W34561   6.965   9.398   3.215 -0.1234 -0.1782 -0.0304
19093W        W34562  10.838   5.629   3.739 -0.0426 -0.0906  0.3057
19094W        W34563   2.710  17.149  13.072  0.4429 -0.1532  0.0722
19095W        W34564   9.482   7.658  13.347  0.2139  0.0300  0.3320
19096W        W34565   0.295  17.756   2.604 -0.0353  0.2005  0.2467
19097W        W34566  12.735   1.719  13.268 -0.0635  0.0334 -0.1897
19098W        W34567  12.644   0.133   5.310  0.3267  0.0801 -0.1532
19099W        W34568  12.299  10.046   4.623 -0.1571  0.0420  0.1173
19100W        W34569   5.924  11.721  12.448 -0.0452 -0.0533  0.2769
19101W        W34570   6.726  12.827  14.518 -0.3631 -0.0633  0.2907
19102W        W34571   6.835  16.185  11.196  0.3534 -0.3101 -0.1500
19103W        W34572  18.192   8.952  10.902  0.0849 -0.1358  0.1015
19104W        W34573   7.464  13.821  14.950  0.2664  0.1696 -0.1782
19105W        W34574   9.404  14.818  11.492  0.3248 -0.3207  0.0551
19106W        W34575   3.186  11.494   1.968 -0.0524  0.0380  0.0735
19107W        W34576  14.234   3.715   3.893 -0.1905 -0.0315 -0.0066
19108W        W34577   4.624   1.494   4.882 -0.1269 -0.1431  0.0166
19109W        W34578   0.864   2.877   5.435 -0.0764 -0.1083  0.4505
19110W        W34579  10.504  14.299  14.559 -0.2344  0.1866  0.2787
19111W        W34580   3.364  14.225  10.836 -0.1529 -0.0333 -0.2079
19112W        W34581  15.082   9.901   4.164  0.0523 -0.0569 -0.0650
19113W        W34582  13.220  11.785   5.190 -0.1714  0.1019 -0.0605
19114W        W34583  17.135   3.970  11.816 -0.5232 -0.0402 -0.0345
19115W        W34584  16.997   9.785  13.355 -0.4000  0.2612 -0.1090
19116W        W34585   1.299   1.517  11.710  0.1564 -0.1155 -0.1908
19117W        W34586   9.124  12.255   0.524 -0.0791  0.2064 -0.2063
19118W        W34587   1.366  12.192   2.790  0.0626 -0.0150 -0.0665
19119W        W34588  10.512   7.613   1.123 -0.1519  0.2004  0.2491
19120W        W34589  15.403   1.575   3.080  0.1149  0.1213  0.0366
19121W        W34590   9.868   7.370   4.468  0.2564  0.0200 -0.1134
19122W        W34591   8.994   8.849  11.112  0.0059 -0.1224 -0.2813
19123W        W34592   4.545  10.972   4.656 -0.2296  0.1410 -0.1790
19124W        W34593  11.751  13.273  12.943  0.3119 -0.0358  0.0320
19125W        W34594  13.814   8.277   0.093  0.0210 -0.0405  0.0155
19126W        W34595   6.395   0.069   2.152 -0.1701 -0.3833 -0.2129
19127W        W34596   3.762   2.784   5.060  0.0511 -0.1137  0.1783
19128W        W34597  12.221   2.519   2.473 -0.1822 -0.0505  0.0901
19129W        W34598   5.012   4.532  14.823  0.1584 -0.2190 -0.1793
19130W        W34599  16.600   6.508   3.114 -0.1740  0.2352  0.1204
19131W        W34600  17.786   3.441  14.477  0.0821  0.4549  0.1452
19132W        W34601  16.409   8.067   4.401  0.1163  0.0839  0.1125
19133W        W34602   0.996  14.696   4.350 -0.0721 -0.3400 -0.2089
19134W        W34603  11.276  14.572   1.361 -0.1115  0.3713 -0.1449
19135W        W34604   8.903   2.697   4.938  0.0798  0.0972 -0.4138
19136W        W34605   7.677  10.573  12.680 -0.0546 -0.2527 -0.1130
19137W        W34606  16.408   7.028   2.402  0.0188  0.0798  0.3933
19138W        W34607   3.612  12.786  12.496  0.0797 -0.0420  0.1906
19139W        W34608   4.808  17.907  13.476  0.4963  0.0452  0.0435
19140W        W34609  15.428  11.360  13.395  0.0551 -0.1812 -0.2274
19141W        W34610   8.542  13.290   1.406  0.1435  0.5509  0.0124
19142W        W34611  16.545  14.360  13.083 -0.0696  0.0318 -0.2281
19143W        W34612   9.190  12.406  11.310  0.1546  0.2163  0.0486
19144W        W34613  10.825  10.524  11.458 -0.1766 -0.1773  0.1007
19145W        W34614   7.622   2.676   4.532  0.0024  0.2005  0.0723
19146W        W34615  17.709   8.737   0.673  0.1558 -0.0677  0.0475
19147W        W34616   9.730   0.076  12.956 -0.0837 -0.0787  0.0357
19148W        W34617   2.294   0.912  13.876  0.2046  0.1278 -0.0163
19149W        W34618   4.946  13.704   5.640  0.1910  0.2235 -0.2252
19150W        W34619   3.299  10.694   0.542 -0.0342  0.1624 -0.1575
19151W        W34620  13.281   6.941   3.181  0.0777  0.0756  0.1576
19152W        W34621   9.247   5.768   4.805 -0.0792  0.1950  0.2971
19153W        W34622   4.815  13.459   4.455  0.0460 -0.2733 -0.1942
19154W        W34623   7.928   6.294  12.079 -0.0383 -0.4133  0.1760
19155W        W34624  17.684  11.449  12.367 -0.0995  0.4204 -0.1932
19156W        W34625   8.436   9.023  14.995 -0.0563 -0.1275 -0.1297
19157W        W34626   1.364  18.401   1.136  0.0763  0.0773  0.0822
19158W        W34627  17.896   6.071   0.295  0.3427 -0.0353  0.2072
19159W        W34628   8.061  12.541   2.704 -0.4442 -0.2276 -0.0675
19160W        W34629   0.625  16.611  14.859 -0.1486 -0.2058  0.0079
19161W        W34630   0.257   4.061   3.329 -0.1958  0.2601  0.1262
19162W        W34631  12.686   4.708  13.517 -0.0680  0.1552  0.0509
19163W        W34632   6.539   5.280  10.913  0.1926  0.0527  0.1741
19164W        W34633  16.863  12.206  11.898 -0.3211  0.2162 -0.0145
19165W        W34634  15.210  14.971   4.506  0.2850 -0.2886 -0.1130
19166W        W34635   9.308   9.587  13.644 -0.2127  0.2820  0.4211
19167W        W34636  14.368   2.827   3.403  0.1561 -0.0478 -0.0913
19168W        W34637   6.273  12.768   2.842 -0.0968  0.0428  0.0479
19169W        W34638   7.734  10.469   3.216  0.2142  0.1553 -0.2164
19170W        W34639  15.653  12.333  13.429  0.2289 -0.1127  0.3599
19171W        W34640  13.765   9.945  11.246  0.0821 -0.2948 -0.0604
19172W        W34641  17.737  10.132   3.538 -0.0254  0.2074 -0.2034
19173W        W34642   5.381  17.881   0.083  0.0284  0.0433 -0.1242
19174W        W34643   5.962   4.787  14.081  0.0979 -0.0241 -0.0578
19175W        W34644   7.623  12.476  10.295 -0.0419  0.1376  0.1019
19176W        W34645   5.097  13.730  14.482 -0.0511 -0.1356  0.0075
19177W        W34646  16.953  15.399   1.200 -0.1522 -0.4975 -0.2437
19178W        W34647   2.188  14.410   1.381  0.0403 -0.1042 -0.2903
19179W        W34648  15.907  10.325  11.881  0.4311  0.1542 -0.0774
19180W        W34649   9.635  18.331   2.718 -0.1143 -0.1524  0.0144
19181W        W34650  17.573  15.962  14.759  0.1996  0.3106  0.2375
19182W        W34651  11.259  14.716  12.786 -0.3267 -0.0787 -0.2744
19183W        W34652   0.938  11.145   3.087 -0.0504 -0.1506 -0.3400
19184W        W34653   2.979   8.922  13.017 -0.1057  0.1371 -0.1312
19185W        W34654   6.899  14.661   4.671  0.1993  0.2747 -0.1432
19186W        W34655   9.714  12.759   3.166 -0.1170 -0.1672  0.0939
19187W        W34656  14.966  16.101   1.163 -0.0837 -0.0837  0.5222
19188W        W34657  13.662  17.398   2.279  0.1061  0.3671 -0.0478
19189W        W34658  10.313   3.343  11.874 -0.3501 -0.1956  0.0757
19190W        W34659   2.231  18.352   3.979  0.0029 -0.2325  0.3058
19191W        W34660  18.125  11.436  13.663 -0.2665 -0.3000 -0.1390
19192W        W34661   9.734   3.082   3.200 -0.1455 -0.0948  0.1954
19193W        W34662   6.700   9.182   4.149 -0.2848 -0.2597  0.3381
19194W        W34663   8.601   7.010   4.711  0.1327  0.3981  0.0451
19195W        W34664   2.115  13.676   2.885 -0.0422 -0.2478 -0.1910
19196W        W34665   1.020   5.722   5.446  0.0390 -0.1805 -0.0747
19197W        W34666   7.217   6.499   1.322 -0.0875 -0.2924 -0.0617
19198W        W34667   2.441  18.236  14.229  0.5074 -0.0296 -0.2459
19199W        W34668  17.765   6.400   3.220 -0.1985  0.0282  0.0546
19200W        W34669   2.603  18.098  11.250 -0.1633 -0.1698 -0.1149
19201W        W34670   7.192  15.265   1.241 -0.2661  0.2119  0.0494
19202W        W34671   9.795  15.664  12.908  0.0783  0.0911 -0.1477
19203W        W34672  16.945  11.898   1.266  0.0449  0.4921  0.0099
19204W        W34673  10.731  16.568   2.231 -0.0134 -0.1536  0.2791
19205W        W34674  12.725  17.163   5.902 -0.0085  0.1599 -0.0519
19206W        W34675   7.654   1.529  12.588  0.2838 -0.0799  0.1890
19207W        W34676   2.923   0.138  13.914  0.0015 -0.3579 -0.1676
19208W        W34677   7.508   5.093  15.058  0.0236 -0.0552  0.1976
19209W        W34678   5.224   5.120  14.829  0.0931  0.2265 -0.0206
19210W        W34679   3.521  12.125   4.451  0.1777 -0.1588 -0.0679
19211W        W34680  18.046   9.690  14.965 -0.1003  0.0405  0.1040
19212W        W34681  12.324   7.681   4.853 -0.1792  0.1403 -0.1905
19213W        W34682   9.792  15.384   2.310  0.2805  0.1575 -0.1360
19214W        W34683  12.100   3.191  11.595  0.2748 -0.0929  0.3173
19215W        W34684   3.258  12.582  12.880  0.0278 -0.0808 -0.0245
19216W        W34685   3.823  12.039   1.430  0.0213  0.0279  0.2942
19217W        W34686  15.254  12.199   2.923  0.1156  0.0975  0.2390
19218W        W34687   4.340  16.646   0.120  0.1024  0.2568 -0.0941
19219W        W34688  10.020  18.394   3.106  0.0701 -0.2038 -0.1376
19220W        W34689   1.758  18.236   3.403 -0.3600  0.0225 -0.0722
19221W        W34690  10.257   7.756   2.146 -0.1769  0.0008 -0.3508
19222W        W34691  14.577   0.997  13.494  0.2072 -0.2386 -0.1124
19223W        W34692  10.838  14.473   1.538 -0.1643 -0.0761  0.2320
19224W        W34693   3.249   9.351  11.397  0.0509  0.1509 -0.0441
19225W        W34694   6.868   9.955  10.821 -0.2227  0.1853 -0.2321
19226W        W34695   0.323   8.728  15.018 -0.0333 -0.3356 -0.2413
19227W        W34696  17.081  11.502   1.762 -0.1148 -0.0603  0.1153
19228W        W34697  15.251   4.231  15.593 -0.0120  0.0332  0.1517
19229W        W34698   2.029   1.874  15.837 -0.1705 -0.1582  0.0043
19230W        W34699  12.684  14.233   5.055 -0.0993  0.0281 -0.1017
19231W        W34700  11.321  13.761   3.021  0.0601  0.1321 -0.2903
19232W        W34701   8.309  11.889   1.690 -0.1741 -0.2749  0.0288
19233W        W34702   5.174   8.582   5.215 -0.3417  0.0505  0.0397
19234W        W34703   2.108   4.007  10.416  0.0636 -0.0572 -0.2899
19235W        W34704  10.467   9.858   2.881 -0.2390  0.4595 -0.1537
19236W        W34705   4.507  14.811  15.353  0.1339 -0.2244 -0.1633
19237W        W34706   2.339  16.860  12.907 -0.0499 -0.2178 -0.0969
19238W        W34707   7.917  11.295   4.138  0.2225 -0.3429  0.1940
19239W        W34708   1.857  13.095   1.291 -0.0276  0.1627 -0.0905
19240W        W34709  13.772  17.911  15.078 -0.0921 -0.2608  0.0514
19241W        W34710   4.490  10.425  15.713  0.1023  0.1847 -0.1037
19242W        W34711   0.869  11.534   4.014 -0.0629  0.0472  0.2790
19243W        W34712   0.958  12.342   5.113 -0.0343 -0.1323  0.0690
19244W        W34713  17.915  16.061  11.048 -0.1835 -0.0919 -0.0865
19245W        W34714   8.281  16.709  13.855 -0.1497  0.0104  0.1006
19246W        W34715   2.946  11.310   1.183 -0.0974 -0.2277 -0.2850
19247W        W34716  11.202   8.894   3.263 -0.0489 -0.0942  0.2319
19248W        W34717  17.273  11.989   3.203  0.0226 -0.0191 -0.0051
19249W        W34718   7.065   9.182   5.675  0.0532  0.1436 -0.0416
19250W        W34719   0.575   1.102   4.424 -0.0521  0.0335 -0.1505
19251W        W34720   2.886  10.035   3.258 -0.0127  0.1013 -0.2196
19252W        W34721  15.819  12.450  15.345  0.3216 -0.1012 -0.0002
19253W        W34722   0.233  15.699   2.712  0.0768  0.0137  0.1303
19254W        W34723  14.454  12.888  13.108 -0.2262 -0.0462  0.0474
19255W        W34724  13.041  13.227   2.932 -0.1261  0.1750  0.0559
19256W        W34725   8.214  12.503  11.378 -0.1477 -0.1689 -0.1369
19257W        W34726  13.915   7.573  10.873 -0.1863 -0.0310 -0.0592
19258W        W34727   3.512  17.429   0.896 -0.2136 -0.0507  0.2610
19259W        W34728   7.783   0.898   4.880 -0.1149  0.0467  0.2522
19260W        W34729   7.893   4.932  14.704  0.3206  0.3518  0.0152
19261W        W34730   0.443  14.672   3.414  0.2704  0.0273  0.0983
19262W        W34731  17.239   3.827   3.055  0.1397 -0.0233  0.0495
19263W        W34732   0.608  11.331   1.334  0.0152  0.1857 -0.5478
19264W        W34733   6.998   1.391   4.619  0.1079  0.1630 -0.0988
19265W        W34734   6.479  14.782   3.457  0.0393 -0.0761  0.4215
19266W        W34735   4.726  14.387  15.337  0.2190  0.1732 -0.0316
19267W        W34736  12.571  14.392   1.933 -0.2651  0.1150 -0.0575
19268W        W34737   4.088   0.927  11.689 -0.0173  0.1704  0.0390
19269W        W34738  13.850   1.416   0.289  0.1329  0.0046  0.0310
19270W        W34739  13.096   0.026   1.747 -0.3744 -0.1405 -0.0552
19271W        W34740  12.488  14.989   5.697  0.0774  0.0447 -0.1320
19272W        W34741   7.039   7.552  11.029  0.2166 -0.3033  0.0715
19273W        W34742  10.458   0.665   3.498 -0.1242 -0.0612 -0.3206
19274W        W34743   8.059   0.179  13.765 -0.1076  0.2186 -0.3176
19275W        W34744   7.321  17.801  15.625 -0.2418 -0.0531  0.1720
19276W        W34745  12.801   2.399   3.926 -0.0697 -0.2621  0.3451
19277W        W34746  10.597   5.166  15.703 -0.1196 -0.0456 -0.1511
19278W        W34747  16.967  10.054  14.695  0.3913  0.3062  0.2196
19279W        W34748  14.050  12.752   1.516  0.2724 -0.0137 -0.3000
19280W        W34749  15.330  15.291  14.409  0.2494 -0.0187  0.1575
19281W        W34750  12.906  18.091   3.824  0.1820 -0.0095  0.1034
19282W        W34751   8.860   0.856  14.374 -0.1716 -0.0759 -0.0136
19283W        W34752  17.610  17.883  14.712 -0.2157 -0.2713  0.1581
19284W        W34753  15.451  12.283   2.298 -0.0375 -0.0521  0.0160
19285W        W34754  11.796   2.854   3.313  0.2281  0.2047  0.0235
19286W        W34755   2.351  14.603  15.441  0.0878 -0.1195  0.0400
19287W        W34756   7.957   3.706   0.931 -0.0056  0.2832  0.2052
19288W        W34757  10.912  11.715   2.429 -0.2228  0.0769  0.3167
19289W        W34758   6.185  14.108  11.829 -0.1049 -0.0541  0.0549
19290W        W34759  17.318   7.293  12.228 -0.2240  0.0210  0.0820
19291W        W34760   0.665   6.474  15.006 -0.1172  0.1404  0.0093
19292W        W34761  18.086   4.460   9.845 -0.2834 -0.0066 -0.3370
19293W        W34762   0.036   9.692   0.969 -0.1898  0.1312 -0.0243
19294W        W34763   2.597  15.596  13.468  0.0585  0.0576  0.0228
19295W        W34764  14.091   4.912  12.590 -0.0800 -0.2651  0.0692
19296W        W34765   2.010  13.273  14.382  0.2808  0.1423  0.1364
19297W        W34766   9.213  16.958  13.078  0.0900  0.0710 -0.0832
19298W        W34767   8.844   2.051   4.868  0.2985  0.0323 -0.0439
19299W        W34768   9.316  11.458   1.185 -0.0385  0.2441  0.0030
19300W        W34769   6.127  16.538   5.670 -0.0645 -0.1053  0.1096
19301W        W34770   5.533   5.562   1.489  0.0798 -0.1962  0.0183
19302W        W34771   1.010   8.846   1.468 -0.0980 -0.1844 -0.1411
19303W        W34772   1.049   0.292  14.540  0.0369 -0.0505 -0.1196
19304W        W34773   7.043  13.988   5.312  0.1382 -0.0790  0.0853
19305W        W34774   6.530  10.249  15.442  0.0884 -0.0193 -0.0876
19306W        W34775   2.882   4.390  14.916  0.2612 -0.0067  0.2387
19307W        W34776   4.517   0.033   3.656 -0.0882 -0.4580  0.0313
19308W        W34777  13.901   8.515  11.524 -0.2502  0.2715 -0.2053
19309W        W34778  11.822  16.265   5.922  0.1455  0.0772  0.0962
19310W        W34779   7.059  11.239  13.708 -0.2054 -0.1239 -0.1419
19311W        W34780  13.062  16.154  15.817 -0.4841 -0.1832  0.0105
19312W        W34781  11.746   4.660  11.469  0.2090 -0.2506 -0.0764
19313W        W34782   4.450   7.545  13.540 -0.1849  0.1391 -0.1611
19314W        W34783   9.857   7.412   5.036 -0.1199 -0.1516  0.2562
19315W        W34784  17.104  12.896   0.301 -0.1084  0.0022 -0.2353
19316W        W34785  11.228  15.114  13.059  0.2098 -0.3445 -0.0516
19317W        W34786  10.704  10.027   4.335 -0.0117 -0.0196 -0.0475
19318W        W34787   8.707  14.673  10.338 -0.2047 -0.0281 -0.2725
19319W        W34788   1.967  17.272   5.693  0.2019 -0.0093  0.1206
19320W        W34789   0.628   5.368  11.723 -0.0669 -0.1256 -0.4097
19321W        W34790   6.440   5.835   3.925  0.3811  0.1010  0.2523
19322W        W34791   8.601  18.104   4.614  0.3404 -0.2260  0.1208
19323W        W34792  10.289  17.164   1.155 -0.1686 -0.2331 -0.0531
19324W        W34793   3.116   7.310   4.849  0.2033 -0.1768  0.1953
19325W        W34794  18.479  10.947  14.385  0.3330 -0.1869 -0.4259
19326W        W34795   6.642   0.937  12.645 -0.0316  0.0367 -0.1191
19327W        W34796   5.682  10.590   2.656  0.0928  0.2764  0.0620
19328W        W34797   0.471   1.581   0.977 -0.1446  0.0025  0.0980
19329W        W34798  14.459   4.181  14.855 -0.3833 -0.1401  0.0930
19330W        W34799  10.751   4.198  10.641  0.0811 -0.0386  0.0670
19331W        W34800  17.474   3.368   5.497  0.4912 -0.3526 -0.1309
19332W        W34801   6.381   4.790   4.835  0.2534 -0.1825 -0.1104
19333W        W34802   3.070  14.431   5.936  0.0105  0.1755  0.1441
19334W        W34803   6.800   1.012   4.393  0.0736 -0.2630 -0.0818
19335W        W34804  18.302  16.155   3.898  0.0135 -0.0269 -0.0367
19336W        W34805   9.462  18.126  13.694  0.0077  0.1920  0.1378
19337W        W34806   6.982   3.277   1.061  0.6015  0.1124 -0.1386
19338W        W34807  15.153   2.148   4.175  0.1255 -0.0090  0.0312
19339W        W34808  13.104  16.092   2.146  0.0082 -0.2040  0.0038
19340W        W34809  16.368  14.549   2.002  0.2890  0.1262  0.2920
19341W        W34810  13.872   3.006  12.660  0.1782  0.1233  0.2537
19342W        W34811   1.313   9.057   5.191 -0.0433  0.1817  0.0087
19343W        W34812  16.209  14.270  15.480 -0.0617  0.1801  0.0164
19344W        W34813   5.906   0.639   1.665 -0.0622  0.0667 -0.0154
19345W        W34814   1.518  14.061   3.607 -0.2737 -0.2142  0.0076
19346W        W34815  10.725  18.109   4.670 -0.0306 -0.0965  0.0804
19347W        W34816   2.050  12.702  14.425  0.1708  0.1665 -0.1864
19348W        W34817   1.671  16.930  11.311 -0.2565  0.3005 -0.0480
19349W        W34818   2.136   6.324   3.998 -0.1160  0.2162 -0.0948
19350W        W34819   2.888   9.573  13.829  0.0133  0.3020 -0.1033
19351W        W34820  15.500  14.454   4.557  0.0095 -0.0128 -0.2904
19352W        W34821  12.712   8.618  10.540  0.0776 -0.0043  0.0008
19353W        W34822   4.739   7.169   5.583  0.1759 -0.0246 -0.0403
19354W        W34823   8.276   7.718   2.005  0.0018 -0.0928 -0.0541
19355W        W34824  12.575  14.300   0.092  0.0639 -0.0743 -0.0087
19356W        W34825  15.331  15.475   0.112  0.1682  0.1899 -0.2180
19357W        W34826   8.799  15.719  15.488  0.0006 -0.0925 -0.0692
19358W        W34827  13.747  12.429   5.010 -0.1057 -0.0369 -0.0232
19359W        W34828  16.681   8.366  15.591 -0.0782 -0.2849  0.0129
19360W        W34829  17.718   4.417   1.170  0.1197  0.1050  0.2972
19361W        W34830  17.946  17.222  12.294 -0.3489 -0.3813 -0.1156
19362W        W34831  12.830  10.508  12.674  0.0393  0.0515 -0.2416
19363W        W34832   3.961   0.825   2.603 -0.1790 -0.3518  0.0178
19364W        W34833  16.247   5.813   5.138 -0.3502  0.0589 -0.0269
19365W        W34834  12.422  15.714   0.642  0.0139 -0.2858 -0.0307
19366W        W34835   5.028   4.221   1.119 -0.2025 -0.0755 -0.2331
19367W        W34836   5.611  11.498   4.167 -0.1706 -0.2696 -0.2699
19368W        W34837   8.632   0.147   5.783 -0.0415  0.2531  0.2263
19369W        W34838  13.004  11.110   3.075 -0.1147  0.0842  0.1683
19370W        W34839  17.206  16.191  13.056 -0.0421 -0.0789 -0.0731
19371W        W34840  14.955  14.905   3.066  0.0481 -0.2616 -0.0890
19372W        W34841  16.080   3.955  13.143  0.0606 -0.5813 -0.1800
19373W        W34842   6.806   0.755  13.123 -0.0366  0.0563  0.0048
19374W        W34843  15.711  10.844  11.793 -0.2227  0.0483 -0.2604
19375W        W34844  17.919   0.095  13.619 -0.1991 -0.3180  0.1263
19376W        W34845  11.725  16.580   5.074 -0.1909 -0.0422  0.0683
19377W        W34846  10.693   1.224  13.271 -0.4403 -0.1125  0.2152
19378W        W34847   8.472   4.402   3.255  0.1310  0.1958 -0.2435
19379W        W34848  10.782   8.843  12.819  0.1141  0.1233 -0.0579
19380W        W34849  16.701  15.777   0.396  0.2095  0.0061 -0.2367
19381W        W34850   9.282  18.399   3.566  0.2897 -0.0128  0.1531
19382W        W34851   3.549  13.014  14.342  0.1261 -0.3329  0.4038
19383W        W34852  16.096  12.349  11.176  0.0975 -0.2126 -0.1609
19384W        W34853   7.564   1.652   0.824 -0.3089  0.0734 -0.0369
19385W        W34854  16.316  15.300   1.093  0.0131  0.2047 -0.2499
19386W        W34855   6.244   7.744  11.756 -0.3823 -0.3328  0.0292
19387W        W34856   8.537   6.699   1.488  0.0032 -0.0536  0.2294
19388W        W34857   7.073  14.931   0.152  0.1203  0.1946 -0.3535
19389W        W34858  16.451  17.462  12.263 -0.1253 -0.1081  0.0190
19390W        W34859  15.384   3.795   2.440 -0.0512 -0.3964  0.2491
19391W        W34860  10.098   6.215  11.599  0.0916 -0.2255 -0.1077
19392W        W34861   5.188  13.169   0.096  0.0668  0.1125  0.1429
19393W        W34862  15.067   5.304   5.171  0.2747  0.2333 -0.1384
19394W        W34863  12.764  14.640  13.814 -0.2822 -0.1136  0.1166
19395W        W34864   3.382   5.869   4.486  0.1007 -0.5150  0.1928
19396W        W34865  14.397  13.581   4.755  0.0738  0.0476 -0.0050
19397W        W34866  10.848  10.061  12.462  0.0243 -0.1807 -0.1409
19398W        W34867  13.706  11.824   3.023 -0.0727  0.0775  0.2487
19399W        W34868   9.474   4.406  11.592  0.2068  0.0801 -0.2296
19400W        W34869  18.131  14.337  15.342 -0.1739 -0.0660 -0.0267
19401W        W34870  16.616   6.778  11.337  0.0041  0.2470  0.1289
19402W        W34871   4.810  13.409  15.658  0.0317 -0.1267  0.1405
19403W        W34872   7.214   0.070  13.361  0.0647 -0.2899 -0.0704
19404W        W34873  17.547   9.321   0.420 -0.0856 -0.0086  0.3070
19405W        W34874   1.277  15.791  13.370 -0.0122 -0.0623  0.1624
19406W        W34875   6.601   4.045   0.107  0.0411 -0.1672 -0.0934
19407W        W34876   7.742   4.889   2.503  0.2244  0.0580 -0.1008
19408W        W34877   1.827  13.132   5.618 -0.4009 -0.2465 -0.4394
19409W        W34878   1.770   5.050  15.244 -0.0481  0.0169 -0.1011
19410W        W34879   2.554   3.546   1.737  0.1317  0.0075 -0.2159
19411W        W34880  12.318   5.969   0.998  0.1867 -0.1299 -0.1043
19412W        W34881   0.838  10.422   2.568  0.0672  0.2742 -0.1174
19413W        W34882   3.740  14.062   3.427 -0.4396  0.5953  0.2951
19414W        W34883   9.028   4.369   4.238  0.1537 -0.0740  0.2145
19415W        W34884   5.362   9.971  13.901  0.1344  0.2646 -0.0206
19416W        W34885  13.198   5.502  14.370  0.1966  0.0674 -0.0049
19417W        W34886  16.262   9.101  13.136  0.0527 -0.2540 -0.1151
19418W        W34887  14.508  12.965   0.681  0.2327  0.1168  0.1405
19419W        W34888   4.564  11.489   0.348  0.2603 -0.0872 -0.0321
19420W        W34889  10.777   8.837   2.564 -0.2852 -0.0259 -0.2166
19421W        W34890   1.240  14.728   3.003  0.0991  0.0467  0.1797
19422W        W34891   2.684   6.914  15.137  0.2079  0.1237 -0.0334
19423W        W34892   9.993   1.306  13.865  0.0791 -0.0578  0.0415
19424W        W34893  13.170   8.297  10.618 -0.1515  0.1549 -0.1328
19425W        W34894  15.014  17.011  13.865 -0.3501  0.0489 -0.2734
19426W        W34895  12.381  13.468   1.539  0.3626 -0.0059  0.2529
19427W        W34896   6.649   4.805  13.792  0.1727 -0.0353  0.0135
19428W        W34897   7.445   8.283   1.484  0.4191 -0.3818 -0.0995
19429W        W34898   6.844   4.726   3.945 -0.2842  0.0571  0.0556
19430W        W34899  12.822   4.430  13.935 -0.0859 -0.1559  0.1264
19431W        W34900  17.883  13.838  12.839 -0.0293  0.2615  0.2901
19432W        W34901  17.328   9.808  10.798  0.3162  0.0578  0.0952
19433W        W34902   5.883   7.104  12.365  0.2455 -0.0672 -0.0450
19434W        W34903  16.062   7.515  13.966  0.0761 -0.0728  0.0106
19435W        W34904  14.526  12.639  12.087 -0.1614 -0.0543  0.0337
19436W        W34905   7.311   7.405  14.291  0.0733 -0.2880 -0.0321
19437W        W34906   3.520   9.591   1.472  0.1951 -0.0241 -0.3247
19438W        W34907  17.464  16.676   3.795  0.3334  0.2363 -0.0449
19439W        W34908   2.547  15.928   2.920  0.0698 -0.4323  0.5077
19440W        W34909  14.782   4.636   3.422 -0.0842  0.0780  0.1888
19441W        W34910   4.859   7.759  13.854 -0.0577 -0.1669  0.0544
19442W        W34911  18.450   6.177  15.535  0.0817 -0.0153 -0.0502
19443W        W34912   6.231  11.900   2.807  0.3594 -0.0319  0.1316
19444W        W34913  13.473   2.129  13.149  0.1270 -0.0134 -0.1782
19445W        W34914  16.630   9.935   5.788  0.2026  0.3195  0.0039
19446W        W34915   0.775  11.708  11.170  0.1310 -0.3450  0.0357
19447W        W34916   1.178   9.920  14.010 -0.1529 -0.1688  0.1772
19448W        W34917  17.308  12.851   1.933  0.3496 -0.2132 -0.0432
19449W        W34918   2.360  12.727   3.091  0.1391  0.0308 -0.0060
19450W        W34919  15.857   5.581   5.294 -0.0631  0.0184  0.0445
19451W        W34920   0.860  15.050   3.230 -0.1077  0.0281 -0.0113
19452W        W34921  15.034  15.599   0.513 -0.0423 -0.4484  0.2085
19453W        W34922   4.972  11.683  13.390 -0.1017  0.2150  0.1775
19454W        W34923  15.850   8.269   3.332  0.0841 -0.1162 -0.3863
19455W        W34924   8.993   1.601   0.415  0.3829 -0.0242  0.2485
19456W        W34925   5.621   5.675   2.553 -0.5475  0.1950  0.1134
19457W        W34926   0.825   7.375   1.822 -0.0680  0.2844  0.0950
19458W        W34927   2.342  14.815   2.087  0.4223  0.4057  0.2891
19459W        W34928   1.810  13.450  12.429  0.0573 -0.3164 -0.4536
19460W        W34929   3.361   1.292   4.139 -0.1061  0.2141  0.0182
19461W        W34930  17.252   7.614  10.509 -0.1484  0.0122  0.3894
19462W        W34931  15.522   9.179   1.987 -0.0504  0.0467 -0.0500
19463W        W34932   1.455  12.418  10.811 -0.0382 -0.4061 -0.1076
19464W        W34933  15.889  14.435  12.774 -0.0160 -0.0132 -0.0584
19465W        W34934   1.245   3.430   4.072  0.0046 -0.0301  0.1284
19466W        W34935   7.294  15.970   5.165  0.2228 -0.0386 -0.1598
19467W        W34936  11.701  16.334  13.962  0.1857  0.1186  0.2665
19468W        W34937   8.171  16.602   0.996 -0.0313  0.0375 -0.0491
19469W        W34938  11.304   2.503   0.443 -0.0607  0.1247 -0.3402
19470W        W34939   9.588   2.695  11.871 -0.0215  0.0814 -0.1091
19471W        W34940   9.636   5.993   2.453 -0.3574 -0.3433  0.0371
19472W        W34941  15.067   0.720  13.778  0.1780  0.3841  0.1464
19473W        W34942   2.668  17.302   3.425  0.2129  0.0270  0.1484
19474W        W34943  17.017  14.773  14.350 -0.0141 -0.0311 -0.0238
19475W        W34944   9.991  15.736  11.173  0.0367 -0.0487  0.1983
19476W        W34945   8.841  10.731   5.067  0.1094  0.1189  0.0457
19477W        W34946   7.083   1.821  13.758  0.2865 -0.0959  0.0539
19478W        W34947   6.910   3.896  15.166 -0.1028 -0.1951 -0.0679
19479W        W34948  10.468  15.647   5.082  0.1252  0.0358 -0.4179
19480W        W34949  17.734  15.197   5.228  0.2280  0.1407 -0.1421
19481W        W34950   7.303   0.959  11.360  0.0486 -0.0359  0.1789
19482W        W34951  11.037   6.132   5.654  0.1169 -0.1345 -0.1333
19483W        W34952   4.300  16.803   4.426 -0.0314  0.2707  0.2452
19484W        W34953   0.554  14.549  14.622  0.0931 -0.1938  0.2571
19485W        W34954   1.857   4.754  14.651  0.1529 -0.1382  0.1919
19486W        W34955   6.850   9.857  15.563 -0.1952 -0.2842 -0.2965
19487W        W34956   7.214   0.999  13.190  0.2694  0.2465  0.1531
19488W        W34957  12.023   8.744  12.129  0.0913  0.6037 -0.2757
19489W        W34958  17.354  10.766   4.982 -0.1261 -0.1525 -0.1264
19490W        W34959   7.942  11.093   2.249 -0.0510 -0.4944 -0.0990
19491W        W34960   2.868  15.539   1.575  0.1344  0.0299  0.0235
19492W        W34961   4.784  15.097  12.017  0.3857 -0.1457  0.2350
19493W        W34962   5.738  13.949  12.790 -0.2489  0.0422  0.1216
19494W        W34963  11.487  14.307  11.972 -0.0629  0.0388 -0.0125
19495W        W34964   1.476   8.554   2.551  0.0583  0.0017  0.1888
19496W        W34965  12.949   5.546   3.130 -0.0842  0.1480  0.2429
19497W        W34966  10.550   7.863  10.965 -0.0189 -0.2693 -0.2297
19498W        W34967  13.252   9.662   0.839 -0.2196 -0.1321 -0.2654
19499W        W34968   5.182  15.133  15.346 -0.2704  0.0708 -0.0237
19500W        W34969  15.826   3.835  12.329  0.3030  0.2341  0.2262
19501W        W34970   5.444   2.968  11.399  0.2672 -0.0453  0.1382
19502W        W34971   5.492   9.551   1.239 -0.2062 -0.1460 -0.0402
19503W        W34972  13.614  14.364  13.954 -0.1871 -0.3814 -0.0771
19504W        W34973   5.226  16.881  12.268  0.3454  0.2155 -0.0387
19505W        W34974   0.338  17.079  12.801 -0.0585  0.0308  0.2117
19506W        W34975  15.851  16.264  15.321  0.3135  0.4650  0.0257
19507W        W34976  17.252  15.787   2.685 -0.0143  0.0935  0.0149
19508W        W34977  14.606  14.553   0.408  0.1384  0.2490 -0.3253
19509W        W34978   9.566   0.203  11.830 -0.4052 -0.2420 -0.0130
19510W        W34979  10.540   9.233   4.023  0.0941 -0.1002 -0.0589
19511W        W34980  11.675   6.952  12.567  0.1337 -0.1097 -0.2556
19512W        W34981   5.680   1.599   5.733  0.2198 -0.0350  0.3665
19513W        W34982  11.599   9.282  13.661  0.0943 -0.1663 -0.1609
19514W        W34983  17.370   1.531  10.862 -0.0694 -0.0356 -0.1298
19515W        W34984   2.255   6.194  11.108  0.0966 -0.0523 -0.0822
19516W        W34985   1.771   3.544   0.273  0.4429 -0.2550 -0.2999
19517W        W34986  18.186  18.406   2.669 -0.1104 -0.0021 -0.2756
19518W        W34987  10.041  11.434   0.714  0.0064 -0.1860 -0.0928
19519W        W34988  14.885  11.368   4.903 -0.1804  0.3758  0.0030
19520W        W34989  16.694   0.004  14.076  0.0857  0.0575 -0.1258
19521W        W34990  10.484   4.007   3.963 -0.1398 -0.1060  0.0703
19522W        W34991   1.146   1.081   2.404 -0.2971 -0.1611 -0.1087
19523W        W34992   6.967  17.827   0.997  0.0279  0.0951  0.0539
19524W        W34993  13.350  16.151  10.360 -0.0719  0.1696 -0.1086
19525W        W34994  11.693   9.390   3.128  0.0280 -0.1092 -0.2323
19526W        W34995   9.425  15.110   0.236  0.0996 -0.1787 -0.0352
19527W        W34996   0.685  10.621   0.717 -0.2577 -0.1566  0.0181
19528W        W34997   3.288   6.332   4.734 -0.1559  0.1494  0.5880
19529W        W34998  14.351   5.479  10.938 -0.1406 -0.2388 -0.2275
19530W        W34999  12.137  14.991  13.196 -0.1063 -0.2162  0.1409
19531W        W35000   2.036   2.297  13.775 -0.0360  0.2548 -0.1745
19532W        W35001   7.038  14.720   3.648 -0.2644  0.1123 -0.0994
19533W        W35002   8.763   9.555   1.072 -0.2860 -0.2900 -0.1192
19534W        W35003  18.453  10.198   2.455 -0.0967 -0.2823 -0.3440
19535W        W35004  17.144  16.847  15.413  0.0365  0.0815 -0.0489
19536W        W35005   1.664   6.172   5.481  0.1144  0.1942  0.1766
19537W        W35006  10.417  16.476  11.603 -0.0100 -0.2904  0.1065
19538W        W35007  10.232  11.626   3.146  0.0325 -0.3736  0.1968
19539W        W35008   8.788   1.856  14.453 -0.2578  0.2806  0.1479
19540W        W35009   5.931  16.377  11.389  0.1041 -0.1098  0.2795
19541W        W35010  12.859  16.117   4.036 -0.2366  0.0236  0.1591
19542W        W35011   0.713   0.992  12.737 -0.1967  0.0146  0.0136
19543W        W35012   3.304  17.474  15.158  0.2737 -0.0724  0.3755
19544W        W35013   5.888   4.553  10.971 -0.4414 -0.1568  0.1276
19545W        W35014  16.342  16.555  12.006  0.0892 -0.1686 -0.3611
19546W        W35015   7.483  16.823   5.169 -0.4140  0.0228  0.0394
19547W        W35016   1.205  18.211   4.049 -0.0740  0.0188 -0.0478
19548W        W35017   4.624  15.749   4.257  0.2218 -0.2742  0.0736
19549W        W35018  11.201  11.449   2.112 -0.1031 -0.1907  0.0695
19550W        W35019   3.151  11.776  12.650  0.0208 -0.4681  0.3287
19551W        W35020  11.261   6.551   9.763  0.2902 -0.1109  0.0237
19552W        W35021   8.630   6.429   5.294  0.0432 -0.0656 -0.5784
19553W        W35022   7.159  18.063   0.091 -0.0394  0.4316 -0.3178
19554W        W35023   6.293   0.761   5.049 -0.0319 -0.2021 -0.0018
19555W        W35024  14.417  13.434  12.495 -0.1268 -0.3182  0.0684
19556W        W35025   8.581   6.795  11.360  0.1955  0.1618  0.1767
19557W        W35026   4.465  14.939   3.088 -0.1303  0.0997 -0.0819
19558W        W35027  14.241   9.265  15.816  0.0918  0.0892 -0.1185
19559W        W35028   8.284  12.827   2.153  0.1461 -0.3287 -0.1347
19560W        W35029  16.250   2.678   5.302 -0.0342  0.1634  0.1044
19561W        W35030   9.182   8.753   0.543  0.3062  0.0157  0.2751
19562W        W35031   9.100   5.655   4.315 -0.3397 -0.3452  0.2296
19563W        W35032   0.263   2.803  15.176  0.0234 -0.1709 -0.2419
19564W        W35033   0.381   9.455   4.194 -0.0406  0.0713  0.0182
19565W        W35034   2.384  17.850   1.207 -0.0481 -0.1400  0.0006
19566W        W35035  13.833   9.696   4.336 -0.0344  0.0181 -0.1587
19567W        W35036   9.752   8.988   0.108  0.0707 -0.2869 -0.0731
19568W        W35037   1.689   7.629  12.698 -0.1540  0.0891 -0.1384
19569W        W35038   7.310  15.036  12.109 -0.0020  0.2233 -0.2186
19570W        W35039  17.539  16.286   5.701 -0.3689 -0.1611  0.2992
19571W        W35040  17.548   8.834  15.085  0.0508 -0.3909  0.0714
19572W        W35041  12.078   0.137   5.354 -0.1195  0.1992 -0.0934
19573W        W35042   6.488   9.589   2.456  0.0661  0.4296 -0.2843
19574W        W35043  12.151  11.898  10.390  0.1811  0.0693  0.0045
19575W        W35044   1.937  17.794   1.526 -0.2450  0.1609  0.0133
19576W        W35045   2.623   7.155  11.224 -0.0128  0.1885 -0.2131
19577W        W35046   0.551   0.084  14.756  0.0081  0.2070 -0.0017
19578W        W35047   5.366   4.112   1.635  0.2571 -0.0805 -0.0206
19579W        W35048   8.131   0.749   5.343  0.1128 -0.0284  0.1013
19580W        W35049   2.966   5.594   1.968 -0.1265 -0.1777  0.0582
19581W        W35050   4.777   3.737   2.905 -0.0385  0.0321  0.0716
19582W        W35051   5.863   0.150   4.893 -0.1007 -0.0716  0.3488
19583W        W35052   8.380  11.349   2.197  0.1787 -0.0720 -0.2213
19584W        W35053   6.640   9.519  15.822 -0.0809 -0.1055  0.2307
19585W        W35054  15.083   9.374  13.676 -0.1658 -0.2496  0.1350
19586W        W35055   3.458  14.905  14.861 -0.0617  0.1638 -0.3081
19587W        W35056  16.222  10.479   4.650  0.3836 -0.0963 -0.0611
19588W        W35057  10.226  12.863  10.775 -0.0335  0.2882  0.0592
19589W        W35058  13.216   8.170  12.263 -0.0578  0.2687 -0.3617
19590W        W35059   4.528  13.856  10.673 -0.3284  0.0474 -0.3363
19591W        W35060   1.603   0.477   2.837  0.4363  0.0563  0.2348
19592W        W35061  13.881  14.439   1.551 -0.2702 -0.1142  0.0001
19593W        W35062  17.753   6.702   4.706 -0.0323 -0.1790 -0.1429
19594W        W35063  17.497   1.805   5.766 -0.4844 -0.1037  0.3024
19595W        W35064  18.402   3.341   4.068  0.0031  0.1655 -0.0851
19596W        W35065  17.639  12.029   5.716 -0.1523 -0.0004  0.2720
19597W        W35066   0.382  12.390   0.228 -0.0297  0.1534 -0.1799
19598W        W35067   6.137  15.582   2.228 -0.2273 -0.2504  0.2205
19599W        W35068  15.172  15.549   4.323 -0.3049  0.1903  0.0291
19600W        W35069  12.763   4.619  14.455 -0.1213  0.1147  0.1641
19601W        W35070   8.025  14.848   5.301 -0.3108  0.2452 -0.1549
19602W        W35071  10.946   1.073   4.552 -0.0622  0.3349  0.1129
19603W        W35072   8.106   3.220   1.683 -0.1710 -0.0355  0.0729
19604W        W35073   9.211   4.442   3.751 -0.1689 -0.3560  0.0058
19605W        W35074  16.918  17.934  10.992  0.0065  0.0474 -0.0031
19606W        W35075  13.047  10.244   3.485 -0.1200  0.2265  0.1281
19607W        W35076   7.045  12.240   1.366  0.2006 -0.5889  0.0487
19608W        W35077   1.083  15.803  13.825  0.0398 -0.0174  0.1966
19609W        W35078  13.169   7.162   4.389  0.0718 -0.1600  0.0524
19610W        W35079   1.707  18.144   5.613 -0.1497  0.0363 -0.3059
19611W        W35080  13.740   2.907   3.581 -0.2436 -0.1836 -0.2045
19612W        W35081   4.702  15.764  12.780 -0.0509  0.3876 -0.0164
19613W        W35082  12.752  10.302  12.170 -0.1773  0.4739 -0.0843
19614W        W35083   6.863   3.725  13.301  0.1230 -0.0876  0.0495
19615W        W35084   8.416   6.833   2.366 -0.3972 -0.2782  0.1334
19616W        W35085   9.159   5.233  10.315  0.2377 -0.1103  0.1187
19617W        W35086   4.279  14.044   3.240  0.0545 -0.1291  0.0190
19618W        W35087   1.903   6.870   0.051 -0.1765  0.3201  0.3828
19619W        W35088   4.074  17.250   3.209 -0.0914  0.0463  0.0515
19620W        W35089   4.372  15.828  13.575  0.0481  0.1283 -0.0755
19621W        W35090   7.386   2.827  13.124  0.2054 -0.0785  0.0554
19622W        W35091  15.245  12.433  13.708 -0.1805  0.0923 -0.0397
19623W        W35092   0.181   3.318  10.010 -0.3645  0.2195 -0.1186
19624W        W35093  13.954  17.822  13.825  0.0979  0.3885 -0.0282
19625W        W35094   7.460  15.934  12.968 -0.0201 -0.1764  0.0018
19626W        W35095  15.532   8.903  14.193  0.0889 -0.2845  0.0831
19627W        W35096   5.384  13.681   3.977  0.0824 -0.2011 -0.0505
19628W        W35097  10.774   0.588  13.182 -0.0267  0.5013 -0.0092
19629W        W35098   0.116  15.019   4.389  0.3116  0.2302  0.0547
19630W        W35099  12.720  15.787  11.421 -0.0310 -0.1763 -0.0244
19631W        W35100  18.374  17.189  15.819 -0.0482  0.0478 -0.0155
19632W        W35101  16.734   1.392  11.562 -0.3294 -0.1612  0.0422
19633W        W35102  15.882  17.697   5.305 -0.1458 -0.1009 -0.0249
19634W        W35103   0.087  10.172   0.793  0.1300  0.0025 -0.1880
19635W        W35104   8.602   6.393   2.269  0.4017  0.2288  0.1844
19636W        W35105  16.764   9.308  13.768  0.4078 -0.0140  0.1364
19637W        W35106   5.303   9.545   1.682  0.0551 -0.3434 -0.2014
19638W        W35107  11.503   5.411   3.434  0.0128  0.0628 -0.0114
19639W        W35108   8.326  10.011  12.337  0.1346 -0.0910 -0.0114
19640W        W35109   8.504  15.252  13.306 -0.2704  0.0670 -0.2106
19641W        W35110  15.515  16.296  12.353 -0.1046 -0.1098 -0.1034
19642W        W35111   1.798   4.075  11.704  0.1172 -0.0891 -0.0934
19643W        W35112   8.788  16.181   5.648  0.2582 -0.0415  0.0347
19644W        W35113  12.810   9.946  12.677 -0.3092  0.0725 -0.0991
19645W        W35114   6.497   7.137   4.129 -0.3392 -0.0959  0.2219
19646W        W35115  15.629   2.896  15.823 -0.1976  0.3420  0.1130
19647W        W35116   2.177  12.600  12.728  0.0813 -0.1114 -0.0434
19648W        W35117  16.850  17.808   2.606 -0.0407 -0.0825  0.3029
19649W        W35118  16.186  14.462   2.525 -0.1169  0.1076  0.0443
19650W        W35119   2.206  10.089   4.100 -0.0704 -0.0500  0.0869
19651W        W35120  17.248   8.687  13.401  0.1689  0.0650 -0.1208
19652W        W35121  11.174   6.006  15.238  0.0179  0.0563  0.1981
19653W        W35122  16.494  15.756   1.291  0.1413  0.0403  0.1830
19654W        W35123  18.281   0.104  14.859 -0.1495 -0.0688 -0.0476
19655W        W35124   0.843  10.102  15.487  0.0386  0.0674  0.1680
19656W        W35125   4.497  13.710  12.522  0.0607 -0.0441 -0.5560
19657W        W35126   1.193   3.060  14.888 -0.0953 -0.2037 -0.1193
19658W        W35127   1.942  18.274  14.423  0.0205  0.0380 -0.1335
19659W        W35128   8.363   9.322   5.193 -0.3333  0.0653  0.0055
19660W        W35129  15.486   5.162  12.533  0.2528  0.1796 -0.0784
19661W        W35130   2.896   9.409   2.127  0.1269  0.1227  0.1907
19662W        W35131   5.015   3.527   2.172  0.2195  0.1193 -0.2876
19663W        W35132   4.376  11.361  14.004 -0.0276 -0.0235 -0.2351
19664W        W35133   7.771  11.139  12.465  0.0095  0.2536 -0.2249
19665W        W35134   9.590   1.884  15.526 -0.2789  0.1803 -0.2982
19666W        W35135   3.457  16.619   0.516 -0.1007 -0.1289 -0.0466
19667W        W35136   8.717   9.610   3.622  0.0404 -0.0628 -0.0455
19668W        W35137   7.815  10.671  14.316 -0.3656 -0.1176 -0.1248
19669W        W35138  12.415  16.410   3.245 -0.0346 -0.0111 -0.1501
19670W        W35139   0.929   0.493  12.787 -0.1252  0.0339 -0.2413
19671W        W35140   7.863  12.137  15.022 -0.2886 -0.0726  0.1013
19672W        W35141  14.930  16.652  14.188 -0.0678  0.1705 -0.3659
19673W        W35142   2.465  12.383   1.459 -0.1787 -0.0939  0.1845
19674W        W35143   2.397  14.978  14.662 -0.2749  0.1386  0.2680
19675W        W35144   2.260   1.818  11.808 -0.0524  0.0115 -0.2279
19676W        W35145  10.150   6.073  14.896  0.0328 -0.0365  0.0217
19677W        W35146  12.441  12.311  10.413 -0.0278 -0.1847 -0.0435
19678W        W35147  16.719   3.848   1.431 -0.1112 -0.0671  0.1828
19679W        W35148  11.306  17.511  15.571 -0.1790 -0.2029 -0.4913
19680W        W35149  10.649  12.642   4.059  0.0110  0.2929  0.1787
19681W        W35150   1.367   0.911   3.792 -0.1387 -0.1430 -0.1055
19682W        W35151  15.186   7.177   2.323 -0.1023 -0.2731  0.0995
19683W        W35152  12.198   6.994  10.734 -0.1393  0.0293  0.3090
19684W        W35153  15.790  17.956  15.573 -0.3002  0.1202 -0.3009
19685W        W35154  17.209   6.598  13.821  0.0273  0.0744  0.1925
19686W        W35155  13.123   1.490   3.314  0.1183 -0.1045 -0.0111
19687W        W35156   6.673  13.728  12.737 -0.1637  0.3193 -0.3216
19688W        W35157  13.124  14.346   0.491 -0.0265  0.1764 -0.1509
19689W        W35158  17.109  12.367  10.984  0.1364  0.0236 -0.1226
19690W        W35159   3.941   4.008   5.361  0.2206  0.2134 -0.2376
19691W        W35160   9.423  11.830   2.113  0.5183  0.1171 -0.0598
19692W        W35161  14.849   2.964   1.085 -0.3460  0.1298 -0.1483
19693W        W35162   8.980   6.895   3.353  0.2176 -0.0434 -0.1042
19694W        W35163   0.502  10.021   1.723  0.1861 -0.0941 -0.1075
19695W        W35164   6.281   1.381  15.843 -0.2155 -0.0782 -0.1993
19696W        W35165  12.504  18.474   1.087 -0.1773 -0.1715 -0.2092
19697W        W35166  10.300  10.896  13.285  0.1021 -0.0439 -0.3399
19698W        W35167  17.928   5.279   0.715 -0.0919  0.0780 -0.2080
19699W        W35168   4.594  16.875  11.313  0.1564  0.1289 -0.3910
19700W        W35169   8.915   6.304  14.827  0.1149  0.2667 -0.2575
19701W        W35170  17.171  18.458  14.918 -0.2027  0.0320  0.0043
19702W        W35171  10.897  11.098   5.168  0.1381 -0.1617  0.0851
19703W        W35172   3.808  12.463  12.802  0.1543  0.0772 -0.3250
19704W        W35173   4.123   2.504  11.041 -0.1536  0.1431 -0.1544
19705W        W35174  15.040  16.477  12.592  0.0388  0.0312 -0.1202
19706W        W35175  13.321   6.973   0.000 -0.1184  0.0069 -0.2048
19707W        W35176   7.312   9.672   3.675 -0.0568  0.1035 -0.0879
19708W        W35177   8.132  17.644  13.873  0.1149  0.2411 -0.2175
19709W        W35178   6.957   8.053  14.775  0.0329  0.1168 -0.0031
19710W        W35179   8.483  12.765  15.333 -0.1936 -0.2214  0.2427
19711W        W35180   3.129   5.047   5.051  0.0051  0.0833 -0.0295
19712W        W35181   9.513   9.533   3.817 -0.0328  0.0938  0.0531
19713W        W35182  18.033  12.982   5.881 -0.0260 -0.1120  0.1696
19714W        W35183   0.177   4.276   3.787  0.1567  0.3525  0.1672
19715W        W35184  14.782  13.119   9.540  0.1632  0.2198  0.2442
19716W        W35185   0.191  12.781  10.763  0.2032 -0.1939 -0.0070
19717W        W35186  12.485   1.701   0.238 -0.2622 -0.1799 -0.1142
19718W        W35187   1.614  14.306  15.816 -0.1526 -0.1742 -0.1380
19719W        W35188   0.244   1.655   5.100  0.0419 -0.1430  0.0275
19720W        W35189   5.869  16.462  14.922 -0.1311  0.1153 -0.0332
19721W        W35190   0.121   2.467  14.629  0.3412  0.1877 -0.0369
19722W        W35191   3.813  11.850  14.402  0.4092  0.3038 -0.1028
19723W        W35192   9.412  13.775   0.047  0.1809  0.1495  0.2652
19724W        W35193   9.270   0.828  13.519  0.0069  0.1517  0.0644
19725W        W35194   9.576  10.993  11.963  0.1893 -0.3390  0.0586
19726W        W35195   8.091  16.101   5.115  0.0668 -0.0827 -0.0372
19727W        W35196  14.923  13.956  13.112  0.0714 -0.0794  0.3324
19728W        W35197   4.151   8.705  12.143 -0.1446 -0.1816  0.2922
19729W        W35198   9.607   2.396  12.296 -0.2788  0.0149 -0.1604
19730W        W35199   3.402  10.985   0.904  0.2943 -0.0721 -0.0568
19731W        W35200  16.330  15.305  13.332 -0.0290 -0.0327 -0.0529
19732W        W35201  16.723  11.354  15.128 -0.0792 -0.1832 -0.2496
19733W        W35202   4.671   4.519  12.601  0.1903 -0.2922  0.0944
19734W        W35203  12.365  11.999  13.509 -0.1892  0.0391 -0.2331
19735W        W35204   1.332  14.694  10.972  0.1191 -0.0995  0.1937
19736W        W35205  11.277  11.602  12.856  0.0140  0.1595  0.1836
19737W        W35206  14.069   9.444  14.185  0.1537  0.2223 -0.0195
19738W        W35207   0.863  10.963  12.598  0.0547 -0.2331 -0.0660
19739W        W35208   9.716   4.211  13.690 -0.1172 -0.1548 -0.1525
19740W        W35209  17.334  10.021  15.732 -0.2957  0.1088  0.1576
19741W        W35210   6.369   6.783  10.293  0.0732  0.3228 -0.1264
19742W        W35211   9.176   8.580  14.689  0.1086 -0.0611 -0.0063
19743W        W35212  15.054   0.717   3.665 -0.0199  0.3898 -0.1358
19744W        W35213   5.236  16.073   2.019 -0.0629  0.0645  0.1723
19745W        W35214  16.983  16.570   2.069 -0.0263 -0.2369  0.0637
19746W        W35215   4.313  15.147   2.668 -0.0219  0.1202 -0.0820
19747W        W35216   3.611   1.307   3.421 -0.3022 -0.3323  0.2467
19748W        W35217   6.217   8.831   1.126  0.2860  0.1065  0.0268
19749W        W35218   2.694  16.827   3.318  0.0005  0.1900 -0.3357
19750W        W35219   7.728  16.488  14.065 -0.4420  0.0385 -0.0421
19751W        W35220  15.368  14.233  12.287  0.0083  0.4306 -0.0233
19752W        W35221   4.113   9.659   5.324  0.1987  0.0501 -0.0241
19753W        W35222   9.098   6.455   3.048 -0.3201  0.0198 -0.0624
19754W        W35223  15.443  11.833   0.354 -0.1349  0.2457 -0.0724
19755W        W35224  16.950   2.058  11.836  0.1055  0.1322  0.0885
19756W        W35225   1.146   9.399   3.706 -0.0333  0.0348 -0.0878
19757W        W35226   0.544   2.929  11.245  0.0049  0.1934  0.1474
19758W        W35227  11.220  18.005  11.824  0.3153 -0.1735 -0.1200
19759W        W35228   1.768   0.628   0.588  0.1344 -0.1460 -0.0799
19760W        W35229  12.346   9.802  10.323 -0.1276 -0.1682 -0.0407
19761W        W35230  10.908   2.645  12.077  0.1803 -0.1478  0.3033
19762W        W35231   8.377  17.460   1.113 -0.3499  0.0152  0.0692
19763W        W35232  11.251   1.822   3.236  0.1394  0.0302  0.0641
19764W        W35233  11.574   9.238  12.488 -0.1124  0.0296  0.1605
19765W        W35234   7.507  15.504  12.215  0.0852 -0.2818 -0.0361
19766W        W35235   6.649   4.924  12.337  0.2984 -0.1617  0.0906
19767W        W35236   1.993  10.426  11.506  0.0548 -0.1052  0.0773
19768W        W35237  16.234   8.498  12.451  0.1679 -0.0286 -0.2316
19769W        W35238  16.046   9.364  12.523 -0.2263  0.2464  0.1383
19770W        W35239   5.060  16.627  15.443 -0.1583  0.1364  0.0911
19771W        W35240  15.827   0.819   5.305 -0.1555 -0.0940 -0.4334
19772W        W35241  15.404  15.767  11.223  0.1665 -0.3641 -0.2072
19773W        W35242   0.835  13.541   0.995 -0.0906 -0.2157  0.1379
19774W        W35243   7.572  14.695  14.578 -0.0105 -0.0832 -0.0788
19775W        W35244  16.282   6.506  14.029 -0.0270 -0.1130 -0.1722
19776W        W35245   1.932   3.807  14.660 -0.1351  0.2399 -0.1911
19777W        W35246  15.486  10.525  13.790  0.1940  0.0625 -0.1481
19778W        W35247  10.320   7.859   3.324  0.0270 -0.2009  0.0021
19779W        W35248  18.185   4.733  14.857  0.0110  0.4695  0.2096
19780W        W35249   9.595  15.325   4.581  0.1240  0.2187  0.2471
19781W        W35250  11.652   2.063   0.670 -0.2926  0.0875 -0.0636
19782W        W35251  10.363  10.469   0.061  0.2055 -0.2289 -0.0880
19783W        W35252  14.202   2.951  14.681  0.0437 -0.1404  0.1974
19784W        W35253   1.710   6.896   2.805  0.1436  0.1223  0.0134
19785W        W35254   5.092  16.256   4.478  0.4319  0.0788 -0.1392
19786W        W35255   4.616  16.384   2.426 -0.0099 -0.1466 -0.0671
19787W        W35256   2.000   9.480  11.585 -0.0578  0.1794  0.1934
19788W        W35257  17.379   7.458  14.213 -0.1102  0.1014  0.0698
19789W        W35258  17.170   6.988   2.918  0.0540 -0.0957 -0.3133
19790W        W35259   4.136   6.208   1.309  0.0987  0.0803  0.0650
19791W        W35260  12.011  13.462   1.235  0.0524 -0.1075  0.1903
19792W        W35261   7.701   5.747   2.863 -0.0085  0.1596  0.2290
19793W        W35262  10.685   2.937   3.398  0.0172  0.4243 -0.1651
19794W        W35263   4.903  12.225   3.878 -0.0618  0.2475 -0.2712
19795W        W35264  10.236  17.022  13.273  0.1957 -0.0915  0.2235
19796W        W35265   2.875   0.504   2.956  0.1744  0.3399 -0.2733
19797W        W35266   4.086  18.269   2.888  0.1234  0.1118 -0.1266
19798W        W35267  10.319   5.656  15.830 -0.1752  0.1994  0.1841
19799W        W35268  12.027   8.598  14.677  0.0447 -0.2643  0.2999
19800W        W35269  18.136   5.671  14.433 -0.0974  0.0104  0.5253
19801W        W35270   5.268  11.186   2.169 -0.1660 -0.0258 -0.0206
19802W        W35271   2.329   0.644   1.764 -0.0605 -0.0830  0.1454
19803W        W35272  13.487  17.978   4.666  0.2236  0.0164 -0.0530
19804W        W35273   5.005  15.399  13.044  0.1552 -0.6774 -0.1574
19805W        W35274  10.350  15.175  15.296  0.0951 -0.0671  0.0525
19806W        W35275   7.235   2.486   5.199  0.0493 -0.0117  0.3261
19807W        W35276  18.181  15.714   0.321 -0.2412  0.2733 -0.2448
19808W        W35277   2.352   2.390   2.876 -0.2003  0.0758 -0.1644
19809W        W35278  11.427  15.816  11.293  0.1770  0.1672  0.0344
19810W        W35279  18.046  10.986  13.763  0.0987 -0.1435  0.0187
19811W        W35280   4.839   4.372  10.028  0.2476  0.1990  0.0840
19812W        W35281   3.441   3.631   4.836 -0.0861  0.3659  0.0254
19813W        W35282   8.027   1.251  10.836  0.0601 -0.2971 -0.1928
19814W        W35283   2.324   9.941   5.349 -0.0387  0.0726 -0.1836
19815W        W35284   3.916   5.754  12.700  0.2030 -0.0663 -0.1287
19816W        W35285  12.325  14.888  15.265 -0.1529  0.0544  0.0641
19817W        W35286  17.115  13.523  14.466  0.0113  0.1561 -0.2889
19818W        W35287   9.770  10.889   3.283  0.0338 -0.0759  0.1492
19819W        W35288   1.543   4.934   5.363 -0.0130 -0.1475  0.3310
19820W        W35289  18.030  11.431   0.955  0.0452 -0.0189  0.1701
19821W        W35290  16.618   0.598   0.134 -0.0307  0.0017 -0.2392
19822W        W35291   8.083  12.994  15.655 -0.1110  0.0449  0.2725
19823W        W35292   9.467   8.093   3.952 -0.0199  0.2261 -0.1023
19824W        W35293  17.072   0.140   5.737  0.0720  0.1639  0.0764
19825W        W35294   8.387  10.761   2.450  0.0671  0.0892 -0.0346
19826W        W35295   2.697   5.903   2.305 -0.2158  0.0230  0.3366
19827W        W35296   6.075  10.316  15.601  0.0133  0.1157 -0.1524
19828W        W35297  11.620   2.498  13.655 -0.1139 -0.2318 -0.1837
19829W        W35298   2.778  13.972  14.033  0.3177  0.0482 -0.0538
19830W        W35299   4.226  15.739   4.599 -0.0085  0.1678  0.0463
19831W        W35300   0.988  14.875  14.318  0.4238 -0.0504 -0.1940
19832W        W35301  11.041  13.424  14.176  0.1911 -0.3486  0.2104
19833W        W35302   0.776   7.015  15.023 -0.2383  0.0966  0.0172
19834W        W35303  16.669  13.720   2.023 -0.0260  0.2985  0.1572
19835W        W35304   0.036  15.141   1.216  0.0593 -0.1680  0.1731
19836W        W35305  14.750  11.909  15.250 -0.0768 -0.3529  0.4208
19837W        W35306   9.822  10.091   4.888 -0.0539  0.3727 -0.2896
19838W        W35307   2.665   7.851   0.320  0.0355  0.2402 -0.0674
19839W        W35308   8.032  12.580  14.743 -0.1149  0.0509  0.5167
19840W        W35309   2.185  10.122   2.973  0.0708  0.0163 -0.1223
19841W        W35310  17.515   7.321   5.873  0.2613  0.1930 -0.0704
19842W        W35311   8.236  12.196   9.732  0.0496  0.1290  0.3229
19843W        W35312  13.090   0.468   3.875  0.3568 -0.1211  0.0089
19844W        W35313   0.541  16.996  13.993  0.1917 -0.1258 -0.0968
19845W        W35314   0.674  10.810   2.843  0.3581  0.0406 -0.0357
19846W        W35315  12.769   2.224  12.140 -0.0354  0.3753 -0.1222
19847W        W35316  13.343   7.409   1.822 -0.0717  0.1360  0.3740
19848W        W35317  16.107   8.169  14.693  0.0285  0.0825  0.0412
19849W        W35318  10.552   9.059  15.916  0.3796  0.1805 -0.2093
19850W        W35319  11.408  10.751   3.926 -0.2937  0.1924 -0.1523
19851W        W35320   8.926   6.059   5.119 -0.0313 -0.2653  0.1346
19852W        W35321  14.891  12.772   3.951 -0.0802 -0.0227 -0.1285
19853W        W35322  13.119   6.180  11.953  0.1989  0.0732 -0.0517
19854W        W35323   0.412  14.874  11.467 -0.0313  0.1133 -0.0557
19855W        W35324   1.976   7.994  11.105 -0.0788  0.2220  0.2960
19856W        W35325   2.563   0.705   4.516 -0.3054  0.1922  0.1027
19857W        W35326  14.848  14.114   0.551 -0.0087 -0.2436  0.0575
19858W        W35327   2.588  13.834  11.353  0.1268 -0.0477  0.2110
19859W        W35328   4.521   4.260  10.393  0.0927 -0.1642  0.1977
19860W        W35329  17.966  10.812  11.731  0.0270 -0.0735 -0.3164
19861W        W35330   6.695  16.940   0.887 -0.0578 -0.1744 -0.1672
19862W        W35331   6.552   1.581  13.442  0.1539  0.0584  0.2156
19863W        W35332   4.854   9.410   2.340 -0.0014 -0.0346  0.0559
19864W        W35333   8.415   1.076   2.766  0.3560  0.2710  0.3453
19865W        W35334   7.769  10.772   0.988  0.2322 -0.0088 -0.1367
19866W        W35335   5.356   3.087   1.911 -0.1978 -0.0844 -0.0436
19867W        W35336   5.918   0.981  13.084  0.1368 -0.0174  0.0655
19868W        W35337  11.577  11.077  14.008  0.0306  0.1319  0.2747
19869W        W35338  14.192  10.724   2.292 -0.1307 -0.1847  0.3291
19870W        W35339   3.628   2.483  12.895  0.0197  0.2142 -0.1684
19871W        W35340   3.603   5.238  14.143 -0.0051  0.0666  0.0156
19872W        W35341  13.125  12.844   0.078 -0.1503 -0.0152  0.2220
19873W        W35342  17.036   6.706   3.919 -0.1219  0.1347  0.5166
19874W        W35343   1.110  12.760   5.335 -0.0841  0.0206  0.0705
19875W        W35344   7.743   0.400   3.117 -0.4260 -0.0148 -0.1730
19876W        W35345  11.903  15.971  11.182 -0.1243  0.1404  0.2607
19877W        W35346  18.229   0.036  14.008 -0.0295  0.3603  0.2056
19878W        W35347   8.148  17.645   1.514 -0.0309  0.1668  0.0125
19879W        W35348   8.152   6.677   3.937  0.3874 -0.1271 -0.2947
19880W        W35349  10.708  14.467  15.894  0.4620 -0.1569  0.1830
19881W        W35350   4.925   5.141   2.914  0.2116 -0.3091 -0.4258
19882W        W35351   5.552  14.752   1.773 -0.0444  0.0106  0.2563
19883W        W35352   8.917  10.225  10.471 -0.2171 -0.2529 -0.1591
19884W        W35353   1.981  13.422   3.511 -0.0793  0.0003 -0.1126
19885W        W35354  17.866  18.351   3.046  0.0260  0.0930  0.0535
19886W        W35355   0.974  18.302   1.463 -0.1041  0.2087  0.0951
19887W        W35356  16.984   2.859  13.413 -0.0796 -0.1567 -0.2220
19888W        W35357   6.669  10.745  11.116 -0.1147  0.0208  0.0783
19889W        W35358  17.784  16.049  11.557  0.0391 -0.1779 -0.1221
19890W        W35359   0.063  17.792   5.340 -0.0393 -0.3711 -0.1338
19891W        W35360  13.080  11.613  11.962 -0.1450 -0.3506  0.0721
19892W        W35361   0.511  17.750  12.984  0.1980  0.1542  0.0223
19893W        W35362   5.387   4.955  10.630 -0.0179  0.1453 -0.1316
19894W        W35363   6.474   6.291  13.279  0.0127 -0.0423 -0.2525
19895W        W35364   5.898   3.869   0.738 -0.0486  0.1871  0.2216
19896W        W35365  10.515  16.478   4.716  0.3648  0.2094 -0.3088
19897W        W35366  13.439  17.501  11.508 -0.3021  0.1995  0.0165
19898W        W35367  12.660  16.698   3.620 -0.0482  0.0103 -0.2070
19899W        W35368   4.250   8.308  12.609  0.2799  0.0151 -0.1790
19900W        W35369   1.386   3.546   3.026  0.3485 -0.0542  0.0053
19901W        W35370   9.322   2.301  12.727 -0.1949 -0.1377  0.3454
19902W        W35371   5.894   0.805  11.632  0.1955 -0.0215  0.2099
19903W        W35372   5.635   3.883   2.353  0.0058  0.4066 -0.2897
19904W        W35373  13.906   0.631  12.853  0.1753 -0.2112 -0.0493
19905W        W35374   5.049   9.214   5.228  0.0369  0.0335  0.3904
19906W        W35375   0.281  13.404  12.145  0.2309  0.0295 -0.3354
19907W        W35376   3.835   0.526  15.843  0.2508 -0.0663 -0.5431
19908W        W35377  14.653  13.981  15.130 -0.3100  0.0045  0.0547
19909W        W35378  13.255  13.279   0.389 -0.0838 -0.1759 -0.0968
19910W        W35379  12.470   8.763  13.269  0.1588 -0.5743 -0.2458
19911W        W35380   9.270  14.376   3.665 -0.1319 -0.3289 -0.3477
19912W        W35381  13.032   5.790   0.318 -0.1378 -0.2161 -0.0613
19913W        W35382   5.884  13.929   1.221  0.0379  0.1300  0.2266
19914W        W35383  11.490   2.111  14.066  0.4566  0.1294  0.0436
19915W        W35384  18.449  16.940  13.208 -0.1177  0.3556  0.1833
19916W        W35385  14.627  10.867   0.079  0.0240 -0.1268  0.1546
19917W        W35386   4.087   8.215  12.138 -0.1448  0.0578  0.1219
19918W        W35387   4.402  17.441   2.895  0.0710 -0.0436  0.1983
19919W        W35388  18.057  17.766  13.480 -0.1016 -0.1621 -0.0988
19920W        W35389   4.242   0.337   0.115 -0.1626 -0.0525 -0.1749
19921W        W35390   9.342   4.557  11.085  0.1188 -0.0579 -0.2054
19922W        W35391   1.441  12.004   0.033  0.2018  0.0970 -0.4637
19923W        W35392   1.263   0.141   3.104 -0.2284  0.0273 -0.0886
19924W        W35393  14.414  12.191   2.392  0.1101 -0.0572 -0.0850
19925W        W35394   3.700  14.695   0.787 -0.1843  0.3691  0.0824
19926W        W35395  15.669   3.421  15.790  0.1023  0.1564 -0.1300
19927W        W35396  17.215  18.137  12.816 -0.1721 -0.0670  0.2200
19928W        W35397  16.939   7.309   1.096  0.1047 -0.2140  0.1672
19929W        W35398   9.613  14.667  15.812  0.1277 -0.3295  0.1949
19930W        W35399   6.460  11.392   1.085  0.2575 -0.1617  0.0999
19931W        W35400   2.606  14.553   5.686  0.0098  0.1006  0.0518
19932W        W35401  10.223  16.406  13.067 -0.1758 -0.5295 -0.0158
19933W        W35402  14.849   9.551   3.459 -0.2737 -0.0939  0.2984
19934W        W35403  16.341  17.363   5.072 -0.0070  0.1323  0.1961
19935W        W35404  16.017   1.116   2.227  0.3527  0.0446  0.1316
19936W        W35405  16.360   9.557  12.064  0.0267 -0.0482  0.0631
19937W        W35406  10.236   2.711  12.546 -0.0944  0.2468 -0.1779
19938W        W35407   1.331  16.494   2.703 -0.2529 -0.0204 -0.3106
19939W        W35408   7.824   4.293   1.733 -0.1215  0.1244  0.1249
19940W        W35409  18.148   6.692  15.757 -0.0205  0.0502  0.1500
19941W        W35410   1.320   4.772   3.212  0.1178 -0.1452  0.0559
19942W        W35411   7.082  11.557   3.822 -0.2381  0.1604  0.2958
19943W        W35412   1.657  17.005  12.182  0.2274  0.1325  0.1158
19944W        W35413  16.496  16.575   3.876  0.1015 -0.0096  0.2152
19945W        W35414   8.195   5.833  13.580 -0.1823 -0.2110 -0.1834
19946W        W35415  10.160  10.353   5.175 -0.1149  0.0921  0.0402
19947W        W35416   9.603   3.769   2.556 -0.1147 -0.2218  0.0438
19948W        W35417  12.202  16.987  15.228  0.1286  0.1942 -0.4478
19949W        W35418  14.015   4.674   4.163 -0.1722 -0.5284  0.0987
19950W        W35419   5.641  11.747   4.646  0.0262  0.0531 -0.0690
19951W        W35420   5.283  11.566  13.769 -0.0977 -0.0765 -0.1562
19952W        W35421   1.010  13.904  15.912  0.0367  0.3845 -0.1811
19953W        W35422  15.230  14.617  14.922 -0.1496  0.2247 -0.0340
19954W        W35423   8.699   6.956  10.484 -0.0660 -0.1298  0.2818
19955W        W35424  15.506  11.365   0.004 -0.1565 -0.2665 -0.1074
19956W        W35425   6.667  15.907  13.700  0.1489  0.4079 -0.4921
19957W        W35426   5.593  13.803   3.502  0.2632  0.0171  0.1566
19958W        W35427   6.810   9.137  13.556  0.0449  0.3965 -0.0467
19959W        W35428   4.350   9.614   1.595 -0.1512 -0.1199  0.0840
19960W        W35429   7.998  11.212  11.563  0.0397  0.1414 -0.2185
19961W        W35430  15.656  13.326   4.220 -0.0637 -0.0509 -0.0744
19962W        W35431   0.129   7.680   0.307 -0.0479  0.0521  0.4408
19963W        W35432  15.517   8.616  12.495  0.1294 -0.0617 -0.1799
19964W        W35433   8.527   6.625  14.312 -0.0274  0.3269  0.0102
19965W        W35434   6.704  18.326  11.214  0.0407 -0.1877 -0.0132
19966W        W35435   2.589  12.794  10.913 -0.0108  0.2469 -0.0927
19967W        W35436  13.448   9.677   2.516  0.2227 -0.2123 -0.0087
19968W        W35437  13.033   4.275   9.430  0.0608  0.1710  0.0538
19969W        W35438  17.824  15.175   4.286  0.1949  0.0673 -0.0408
19970W        W35439   7.424   4.393   1.479  0.1941 -0.3018 -0.0398
19971W        W35440  12.789   5.112  12.571  0.2630 -0.1174 -0.0147
19972W        W35441  14.485  13.045   4.008  0.0159 -0.0528  0.2673
19973W        W35442  15.507   1.912   3.853 -0.2447 -0.0783 -0.2978
19974W        W35443   1.500   5.746  12.054  0.0332  0.0094  0.2119
19975W        W35444   4.202   1.766   1.022  0.1581  0.1700  0.0487
19976W        W35445  11.293   9.562  13.985  0.1681  0.2142  0.0450
19977W        W35446  13.866  17.244   4.172  0.0739  0.1815 -0.3293
19978W        W35447  13.120  17.785   1.175  0.1395 -0.2351 -0.1122
19979W        W35448   0.772  18.393  12.437  0.0359  0.2237  0.2143
19980W        W35449   1.920  10.495   3.593 -0.6152 -0.4517  0.0741
19981W        W35450   1.354  16.986   1.280 -0.3190 -0.2786  0.0705
19982W        W35451  16.599   0.999   5.153  0.1228  0.0381  0.4293
19983W        W35452   0.221  18.322   0.779 -0.0681 -0.1390  0.1000
19984W        W35453   0.928   6.868   5.120 -0.1938  0.2738  0.3053
19985W        W35454   4.948   9.818  15.411  0.1150  0.0215 -0.0774
19986W        W35455  16.269  14.944   4.658  0.2840  0.0496 -0.1846
19987W        W35456   7.613  14.539   1.852 -0.0548 -0.0912  0.1011
19988W        W35457  10.543  14.794  11.700  0.0281 -0.0401 -0.3783
19989W        W35458   7.645  12.195  15.581  0.1069  0.2176 -0.0428
19990W        W35459   3.304   8.826   5.363  0.1449  0.1631 -0.0566
19991W        W35460  10.284  13.648   4.804  0.0839 -0.0725 -0.0058
19992W        W35461   8.923   8.036  11.430  0.0486 -0.1266 -0.0353
19993W        W35462   9.579  15.202  15.632  0.0613  0.0399 -0.0219
19994W        W35463   3.363   2.370   1.404  0.1036  0.0113 -0.3369
19995W        W35464  14.314   0.895  12.812  0.2503  0.2132  0.1398
19996W        W35465   6.250   6.190  14.970 -0.1513  0.3543 -0.0083
19997W        W35466   0.930  11.077   1.016  0.1957  0.1549 -0.1566
19998W        W35467   7.460   7.423  13.556 -0.1503  0.0864 -0.3276
19999W        W35468   5.078   4.965   5.837 -0.0578 -0.1457 -0.2606
20000W        W35469   2.920   3.073   1.118 -0.2276  0.0915  0.0674
20001W        W35470   8.883  18.338   2.460  0.1923 -0.0606 -0.0755
20002W        W35471   6.318  15.059   2.201 -0.0391  0.0995  0.1173
20003W        W35472  15.541  12.355   0.468 -0.1469 -0.1233 -0.0645
20004W        W35473   7.652  14.845  15.027 -0.0687  0.0046  0.0883
20005W        W35474  11.590   8.401  14.272 -0.0675  0.0990 -0.0594
20006W        W35475  17.072  14.399   5.068 -0.3575 -0.3121 -0.0685
20007W        W35476  18.006   3.356  15.411 -0.1350  0.1051  0.0065
20008W        W35477  16.632  16.160   2.071 -0.2252 -0.1389  0.1648
20009W        W35478  10.019   9.415   4.014 -0.2182  0.3218  0.0522
20010W        W35479  17.479   7.331  13.776  0.0404 -0.1504 -0.1036
20011W        W35480   8.791  15.320   2.161 -0.1284  0.0647 -0.1716
20012W        W35481   6.780  11.465   2.024  0.2773 -0.0257  0.0805
20013W        W35482   9.232  13.358   4.870 -0.3213  0.1515 -0.0134
20014W        W35483   2.476   5.816  14.062 -0.0671 -0.1819 -0.2409
20015W        W35484   2.821  12.661   2.227  0.1069 -0.1064 -0.2503
20016W        W35485  15.933   4.400  12.491  0.0114  0.0547  0.1835
20017W        W35486  15.413  12.978   1.504 -0.0837 -0.1349 -0.1044
20018W        W35487   6.205  13.751   3.941 -0.0593 -0.1946 -0.1290
20019W        W35488   5.195   4.709  12.016  0.0225  0.3588  0.1751
20020W        W35489  13.425   2.839   3.176 -0.3083  0.2538  0.1946
20021W        W35490  13.099   3.043  10.820 -0.0568  0.0114 -0.0960
20022W        W35491  12.282  15.126   2.070  0.0161  0.0561 -0.1598
20023W        W35492   9.385  17.822  14.677 -0.3188  0.0819  0.2239
20024W        W35493  10.980  17.134   6.555 -0.2121 -0.2229 -0.1156
20025W        W35494   7.766   9.868  14.933 -0.2089  0.0420  0.2536
20026W        W35495  16.911   4.981  15.423  0.3746 -0.1656  0.2953
20027W        W35496   7.780   5.584   0.239 -0.1676  0.0548  0.0665
20028W        W35497  12.120   6.888  14.955 -0.0049  0.2554  0.0832
20029W        W35498   2.555   5.015   0.224  0.0359  0.0071 -0.1536
20030W        W35499   3.389   8.017   2.817  0.0009  0.1571 -0.4891
20031W        W35500   1.356  18.092   3.145  0.1760 -0.1737  0.1918
20032W        W35501   1.013   9.448  12.115  0.2107  0.0646  0.0159
20033W        W35502   0.635   0.134   0.524 -0.2018 -0.0975  0.2502
20034W        W35503  13.770  16.771  15.520  0.2625 -0.0601 -0.1906
20035W        W35504  17.271   2.713  11.709  0.2192  0.0198 -0.0641
20036W        W35505   2.925   2.477   3.663  0.3391  0.0426 -0.1342
20037W        W35506  17.490   9.469   4.237 -0.1565  0.0374 -0.1085
20038W        W35507  15.951   9.785   2.702 -0.2078  0.0762 -0.2094
20039W        W35508  15.759  16.494   1.142 -0.0965  0.0129 -0.2661
20040W        W35509  17.349   5.184  13.872 -0.2889 -0.0105 -0.2211
20041W        W35510   3.917  11.155   5.394  0.0036  0.1391 -0.3988
20042W        W35511  12.580  13.459  14.575  0.0407 -0.1821  0.1865
20043W        W35512   5.659  15.735   4.992 -0.1225  0.1734 -0.2390
20044W        W35513  18.388   9.579   3.882 -0.3947  0.2209  0.1234
20045W        W35514  16.145   2.987   4.011 -0.0847  0.1184 -0.4123
20046W        W35515  10.872  17.088  11.651 -0.2307  0.1023  0.1011
20047W        W35516  15.944  15.192   5.027  0.0668  0.0049  0.0287
20048W        W35517  17.844  10.777  13.354  0.2413 -0.0341  0.1131
20049W        W35518  18.454  13.238   1.280 -0.2792 -0.1152 -0.1007
20050W        W35519  11.988  16.101   4.994 -0.0833 -0.1807 -0.2705
20051W        W35520   4.782   0.202   2.569 -0.2586  0.1378 -0.1168
20052W        W35521  15.284   2.800  13.385 -0.0390  0.0525 -0.0847
20053W        W35522  12.835   9.931   2.622  0.0461 -0.2058 -0.1333
20054W        W35523  11.753   0.786   4.086  0.0840 -0.0437  0.0185
20055W        W35524   4.872   8.624  15.267  0.0163 -0.1196  0.1389
20056W        W35525  14.037  11.116   3.693  0.0008 -0.4168  0.1154
20057W        W35526  13.952  12.311  10.546 -0.1450  0.1275 -0.1144
20058W        W35527   2.198   7.002   1.721  0.1145  0.2869  0.1937
20059W        W35528  14.707   9.813   3.859 -0.1290  0.2301 -0.1537
20060W        W35529   8.004  14.737  14.128  0.7070  0.1201  0.1284
20061W        W35530  15.498  12.969   3.887  0.1339 -0.2432 -0.1283
20062W        W35531  17.280   2.057  15.246 -0.0313  0.2145  0.2508
20063W        W35532   3.469  17.129  12.077  0.0519  0.0308  0.0886
20064W        W35533   8.447   4.102  13.872  0.1212 -0.3738  0.1285
20065W        W35534  11.979  10.532   2.513 -0.0214 -0.0389  0.2194
20066W        W35535   3.909  16.465  12.915 -0.4370  0.1502 -0.0260
20067W        W35536   3.496   3.357   5.354 -0.0807 -0.0020  0.0192
20068W        W35537  15.072   6.667   0.217  0.0841 -0.1296  0.0377
20069W        W35538  14.181   4.086   3.060  0.0339  0.1422 -0.1804
20070W        W35539   5.222  14.615   4.086 -0.0630  0.0913  0.3441
20071W        W35540  11.559   9.221  10.278 -0.1507 -0.1732  0.0242
20072W        W35541   4.506   6.216   3.711  0.0977  0.0293 -0.0446
20073W        W35542  14.266   2.137   1.866 -0.0250 -0.1789  0.1027
20074W        W35543   8.873  11.918   4.725  0.0961 -0.0219  0.0403
20075W        W35544  13.502   4.904   3.413  0.2174 -0.0301  0.0492
20076W        W35545   8.598  11.005  10.763  0.1822 -0.1165 -0.1005
20077W        W35546   8.986   3.871  10.528 -0.1274 -0.3626  0.1394
20078W        W35547  15.841   8.584  13.235 -0.2210 -0.1522 -0.0114
20079W        W35548  18.073   7.302   2.153 -0.2071 -0.0111 -0.0109
20080W        W35549   6.921   6.222  13.618 -0.4583  0.0246  0.2363
20081W        W35550  13.727  11.432   2.604  0.0438 -0.1163 -0.0620
20082W        W35551  11.525   1.759   4.877 -0.1795  0.0722 -0.1218
20083W        W35552   3.800  17.514   0.463  0.1848  0.0941 -0.1273
20084W        W35553  13.662  12.747   2.377 -0.0161  0.0865 -0.2568
20085W        W35554   7.279   2.023   1.534 -0.1890  0.2542  0.0118
20086W        W35555   3.693   6.037   3.280 -0.0939 -0.4508 -0.1817
20087W        W35556   1.142   4.485   2.215 -0.4085  0.2612 -0.0630
20088W        W35557   2.503   8.863  13.166  0.0583  0.0892  0.0634
20089W        W35558   2.646   6.952   1.941  0.2960  0.0107  0.1686
20090W        W35559  12.808  15.338   4.670 -0.1092  0.3461  0.4342
20091W        W35560  14.745  10.160  10.738  0.3124  0.2215  0.0886
20092W        W35561   5.791  18.268  13.309  0.1250  0.5002  0.0430
20093W        W35562  10.519   8.776   3.809 -0.3941 -0.0871  0.1145
20094W        W35563   1.107   5.796   3.486 -0.0789  0.1489  0.1665
20095W        W35564  12.418  10.209  13.037 -0.1370 -0.0259 -0.0005
20096W        W35565   5.952  16.739   1.153 -0.0583 -0.2412 -0.1663
20097W        W35566  18.452   4.048  14.092 -0.1084  0.1633  0.2556
20098W        W35567  14.322  13.526   3.676  0.1815 -0.0860 -0.4056
20099W        W35568   0.464   8.325  11.008  0.0624  0.2186  0.0375
20100W        W35569   0.163  13.225   2.960 -0.0738  0.1431 -0.1126
20101W        W35570   3.139   8.843  15.368  0.0054  0.1186  0.0266
20102W        W35571   7.153   3.926  14.083  0.1127 -0.0232  0.1965
20103W        W35572   7.638  18.404  13.614  0.0748  0.0353 -0.0727
20104W        W35573  12.562   1.117   1.599 -0.0384  0.1753 -0.3208
20105W        W35574   5.633  12.662   5.200  0.1316 -0.4804  0.1297
20106W        W35575  15.951  14.964  14.220 -0.2550  0.3663 -0.0536
20107W        W35576   5.490  17.007  14.961 -0.1021  0.0758  0.0902
20108W        W35577  15.308   3.357   1.973 -0.1352 -0.5429  0.3135
20109W        W35578   1.313   0.456   1.858 -0.3747  0.0688 -0.0119
20110W        W35579  16.927  18.043   4.288  0.0567  0.0944  0.1808
20111W        W35580  14.489   1.277   2.236  0.2929  0.0763  0.1252
20112W        W35581  11.452   5.798  10.704  0.1826 -0.0261  0.1754
20113W        W35582   8.948  12.892   2.737 -0.0550 -0.3292  0.0804
20114W        W35583  13.729   0.725  11.831  0.1925 -0.3226  0.1153
20115W        W35584  12.614  11.121  13.982 -0.1616  0.4348 -0.1339
20116W        W35585  14.541   3.239  13.820  0.0232  0.0500  0.2699
20117W        W35586   1.964  13.631  15.347 -0.0309  0.0363 -0.1464
20118W        W35587   8.262   2.583   3.186  0.1518  0.1069 -0.4141
20119W        W35588   8.508   6.646   3.541 -0.0806 -0.2437  0.0129
20120W        W35589   4.545  11.500  12.141  0.3413  0.4639 -0.1271
20121W        W35590  16.410   2.332  14.092  0.0722 -0.0754 -0.1519
20122W        W35591  17.866  13.137  11.597 -0.0934 -0.1196 -0.3635
20123W        W35592   6.065  14.575   0.527 -0.1940  0.1431  0.0995
20124W        W35593  14.510  10.117   2.206 -0.0717  0.0871 -0.3678
20125W        W35594   5.496  16.283   0.436 -0.0665  0.2351 -0.1430
20126W        W35595  14.359  14.151   4.583 -0.1885  0.1749 -0.5248
20127W        W35596  14.541  10.298  10.244 -0.3090 -0.0120  0.0432
20128W        W35597   4.423   9.166   2.033  0.1927 -0.2640  0.1977
20129W        W35598  12.254   3.670  10.364  0.4966 -0.0639 -0.2348
20130W        W35599   9.464   4.253  12.565 -0.3170 -0.0919  0.0676
20131W        W35600   7.889   4.852  10.780  0.2893  0.2957 -0.0810
20132W        W35601   0.776  14.892   0.203 -0.1881  0.1096 -0.2893
20133W        W35602  17.790  10.830  15.529  0.2975  0.1912 -0.0875
20134W        W35603  13.443   4.034   0.578  0.1584  0.2010  0.0388
20135W        W35604  14.073   1.712   4.947  0.1321 -0.2358  0.0967
20136W        W35605   0.097  10.589  15.914  0.1209 -0.2549  0.1405
20137W        W35606   1.331   2.579  15.219 -0.2261 -0.1801  0.0352
20138W        W35607   0.305  17.828  14.353 -0.1576  0.1035 -0.0050
20139W        W35608   5.808  17.362   5.236  0.3231 -0.2384  0.0364
20140W        W35609   8.806  13.163  12.628  0.0308 -0.2593 -0.0230
20141W        W35610   7.515  12.556  14.831 -0.1470 -0.0154 -0.0023
20142W        W35611  11.610  14.289   0.418 -0.1872 -0.0999  0.1949
20143W        W35612  13.792  15.582   4.591 -0.1687 -0.1002 -0.1919
20144W        W35613   1.561  15.309   5.853  0.2880 -0.0810 -0.2881
20145W        W35614  16.724   1.547   0.934 -0.1163  0.0419  0.1337
20146W        W35615   5.320  15.648   0.259 -0.1330 -0.1819 -0.0687
20147W        W35616  17.919   9.026  11.856  0.0640 -0.2538  0.0477
20148W        W35617   3.078   8.751   1.717 -0.0145  0.1263  0.0550
20149W        W35618  16.384   6.052  12.632  0.0479  0.3908  0.0075
20150W        W35619   7.427  10.774  15.625 -0.1961  0.2977 -0.3419
20151W        W35620   2.284   7.860   3.830 -0.1404 -0.2192  0.3519
20152W        W35621   3.493  13.513   2.982  0.1411  0.1359  0.1185
20153W        W35622  14.357  17.546  10.099 -0.1139 -0.0671  0.0099
20154W        W35623  15.433  13.305   0.750  0.2038  0.0813 -0.1369
20155W        W35624   4.762   4.225   0.570 -0.2814  0.0463  0.1433
20156W        W35625  10.788  14.034   1.857 -0.1520  0.0412 -0.3404
20157W        W35626   8.906   0.338   2.298 -0.1403 -0.2488 -0.1925
20158W        W35627   0.127   9.635  12.136 -0.3924  0.2371 -0.2041
20159W        W35628  12.835   8.058   0.150  0.0703  0.0189  0.0663
20160W        W35629  14.007  16.892   2.913  0.2010 -0.3058 -0.0029
20161W        W35630  15.473   1.240  15.563 -0.0720  0.1518  0.0271
20162W        W35631   3.096  15.801   0.408  0.0426 -0.1576 -0.1261
20163W        W35632   0.205  15.576   0.415 -0.0459  0.1240 -0.1173
20164W        W35633   5.215  16.001  12.757 -0.1363  0.1110  0.4100
20165W        W35634  12.898   0.114   0.677  0.0072  0.2043 -0.0374
20166W        W35635  12.458  12.531   3.821  0.0876 -0.0300  0.0742
20167W        W35636  15.869  15.707   2.326  0.1428 -0.0066 -0.0938
20168W        W35637  15.476   4.187   3.839  0.0725  0.1767 -0.0429
20169W        W35638   8.339   1.518   1.568 -0.2175  0.0041  0.0446
20170W        W35639  11.234  12.145   1.262 -0.0904 -0.1599  0.1524
20171W        W35640  15.805  15.685  10.952 -0.1629  0.1465  0.2828
20172W        W35641  12.146  12.962  12.055  0.0866 -0.1536 -0.0310
20173W        W35642  10.075  12.009   1.481 -0.0137  0.0609 -0.1957
20174W        W35643   1.319   1.449   2.121  0.1334  0.2055  0.0225
20175W        W35644   5.229   2.788   0.271  0.3585 -0.2933  0.0931
20176W        W35645  15.368   8.869   5.113 -0.0548 -0.4087  0.0357
20177W        W35646  12.453   4.503   2.341  0.2149  0.2116 -0.1959
20178W        W35647   9.364  11.348   3.786 -0.2642  0.1942 -0.1892
20179W        W35648  18.456  17.420  14.422 -0.0718  0.1545  0.0310
20180W        W35649  13.767  11.007  11.794  0.0696 -0.0490  0.6110
20181W        W35650   6.283  14.299  14.400  0.0389 -0.1903 -0.0649
20182W        W35651  17.495   6.856   0.039  0.0141  0.3613 -0.0562
20183W        W35652   1.330   7.339   4.402 -0.0094 -0.1553 -0.3062
20184W        W35653   1.024   2.873   1.330 -0.3983 -0.1205 -0.1084
20185W        W35654  13.856   4.435  15.506 -0.2207 -0.2241 -0.1478
20186W        W35655   8.432  14.731  15.417  0.0677  0.2341  0.0925
20187W        W35656  10.822   6.591   1.562 -0.3110 -0.0270  0.0952
20188W        W35657   1.106   9.324   4.677 -0.0897 -0.1431 -0.2492
20189W        W35658   6.968  14.198   6.181  0.2317 -0.1770  0.4197
20190W        W35659   6.521   3.909   3.873  0.0534  0.0105  0.0384
20191W        W35660   7.852  17.353  13.552  0.1298  0.1648 -0.3650
20192W        W35661   2.634   4.185   4.623 -0.0990  0.0006  0.0175
20193W        W35662   6.645  16.194   0.486  0.0380 -0.1871 -0.1309
20194W        W35663   1.557  12.720  15.104  0.2381 -0.2011  0.1231
20195W        W35664  10.744   7.360  14.654  0.6290  0.2194 -0.1111
20196W        W35665  13.572   9.856   0.421  0.2518 -0.0297  0.0611
20197W        W35666   0.038  17.818   0.679  0.3531  0.2489  0.0580
20198W        W35667  13.097  17.239   5.436 -0.1537 -0.1164  0.1957
20199W        W35668   8.455  10.673  11.111 -0.0622 -0.0067  0.2671
20200W        W35669  12.274   6.053  13.188 -0.1876  0.0638  0.1742
20201W        W35670  11.355   3.373  12.015 -0.1045  0.1328  0.1774
20202W        W35671   5.488   0.654  14.843 -0.1194 -0.0665  0.2813
20203W        W35672  12.106   3.106   2.474 -0.0822  0.4518 -0.4016
20204W        W35673   0.307   9.004  13.355  0.1176 -0.3052  0.5135
20205W        W35674  17.373  14.044  10.677  0.1732 -0.0954 -0.1328
20206W        W35675   1.306  10.444  13.760  0.1298 -0.1508  0.0381
20207W        W35676   5.759  15.479   1.158  0.0465  0.1310  0.0618
20208W        W35677  18.081   3.574  14.892  0.5033 -0.2490  0.1457
20209W        W35678   4.397  15.579   5.124  0.2104  0.1635 -0.3225
20210W        W35679  10.720  13.956  12.807 -0.0385  0.1930 -0.0695
20211W        W35680   9.084   1.443   5.694  0.0533  0.0432 -0.3507
20212W        W35681   4.786  13.201   1.042  0.2045 -0.2549  0.0185
20213W        W35682  12.868  17.940   0.251 -0.0099 -0.0598 -0.0449
20214W        W35683   8.463  11.821   2.162 -0.0738 -0.0270  0.0179
20215W        W35684   0.665  14.760   4.832 -0.1217  0.0941 -0.3525
20216W        W35685  11.829   0.976   5.047  0.0741 -0.4536  0.1587
20217W        W35686  16.308  14.598   2.965  0.1133  0.2716  0.1404
20218W        W35687   8.613  16.374   0.844  0.0831  0.0605  0.0976
20219W        W35688  13.145  11.814  10.319  0.2268 -0.1507  0.3082
20220W        W35689   4.689   9.407   0.608 -0.1184  0.0303 -0.1830
20221W        W35690   0.846   4.808  12.624  0.0828 -0.0728 -0.0463
20222W        W35691  13.892   4.713  15.073  0.1932 -0.0728 -0.0846
20223W        W35692  12.081  15.572   2.120 -0.1290  0.2367  0.0916
20224W        W35693  10.031  12.681   2.764 -0.0365 -0.1273  0.1454
20225W        W35694   3.916  11.325   1.675 -0.2581 -0.2520  0.1489
20226W        W35695   1.028   7.153   3.678  0.1100  0.0954 -0.2668
20227W        W35696  13.524  16.193  13.614 -0.0840 -0.0792  0.0904
20228W        W35697  15.332  18.298  11.563 -0.0973 -0.1110  0.0067
20229W        W35698   1.191   0.668  11.940  0.2493  0.0871  0.3707
20230W        W35699  17.341  15.768   1.068 -0.2076 -0.0239  0.1355
20231W        W35700  11.453   7.838   5.619 -0.1738  0.0149  0.0114
20232W        W35701   0.763   9.140   4.980 -0.2038 -0.1442  0.0532
20233W        W35702   4.566  12.630   0.345  0.0387  0.2213  0.1821
20234W        W35703   6.372  14.153   1.470 -0.1692 -0.0355 -0.0134
20235W        W35704   8.939   9.294   4.371  0.1503  0.2684 -0.1085
20236W        W35705  15.394   2.339  10.910 -0.0100 -0.3716  0.4557
20237W        W35706  16.204   9.019  12.172 -0.1659 -0.0843 -0.1850
20238W        W35707   1.761  10.586  13.575 -0.2558  0.1488  0.1529
20239W        W35708  14.015  12.512   0.230  0.1082  0.2409  0.4781
20240W        W35709   2.149  11.233  14.176  0.1393  0.0539 -0.2125
20241W        W35710  11.589   3.965  13.096  0.0170 -0.0912 -0.1601
20242W        W35711  13.559  14.293  11.572  0.0808 -0.0993  0.3295
20243W        W35712  15.791   8.963   1.480 -0.0956 -0.3098 -0.0304
20244W        W35713  18.122   7.100  10.673  0.0884 -0.3849 -0.0309
20245W        W35714  12.069   6.733   1.516  0.0713 -0.0860 -0.2166
20246W        W35715  13.504  14.939  13.059  0.0560  0.1316  0.0630
20247W        W35716  15.283  17.753  11.474  0.2073  0.0048 -0.1216
20248W        W35717   7.978   8.253   2.706  0.2288 -0.1791  0.0757
20249W        W35718  13.732   2.815   4.167  0.1821 -0.0711 -0.0820
20250W        W35719   3.441   2.054  14.662  0.2325 -0.1080 -0.0049
20251W        W35720  14.341  13.513   0.373 -0.2277  0.0220  0.3069
20252W        W35721  14.153   5.222  12.073 -0.1485  0.0829  0.0249
20253W        W35722   8.027   8.872  12.326  0.1371 -0.2825 -0.0977
20254W        W35723  13.598   6.968   4.133  0.0819 -0.0755  0.0548
20255W        W35724   5.644  15.297   3.635  0.0258 -0.2733 -0.2206
20256W        W35725   2.412   8.866  11.016 -0.1857  0.0462 -0.0056
20257W        W35726  14.019   6.442  14.921 -0.4092 -0.1514  0.1618
20258W        W35727   4.226   8.091  14.163 -0.0776  0.0731  0.4711
20259W        W35728   9.258  15.705   4.464  0.1033 -0.0158 -0.1066
20260W        W35729  11.338  14.205   3.285 -0.2562  0.5885 -0.0719
20261W        W35730   3.308  10.344   3.405  0.0571  0.2466  0.0666
20262W        W35731   5.554   7.145   2.581 -0.1480  0.0035  0.2939
20263W        W35732  15.163  16.747   0.824 -0.0117  0.1784 -0.1511
20264W        W35733  11.258   7.903  11.840 -0.1011 -0.2137  0.1967
20265W        W35734   8.337  10.323  11.508 -0.0330 -0.0026  0.2719
20266W        W35735   7.648   1.066  11.049  0.0324  0.0709 -0.0240
20267W        W35736  11.292  11.523  15.009  0.1944 -0.2424  0.1608
20268W        W35737   9.168  15.833  15.097  0.0819 -0.1563 -0.0006
20269W        W35738   8.687   9.680  15.224  0.0004 -0.2757 -0.3149
20270W        W35739   1.180  13.468  12.210  0.2663  0.1630 -0.4185
20271W        W35740  13.639  14.949   0.512  0.1467 -0.0397 -0.1698
20272W        W35741  13.703  16.533   5.797  0.2464 -0.0490 -0.2068
20273W        W35742  16.684  10.808  15.014  0.1388 -0.2036 -0.2102
20274W        W35743  18.378  16.906   0.291 -0.0249  0.0805  0.0719
20275W        W35744   9.292   0.112  13.913 -0.0884 -0.0832 -0.5322
20276W        W35745   5.692   8.683  15.784 -0.0030  0.0289 -0.1616
20277W        W35746  17.477  13.613   1.038 -0.3467  0.1060  0.1269
20278W        W35747   3.094  16.836  11.782  0.3094 -0.2008  0.0606
20279W        W35748  17.299   4.326   2.694 -0.0079  0.0345  0.0188
20280W        W35749   1.751  11.550  13.052 -0.1133  0.1397 -0.1707
20281W        W35750   3.134   6.134   2.299 -0.2446  0.0340  0.1575
20282W        W35751  15.014   7.916   1.764 -0.0385 -0.1792  0.0809
20283W        W35752   1.724   8.170   4.164  0.0222 -0.1003 -0.0626
20284W        W35753  14.626   1.847  12.969  0.2730 -0.1235  0.1280
20285W        W35754  14.363   2.337  15.618 -0.0152 -0.0496  0.2107
20286W        W35755   1.340   8.652  11.564 -0.1724 -0.1809 -0.1444
20287W        W35756   9.548   5.870   1.747 -0.0199 -0.0395  0.1643
20288W        W35757   4.939   3.976  15.600 -0.2937  0.0147 -0.2183
20289W        W35758  15.015  10.849  12.579 -0.2649  0.1835  0.0878
20290W        W35759  13.730  17.145   1.556 -0.0864  0.0229  0.1962
20291W        W35760   0.524   9.061   5.489 -0.1436  0.0914 -0.0297
20292W        W35761   6.990   0.060  15.173  0.1717 -0.2365  0.0751
20293W        W35762  18.219   8.014  13.099 -0.2578 -0.0479 -0.0505
20294W        W35763  17.297   1.287   3.364  0.0281  0.0645  0.2065
20295W        W35764   0.228   5.480  11.053 -0.1500 -0.2810 -0.0635
20296W        W35765   9.538   3.245   1.030 -0.1105 -0.4565 -0.1910
20297W        W35766  18.150   7.449  15.313 -0.0520  0.0423 -0.1446
20298W        W35767   8.229  12.940   1.245 -0.3641 -0.1770 -0.0495
20299W        W35768  13.139  14.885  12.240  0.0349 -0.0286 -0.2054
20300W        W35769   7.925  14.751  11.273  0.0211  0.0484  0.0197
20301W        W35770   6.667  16.228  13.121  0.0953 -0.0316 -0.6614
20302W        W35771  13.747   1.632  10.798  0.2193 -0.1376 -0.0906
20303W        W35772   7.751  14.270  14.227 -0.0159 -0.1733  0.0612
20304W        W35773   0.189  13.575   1.661  0.5356 -0.0752 -0.3706
20305W        W35774   7.505   7.021  15.321 -0.1381 -0.2759  0.0967
20306W        W35775   5.932   0.824  13.770 -0.0961 -0.2703  0.1344
20307W        W35776  15.142  14.550  13.142 -0.0124 -0.0530  0.1512
20308W        W35777  15.697   1.372   1.301  0.3027  0.1078  0.2049
20309W        W35778  18.175  11.044   5.148  0.2310  0.2272 -0.1428
20310W        W35779   5.697   5.889  14.449  0.0226  0.1471 -0.3188
20311W        W35780  11.060   9.524  14.498  0.2305 -0.0061  0.0665
20312W        W35781  13.066  10.033   5.459  0.1464  0.2039  0.1156
20313W        W35782  10.322  13.566  12.787  0.3420 -0.5599 -0.2235
20314W        W35783  11.222   2.868  11.206  0.1082 -0.0050 -0.0411
20315W        W35784   0.222   8.994   5.052 -0.2586  0.4535 -0.1474
20316W        W35785  14.039   7.289  14.704  0.0419  0.2178 -0.0583
20317W        W35786   0.029   1.344   4.641  0.3171 -0.1677 -0.1387
20318W        W35787   2.528  14.276   3.663 -0.0164 -0.0310  0.0342
20319W        W35788  10.317  10.852   4.192  0.1217  0.2403  0.1028
20320W        W35789   7.950   8.213  14.141 -0.0742  0.1069  0.0999
20321W        W35790   0.678  10.260  10.662 -0.1376  0.1664  0.3254
20322W        W35791  14.981   5.719  11.308 -0.3723  0.2640 -0.0888
20323W        W35792   6.969  15.320  15.147 -0.0643 -0.1716 -0.2724
20324W        W35793   4.107  11.174  13.180 -0.2170  0.0840  0.1698
20325W        W35794   1.586   3.358  12.023  0.2010 -0.0511 -0.1042
20326W        W35795   2.649  15.345  11.523 -0.0065  0.4102 -0.0610
20327W        W35796  10.089   6.419   4.436 -0.1417  0.2507  0.1210
20328W        W35797  12.464   4.323   4.941  0.0248  0.3073 -0.2970
20329W        W35798   2.060  14.852   0.708 -0.1759  0.0829  0.0952
20330W        W35799  17.508  16.882  11.029 -0.1635 -0.1544  0.1232
20331W        W35800   3.624   1.866  15.531 -0.0884  0.0887 -0.0839
20332W        W35801  14.643   2.824  13.477 -0.2018 -0.0840 -0.2727
20333W        W35802   8.305  18.445  11.356  0.1801 -0.2044 -0.0078
20334W        W35803   6.338   0.701   4.131 -0.2250  0.3566  0.4431
20335W        W35804   3.516   0.684   2.439  0.1780 -0.3733  0.0821
20336W        W35805  18.209   5.835  15.865 -0.0221  0.4588  0.1598
20337W        W35806  17.939   2.168   2.578 -0.0198  0.3116  0.2846
20338W        W35807  15.090  11.596   5.297 -0.0684  0.1455  0.2072
20339W        W35808  12.188  12.318   0.622 -0.3462 -0.0013 -0.0497
20340W        W35809   2.118  10.296  15.081 -0.3240 -0.1459  0.0005
20341W        W35810   7.433   1.424  11.616 -0.0951 -0.0680  0.4078
20342W        W35811  12.559   0.944  14.049  0.2104  0.1543  0.1115
20343W        W35812   4.488  16.291   0.682  0.0690  0.0105  0.1613
20344W        W35813   6.240   2.198   4.265  0.1781  0.1151 -0.1794
20345W        W35814   7.391   2.864   2.913  0.3517 -0.2573 -0.1202
20346W        W35815   2.758   7.385   3.893  0.1009 -0.3340  0.0565
20347W        W35816  10.870   0.626  11.511  0.0271  0.3631 -0.1147
20348W        W35817  12.947   0.770  11.539 -0.1045 -0.1440 -0.4389
20349W        W35818  11.502  10.575  13.060  0.1966 -0.1077 -0.0044
20350W        W35819   7.720  13.551   0.656  0.0599 -0.2263 -0.1939
20351W        W35820  14.088  10.083  15.581  0.0401 -0.0986 -0.1150
20352W        W35821  14.326   4.486  12.257  0.1042 -0.1749  0.2391
20353W        W35822  11.004  14.328  10.960  0.1796 -0.0780 -0.0916
20354W        W35823  16.445  18.023  13.941 -0.5252  0.3328  0.0534
20355W        W35824  18.088  10.568   2.667  0.1522  0.1363 -0.0081
20356W        W35825   4.916   6.184  15.591 -0.0408 -0.1025 -0.2859
20357W        W35826  13.455   1.725  11.329  0.1545 -0.2613  0.1233
20358W        W35827  14.111  11.437   4.977 -0.1852 -0.2083 -0.2917
20359W        W35828   2.983   5.624  13.409  0.0349 -0.0794 -0.0675
20360W        W35829   7.133  11.525  15.116 -0.0286  0.0916  0.1552
20361W        W35830  13.264   2.912   5.255  0.0693 -0.0576 -0.3485
20362W        W35831  11.257  11.546   3.440 -0.0347 -0.0294  0.1319
20363W        W35832  18.209  16.422  15.319 -0.3143  0.1861 -0.2693
20364W        W35833  12.929   4.867   0.888 -0.1614  0.1957  0.1726
20365W        W35834  14.837  13.450   5.214  0.0032  0.0811 -0.1152
20366W        W35835  10.837  13.669   3.920 -0.0289  0.0484  0.0936
20367W        W35836  11.170   3.219   4.900 -0.1892 -0.2060 -0.2106
20368W        W35837   2.134   2.926   2.473 -0.0762  0.4209  0.1728
20369W        W35838  14.477   4.861  11.753 -0.0788 -0.1039  0.0341
20370W        W35839   7.072   2.704  11.849  0.0731  0.3416 -0.1578
20371W        W35840   6.360   0.834  11.804  0.2554  0.1065 -0.3377
20372W        W35841   6.315  16.331  14.147 -0.2032 -0.1257 -0.3947
20373W        W35842  13.265   4.839  13.368 -0.0260  0.1778  0.0386
20374W        W35843  15.459   7.911   3.773 -0.1057  0.1044 -0.0232
20375W        W35844  10.419  12.883   2.598  0.0506  0.0669 -0.3083
20376W        W35845   3.222  12.163   0.967  0.0994 -0.0868 -0.0393
20377W        W35846   9.724  13.726   4.082 -0.2666 -0.1789  0.0075
20378W        W35847   0.766  11.140   0.563  0.0967  0.1946  0.2176
20379W        W35848   3.411  12.137   2.834 -0.1070 -0.0623  0.2181
20380W        W35849   0.607  12.119  13.462 -0.2404 -0.0645 -0.1330
20381W        W35850   4.304   6.439  13.984  0.3271  0.0867 -0.0478
20382W        W35851  13.814   7.166   1.959  0.1205 -0.1144  0.1406
20383W        W35852   3.710   9.994   1.253 -0.0577  0.3841 -0.0815
20384W        W35853   5.386   1.763   2.128 -0.0741  0.1588 -0.0199
20385W        W35854   2.008  12.755   5.029 -0.2989 -0.1429  0.2717
20386W        W35855  15.237  11.994  10.881  0.0629  0.2421 -0.2309
20387W        W35856   0.041  16.974   2.119 -0.0121  0.0178  0.0768
20388W        W35857  12.154  12.966  11.472  0.0735  0.1021 -0.4021
20389W        W35858  17.142   8.630  14.736  0.1368  0.2025 -0.1705
20390W        W35859   1.787   9.585   1.485 -0.0666  0.0192  0.1468
20391W        W35860  12.237   5.193  14.920  0.3323 -0.1605  0.2596
20392W        W35861   5.401   1.039  15.115 -0.1326 -0.1993 -0.2046
20393W        W35862   5.180   9.623   4.396 -0.0744  0.1207  0.0297
20394W        W35863  17.216   6.355  15.162  0.2752  0.2155  0.2214
20395W        W35864  13.764  10.076   0.025  0.1571  0.2461 -0.2631
20396W        W35865  11.254  16.397  13.699 -0.3365  0.0741 -0.2534
20397W        W35866  13.171  11.014   3.834 -0.3074 -0.1379  0.0112
20398W        W35867   2.177  13.237  15.635  0.2353 -0.1875  0.0630
20399W        W35868   6.792   2.076  12.091  0.1617  0.1647  0.0482
20400W        W35869  13.489   6.562   1.409  0.1298 -0.2206  0.1143
20401W        W35870  15.490  11.509  10.992 -0.0011 -0.1169 -0.1216
20402W        W35871   6.111  12.692   3.549  0.2528 -0.0176  0.1740
20403W        W35872   8.093   5.407   5.554  0.0345 -0.4861  0.0382
20404W        W35873   5.374   1.491   4.527 -0.4183  0.4335  0.0861
20405W        W35874  15.942   8.417   4.424  0.2822 -0.0162  0.0640
20406W        W35875  12.642  12.776  12.398  0.0466  0.0708  0.1923
20407W        W35876  11.934   7.505   2.649 -0.0229 -0.1192 -0.1494
20408W        W35877   3.159  15.825   5.301  0.0876  0.2400  0.0311
20409W        W35878   5.510   4.302   5.528 -0.0020 -0.4236 -0.1143
20410W        W35879   7.905  11.374   1.825 -0.0493  0.1240  0.3308
20411W        W35880  14.730  14.266  11.835  0.1942 -0.1910  0.1892
20412W        W35881  15.870   1.144   3.091  0.0231  0.0986  0.0353
20413W        W35882   8.294   0.990   1.269  0.4027 -0.2854 -0.0710
20414W        W35883  16.222   0.180   5.210 -0.1033  0.1039 -0.0480
20415W        W35884   5.681  11.251   1.813 -0.0473 -0.0281  0.1709
20416W        W35885  11.643  18.206  12.680 -0.2959 -0.0534  0.2555
20417W        W35886  14.169  10.359  15.169 -0.0454  0.2026 -0.0504
20418W        W35887   7.353   6.838   5.866 -0.1679  0.0342 -0.1911
20419W        W35888  15.230   0.429   0.114  0.3187  0.3600  0.1968
20420W        W35889   5.438   0.290   3.237  0.2086 -0.1305  0.1532
20421W        W35890  12.809   9.742   0.757 -0.0237 -0.2130 -0.2636
20422W        W35891  14.575   0.916   2.783  0.0732 -0.2188  0.0218
20423W        W35892   9.106  15.392  15.678  0.2019 -0.0715 -0.2472
20424W        W35893   4.538  12.095   1.591 -0.3852 -0.2453 -0.1221
20425W        W35894   7.924  14.565  11.750  0.1100  0.2395 -0.0915
20426W        W35895   0.287   1.860  13.189 -0.0084  0.0093  0.1239
20427W        W35896  13.277  11.767  12.767  0.1179 -0.0797  0.0249
20428W        W35897   1.230   6.165   3.110  0.2650  0.1491  0.0944
20429W        W35898  12.462  10.419   2.244 -0.0689 -0.0035  0.2288
20430W        W35899   5.107   4.085  14.653  0.0766  0.1856 -0.0757
20431W        W35900  14.080  15.718  13.017 -0.0020 -0.3644  0.0235
20432W        W35901  18.400  14.455  15.741 -0.0321 -0.1202 -0.1109
20433W        W35902  11.273  14.275   1.880  0.3247  0.3888  0.0604
20434W        W35903   5.074   3.622  14.939 -0.0243 -0.0627  0.1769
20435W        W35904  14.277   7.717  13.392  0.2361 -0.0131  0.2892
20436W        W35905   0.537  17.331   2.339 -0.0356  0.0724 -0.0345
20437W        W35906  10.508   7.429   4.260  0.0923  0.2233 -0.0689
20438W        W35907  12.228   4.929  13.686 -0.1041  0.0404 -0.1749
20439W        W35908  16.456  18.017   3.629 -0.1702  0.1711  0.0541
20440W        W35909   6.177   2.244  13.652  0.0658  0.1231  0.2667
20441W        W35910  17.131   8.802  12.841  0.1451 -0.0748 -0.1606
20442W        W35911   9.958   3.956   0.249 -0.1905 -0.1507  0.0293
20443W        W35912   2.780  12.966  10.460  0.0642 -0.0300 -0.0174
20444W        W35913  16.853  15.871   0.928 -0.1542 -0.1723 -0.1094
20445W        W35914   0.674   7.559  14.439 -0.1429  0.0036 -0.0195
20446W        W35915   8.398  12.348  15.055 -0.0142 -0.0536  0.0657
20447W        W35916   8.877   8.101  14.534  0.0177  0.0291  0.2018
20448W        W35917  18.474   3.537  13.687  0.1734  0.0369 -0.1594
20449W        W35918   6.207   4.295  13.125 -0.2405  0.1000  0.0146
20450W        W35919   9.267   2.983   5.419 -0.2724  0.0685  0.2053
20451W        W35920   0.352   7.358   5.535  0.3449  0.1404 -0.1437
20452W        W35921  17.233  11.680   2.626 -0.3443 -0.2346  0.0528
20453W        W35922   7.384  14.256  14.574  0.1567  0.1404 -0.0318
20454W        W35923   9.065   9.320  11.193 -0.0097  0.0162 -0.0303
20455W        W35924  12.795  16.499  15.554 -0.0631 -0.2177  0.0357
20456W        W35925   2.112   6.899  13.450 -0.1127 -0.0669 -0.1947
20457W        W35926  12.728  18.363  15.867 -0.0841 -0.3039 -0.1540
20458W        W35927   7.791   4.091   5.319 -0.2357  0.1266  0.1048
20459W        W35928   8.558   0.365  10.516 -0.0005  0.0129 -0.0067
20460W        W35929   4.005   5.058  12.942  0.1500  0.0449 -0.3899
20461W        W35930  10.924   8.345  12.873  0.2853  0.1491 -0.1244
20462W        W35931   4.037   8.381   4.464  0.0859  0.2558 -0.2351
20463W        W35932  15.805   2.410   0.323 -0.1390  0.1272  0.1046
20464W        W35933   0.338   6.472  14.621  0.1080  0.0497 -0.0163
20465W        W35934  13.112  12.839  14.145  0.0214  0.0203 -0.3205
20466W        W35935  15.451   8.701  10.911 -0.1117  0.0935 -0.1668
20467W        W35936  16.520  10.061   0.789  0.0202  0.3018  0.0567
20468W        W35937  13.254  18.015   1.650  0.0692  0.2644  0.2633
20469W        W35938   9.378   4.733  15.185  0.1137 -0.3048  0.0449
20470W        W35939   9.846   4.750   1.895  0.2427 -0.2517  0.2559
20471W        W35940  13.540  16.358  12.492 -0.1457  0.2761 -0.0887
20472W        W35941   6.457  13.763  12.159  0.1447  0.0897  0.1950
20473W        W35942  14.326  10.685  11.055  0.0073  0.1725 -0.0368
20474W        W35943  11.573  12.474   2.670  0.1237  0.0979  0.2922
20475W        W35944  16.212  10.043  11.590  0.1025 -0.1463 -0.1071
20476W        W35945  11.047  11.279  13.274 -0.1681  0.0918 -0.3122
20477W        W35946   9.100   2.687   4.244  0.2990 -0.2105 -0.0387
20478W        W35947  16.298  15.603  12.345 -0.0262 -0.0409  0.0241
20479W        W35948   8.359   1.244  14.905  0.0436 -0.0990  0.0836
20480W        W35949   5.929   8.228  12.380  0.1894  0.0629  0.1927
20481W        W35950   9.821   1.900   3.331 -0.1236  0.1329  0.1646
20482W        W35951  14.372   2.855   0.911 -0.3286 -0.1610  0.0963
20483W        W35952  10.806  10.175   3.524 -0.1564 -0.0486  0.0639
20484W        W35953  14.737   0.922   3.969  0.0086 -0.2568 -0.1478
20485W        W35954   9.303  11.656  11.098 -0.0401  0.0255 -0.4123
20486W        W35955   8.590   2.871  13.651  0.0305 -0.1421 -0.0143
20487W        W35956  14.170   5.797  12.988  0.1500  0.0531 -0.1285
20488W        W35957   0.800  12.683  14.094  0.1148 -0.1196  0.2123
20489W        W35958   9.841   6.518   5.699 -0.0747 -0.0729 -0.1798
20490W        W35959   7.099  10.126   2.393  0.0440 -0.0853  0.1695
20491W        W35960  15.116   7.209  15.646  0.2558 -0.1645 -0.2362
20492W        W35961  16.575   3.296   3.715 -0.3210  0.2057  0.0354
20493W        W35962   7.201   8.736  12.822  0.0490  0.1792  0.2358
20494W        W35963  17.146  16.796  11.419  0.0425  0.0669 -0.0799
20495W        W35964  10.305   4.287  13.319  0.1978 -0.1464  0.0314
20496W        W35965   2.318   3.023  12.638 -0.0433  0.0294  0.0399
20497W        W35966  17.461   1.533   4.896 -0.0378  0.1778  0.1901
20498W        W35967  13.058   4.436  14.938  0.0974 -0.2006 -0.2353
20499W        W35968   2.862  14.869  13.415 -0.1493  0.2283 -0.0706
20500W        W35969   6.695  10.516  15.049  0.1115 -0.2076 -0.4966
20501W        W35970  12.152   1.151   0.742 -0.0890 -0.2429  0.0595
20502W        W35971   8.040  11.363   3.638 -0.0759 -0.2140  0.2284
20503W        W35972  11.691   7.628   3.455 -0.0156 -0.0847 -0.3959
20504W        W35973  15.452  10.674  12.242 -0.0705  0.1447  0.0245
20505W        W35974  15.821   7.045  15.872 -0.0056  0.0222 -0.2109
20506W        W35975   9.048   3.718   2.934  0.1401  0.0858  0.4179
20507W        W35976  13.274  16.185   3.181 -0.2502 -0.0039  0.1481
20508W        W35977   2.239   1.880  13.576 -0.2230 -0.1498  0.2291
20509W        W35978   9.579  16.445  14.332  0.1839 -0.3716  0.3748
20510W        W35979  14.547   7.095  10.820 -0.0584  0.0052 -0.0887
20511W        W35980   7.393   0.369  14.256  0.5364 -0.4701 -0.1118
20512W        W35981  12.150  17.647   2.371 -0.0168  0.0412  0.1140
20513W        W35982  12.608   9.913   1.417  0.1562 -0.2874 -0.0375
20514W        W35983   5.742  14.842  13.657 -0.0985 -0.1502 -0.3270
20515W        W35984  16.365  16.604  13.700 -0.0186  0.0644  0.0362
20516W        W35985  13.667  13.215  13.522 -0.0430  0.1901 -0.3226
20517W        W35986   0.218  11.219   0.551 -0.1843  0.1301  0.0536
20518W        W35987  17.798  11.807   1.069  0.0548 -0.1733 -0.2735
20519W        W35988   3.046  17.280   0.014  0.0425 -0.2283  0.1021
20520W        W35989  12.634   3.572   4.855  0.0415  0.1477 -0.0742
20521W        W35990  12.789  17.285   4.502  0.2334  0.1660  0.2429
20522W        W35991  15.468  15.787   2.898  0.2288  0.0589  0.2163
20523W        W35992  15.165  10.525  13.168  0.1072  0.0224 -0.0757
20524W        W35993   9.844   4.314   3.286  0.1577 -0.2159  0.1449
20525W        W35994  13.653   2.691  11.795 -0.0224  0.3281  0.1279
20526W        W35995   7.364   1.916   2.457  0.1603  0.0711 -0.0405
20527W        W35996   7.091   3.280   3.956 -0.0674 -0.4692  0.0521
20528W        W35997  11.262   7.777   3.659  0.0811  0.2157  0.2473
20529W        W35998  17.688   9.819   3.101  0.1056  0.0343  0.1602
20530W        W35999   1.243   9.435  15.718  0.2179  0.1818  0.1204
20531W        W36000   2.252   8.180   0.231 -0.1943  0.4127  0.1819
20532W        W36001  15.202   0.265   2.875 -0.1415  0.0837  0.1680
20533W        W36002  14.443  15.495   5.473 -0.2082  0.2141  0.0639
20534W        W36003   0.957  17.092  14.954 -0.1753  0.1525 -0.0120
20535W        W36004  14.747  13.538  11.843  0.0931  0.1318  0.2725
20536W        W36005   1.919   8.716  13.524  0.0515 -0.1046 -0.0324
20537W        W36006  15.799   2.270   5.328  0.1752  0.2181  0.0449
20538W        W36007  11.865   6.117  15.331 -0.0853 -0.0462  0.0233
20539W        W36008   4.390  16.470  12.864 -0.1048 -0.2528  0.0249
20540W        W36009  14.361  18.269   3.343 -0.1941  0.1835  0.1053
20541W        W36010  18.190   8.823   0.552  0.0212 -0.1933 -0.0977
20542W        W36011  18.112  13.564  14.770 -0.0202 -0.0220 -0.0295
20543W        W36012  11.065  13.022  13.459  0.0514  0.1049 -0.2928
20544W        W36013  11.604  13.011  13.353 -0.1089  0.1161  0.0002
20545W        W36014   2.803   3.082  12.764 -0.1709 -0.0557 -0.3160
20546W        W36015  18.287   0.000  15.844  0.1682  0.1037  0.1602
20547W        W36016  12.521   3.327   9.957 -0.0156 -0.0971 -0.0270
20548W        W36017  12.294   7.566  14.075 -0.0406  0.2552 -0.0991
20549W        W36018   8.479   6.991   3.970 -0.0648  0.1595  0.2762
20550W        W36019   1.693   4.714   1.882  0.4186  0.1949  0.0487
20551W        W36020  17.028   3.900  13.195 -0.1689  0.2863 -0.0638
20552W        W36021   6.866   8.655   1.894 -0.0139  0.0862 -0.0410
20553W        W36022   5.103   5.497   1.783 -0.0967 -0.0288 -0.4490
20554W        W36023  10.011   5.607   3.117  0.2235 -0.0645 -0.1571
20555W        W36024   1.064   6.521  15.313 -0.0231 -0.0326  0.0242
20556W        W36025   1.785   8.233   5.019 -0.0940  0.1733  0.0367
20557W        W36026  13.441  13.859   1.518 -0.2333 -0.1717 -0.1518
20558W        W36027   2.409   6.964  13.037  0.0612  0.0595 -0.2774
20559W        W36028  14.960  12.391  15.228 -0.0181 -0.2611 -0.1280
20560W        W36029   2.884  11.998   0.664 -0.0526 -0.2090 -0.1873
20561W        W36030  14.692  15.864   0.792 -0.1045  0.1686  0.1948
20562W        W36031   1.528   2.510   4.190  0.1800 -0.1352  0.0549
20563W        W36032   1.948  17.204  15.768 -0.0896 -0.1055  0.3155
20564W        W36033   9.417  16.637   2.016  0.0850  0.2552  0.0953
20565W        W36034   1.146  16.057   2.418  0.1141  0.2370  0.2302
20566W        W36035   4.251   9.809  14.345 -0.3243 -0.1594 -0.1354
20567W        W36036  16.907  15.631  15.336 -0.1036 -0.0439 -0.0297
20568W        W36037   8.382  13.588   1.807  0.1220  0.1509 -0.1655
20569W        W36038  15.583  10.060  13.527 -0.0073 -0.0883 -0.0506
20570W        W36039   0.976  17.892  15.211  0.0747  0.1655  0.0622
20571W        W36040  12.137   4.749   4.236 -0.0672  0.2454  0.0335
20572W        W36041  10.526  14.030  12.397  0.3148  0.4483  0.1863
20573W        W36042   1.349   4.238   2.798  0.1828 -0.2063  0.0445
20574W        W36043  11.668  14.668   1.785 -0.0344 -0.0359  0.0414
20575W        W36044  15.896   9.043   2.320  0.0524 -0.2248 -0.2232
20576W        W36045   5.042   3.824  11.735 -0.1034 -0.0433 -0.0990
20577W        W36046   2.068  12.235   2.054 -0.0075 -0.1743  0.0520
20578W        W36047  12.307  11.672   3.202 -0.1671 -0.2615 -0.1680
20579W        W36048  17.479  18.150   3.511 -0.0601  0.0630 -0.2327
20580W        W36049   5.641   4.499   6.394 -0.1986  0.0533  0.3979
20581W        W36050  11.881  13.313  11.675 -0.0425  0.1952  0.5364
20582W        W36051   4.060   7.786  11.636  0.1113 -0.0409  0.1623
20583W        W36052  12.420   4.940  12.120  0.0871 -0.3654  0.1285
20584W        W36053   2.914   2.610  13.091 -0.3518 -0.0327  0.0401
20585W        W36054   5.148   4.587   1.474 -0.2420 -0.1635  0.1411
20586W        W36055  12.105   9.394  10.227 -0.4464 -0.0090  0.0223
20587W        W36056  11.217   3.392  14.095  0.0916  0.1149 -0.0399
20588W        W36057   8.849  14.208  10.360  0.0193  0.1590  0.3343
20589W        W36058   5.718   7.311   3.469  0.5116 -0.1265  0.0325
20590W        W36059  15.175  10.104   0.301 -0.1982 -0.0986  0.2394
20591W        W36060   3.353  13.523   4.992 -0.2540 -0.1478  0.0280
20592W        W36061   5.298   2.703   1.563  0.1049  0.1302  0.0374
20593W        W36062  14.358  14.114   0.483 -0.1498 -0.2078 -0.1218
20594W        W36063  15.582   8.681   3.376 -0.0203 -0.2370 -0.0719
20595W        W36064   6.743   2.623  14.834 -0.1197  0.0789 -0.1794
20596W        W36065   1.934   4.867  13.203  0.0743  0.0754  0.0051
20597W        W36066   9.466  12.838  13.858 -0.0160  0.0732  0.0699
20598W        W36067   3.090   6.154  12.924  0.3205 -0.0154  0.0427
20599W        W36068  12.728   8.883   0.144 -0.0368 -0.1160 -0.0721
20600W        W36069   0.476   2.396  15.498 -0.0497  0.1867 -0.2810
20601W        W36070  16.054  14.436  11.002  0.0745  0.1866 -0.1307
20602W        W36071   1.883   9.969  11.166  0.2006 -0.0507 -0.1524
20603W        W36072  18.264  12.993  14.107  0.0743  0.1247 -0.3160
20604W        W36073   8.114  16.345   6.672 -0.1072 -0.1522 -0.0244
20605W        W36074  16.233  12.539  14.581 -0.0272 -0.1047  0.0948
20606W        W36075  13.808   7.252  11.803 -0.1261 -0.2644 -0.1043
20607W        W36076  15.054   4.126   4.200 -0.0686  0.3926 -0.1699
20608W        W36077  12.910   9.696  11.489  0.1002  0.2492  0.0785
20609W        W36078   1.270  15.780  14.446 -0.2001 -0.1338 -0.2106
20610W        W36079  14.604   3.834   0.169  0.3383  0.0424  0.0928
20611W        W36080   0.535  14.099  12.359  0.0487 -0.2642 -0.0009
20612W        W36081  16.220   3.928  12.648 -0.1330  0.1352  0.0950
20613W        W36082   7.419   7.233  10.086  0.3074 -0.0010  0.0564
20614W        W36083   0.879   8.507   0.751 -0.1634  0.0282  0.4232
20615W        W36084  11.107  16.038  14.226 -0.1622 -0.1531 -0.2499
20616W        W36085   3.994  12.409  11.725 -0.1641 -0.0187 -0.2557
20617W        W36086  11.860  10.038  13.239 -0.3251  0.2999 -0.2806
20618W        W36087  14.898  13.289   1.560 -0.1344  0.2099  0.3515
20619W        W36088  14.932  12.578  12.814  0.0051  0.1804 -0.2081
20620W        W36089  14.679  14.341  11.293 -0.0160  0.0127 -0.0967
20621W        W36090   1.124  18.173  11.661 -0.0161  0.2170 -0.1363
20622W        W36091   8.248  15.277   2.211 -0.1418  0.0447  0.0518
20623W        W36092   7.797  14.899   4.633 -0.4022  0.3964 -0.0092
20624W        W36093  18.451   5.239  12.315 -0.0312 -0.1301  0.0542
20625W        W36094   8.895   4.779   3.914  0.1458 -0.1973 -0.0102
20626W        W36095  15.640  14.364   2.376  0.0091  0.1340  0.3424
20627W        W36096  13.424   5.902   3.322  0.1832  0.2507 -0.0315
20628W        W36097  18.121  14.337   1.427  0.3173 -0.1082  0.1169
20629W        W36098  14.399   1.790   4.202  0.1114 -0.0520  0.0747
20630W        W36099   8.012  14.485  15.131  0.0313 -0.2548  0.0991
20631W        W36100  11.538  18.475   5.269 -0.4485  0.3256  0.0604
20632W        W36101  15.962   0.948   1.174 -0.0388 -0.0071 -0.1611
20633W        W36102   5.475  13.253   9.929 -0.2177  0.2643  0.1914
20634W        W36103   9.551   9.906   0.308  0.1826  0.1437 -0.1297
20635W        W36104   2.242  10.597   2.654  0.0735 -0.1685 -0.2369
20636W        W36105  10.881  14.402  12.599  0.0529  0.4337  0.0697
20637W        W36106  12.239   4.562   9.248 -0.1631 -0.1325  0.0297
20638W        W36107   2.308  12.122   5.119  0.0400  0.1093 -0.0661
20639W        W36108   4.760  15.504   4.821  0.0684 -0.2582 -0.0100
20640W        W36109   2.302  14.471   4.373  0.0107 -0.0070  0.1808
20641W        W36110   7.518  15.924   0.766 -0.1481  0.1706  0.0692
20642W        W36111   2.969  15.451  10.631 -0.1015  0.0018  0.3516
20643W        W36112  16.192  18.412  11.706 -0.2824 -0.2101 -0.0094
20644W        W36113   3.191   7.831   2.351  0.0959  0.0251 -0.1030
20645W        W36114  14.366   2.467  11.568 -0.1341  0.0905  0.1813
20646W        W36115  11.456  10.973  13.484  0.1756 -0.0810 -0.0454
20647W        W36116   8.299  11.990   3.057  0.0614 -0.6058  0.1240
20648W        W36117  16.224   6.108  11.110 -0.0736 -0.3372 -0.0365
20649W        W36118  12.950   9.107   3.681  0.0645  0.1036 -0.1819
20650W        W36119   5.114   2.908  15.655 -0.0642 -0.0342  0.1221
20651W        W36120  18.197  13.592  10.240  0.1653 -0.2735  0.1767
20652W        W36121   2.103  12.816  10.885  0.2232 -0.3444 -0.0474
20653W        W36122   6.669  17.795  15.683  0.2421  0.0021  0.1906
20654W        W36123   5.097  11.498  12.950 -0.0819  0.0602  0.1865
20655W        W36124  13.292  10.682   2.880  0.0257 -0.2912  0.1252
20656W        W36125  10.657  12.000   1.143 -0.1744 -0.0433 -0.2577
20657W        W36126   9.060  10.791  11.989  0.1959 -0.0010  0.0571
20658W        W36127  13.538  16.516   2.786 -0.3471 -0.1915  0.0348
20659W        W36128   3.109   6.394   1.779  0.0286  0.1665 -0.0030
20660W        W36129  15.253   7.842  10.897 -0.2848  0.1601  0.0353
20661W        W36130   4.392  10.503  10.533  0.0686  0.3801 -0.0812
20662W        W36131   7.375   8.036   0.147  0.0188 -0.1551 -0.1180
20663W        W36132   0.443   3.365  13.522  0.3051  0.2040 -0.0664
20664W        W36133   0.440  17.018   1.771 -0.1171  0.0035  0.2026
20665W        W36134   2.662   0.960  10.853 -0.2816  0.2616  0.1221
20666W        W36135   9.337  16.744   0.249 -0.0916  0.0191  0.0996
20667W        W36136  12.570   0.274  15.066 -0.1627 -0.0725  0.0644
20668W        W36137  17.552   0.979  13.150  0.1155 -0.1530 -0.0441
20669W        W36138  16.950  17.979  12.439  0.2562  0.1562 -0.0613
20670W        W36139  16.637  11.311   4.276  0.1777  0.4117  0.2013
20671W        W36140  16.900   2.435   0.983 -0.0393  0.4186 -0.2405
20672W        W36141   5.529   9.084   3.673 -0.1917 -0.0593 -0.0032
20673W        W36142   6.611   0.937   1.815 -0.3717 -0.0585 -0.0967
20674W        W36143   4.154   6.854   0.048  0.0985 -0.1204  0.1257
20675W        W36144   6.294   2.982  10.482  0.1511 -0.2752  0.0452
20676W        W36145  12.886  14.910  14.330 -0.0025  0.0742  0.2003
20677W        W36146   8.389  16.821  12.042  0.1929 -0.1834  0.0442
20678W        W36147   9.148   3.257   1.464  0.0029 -0.0500  0.0177
20679W        W36148   1.135   8.799   4.841  0.0944  0.0844  0.2905
20680W        W36149   5.254   7.563   2.567  0.1816  0.3633 -0.0033
20681W        W36150   4.707  17.698  13.940  0.1508  0.1425  0.0193
20682W        W36151  16.874   6.124   3.140 -0.1161  0.3232  0.0092
20683W        W36152   9.998   4.297  11.741 -0.0897  0.0719  0.0754
20684W        W36153  14.795   9.827   1.955  0.1475  0.3186  0.1027
20685W        W36154  16.722   4.935   2.923 -0.2692 -0.2369 -0.2857
20686W        W36155   7.368  17.836  14.451 -0.1046  0.1324 -0.0687
20687W        W36156  16.273  14.798   1.163 -0.0899  0.1252 -0.3437
20688W        W36157  14.264   7.421  12.360  0.0827  0.0942 -0.0935
20689W        W36158  16.037   3.280  12.516  0.1331  0.0678  0.0389
20690W        W36159   1.928   6.277   3.561  0.2163 -0.0433 -0.2566
20691W        W36160   6.494   4.850  13.270 -0.2162  0.0583  0.0819
20692W        W36161  18.181   9.630   9.765  0.0905  0.0954 -0.1137
20693W        W36162   1.443  13.075  12.420 -0.2216 -0.0367 -0.0221
20694W        W36163  17.576   7.832  11.652 -0.2145  0.0630  0.0439
20695W        W36164  10.645  16.283  13.390  0.0648  0.2372 -0.0512
20696W        W36165   3.054   1.747  10.988  0.2517 -0.0155 -0.0864
20697W        W36166  12.693  17.470   1.098 -0.1188 -0.1090 -0.0218
20698W        W36167   2.685   7.249   1.531  0.2334  0.3330  0.0560
20699W        W36168   7.479   0.576  11.007 -0.1183  0.1769  0.0678
20700W        W36169   3.573   5.728   3.811  0.0104  0.1226 -0.0018
20701W        W36170   2.305  17.845  15.229  0.4105 -0.1727  0.0881
20702W        W36171  16.723   8.113  14.675  0.0677  0.0540  0.1218
20703W        W36172   5.095   1.229  12.768  0.0773  0.0974 -0.0117
20704W        W36173   2.560   9.867   3.800  0.0029 -0.1811  0.1914
20705W        W36174   4.318   9.805   2.814  0.1163 -0.2442  0.0409
20706W        W36175   0.311  13.128   5.145 -0.4186  0.1982 -0.2637
20707W        W36176  12.124  12.061   5.008  0.1976  0.2180 -0.1800
20708W        W36177  11.747   2.635  15.458 -0.2271 -0.1679  0.0880
20709W        W36178   5.894  16.646   4.784  0.1960  0.1969 -0.0619
20710W        W36179   5.715   6.689  15.710  0.0271 -0.0805  0.2097
20711W        W36180  15.698   8.715   2.725 -0.1701 -0.2134 -0.1860
20712W        W36181   2.977   9.926   2.389 -0.1534  0.2350 -0.4226
20713W        W36182   7.687   3.353   4.641  0.1039  0.3754  0.2051
20714W        W36183   3.633   7.360   4.783  0.0640 -0.0091  0.0398
20715W        W36184   9.954   9.026  11.219 -0.1084  0.3866  0.1308
20716W        W36185  16.126   2.556   3.194  0.3115 -0.0664  0.0657
20717W        W36186   7.019  12.523  10.978 -0.0467  0.1102  0.0829
20718W        W36187   4.387  17.388  10.801 -0.0762  0.2409  0.0204
20719W        W36188   4.973  13.253  14.285  0.1258  0.2405 -0.1318
20720W        W36189  11.956   7.453   3.813 -0.2489  0.0461 -0.1921
20721W        W36190   8.278   2.835   3.633  0.1754  0.5084  0.0592
20722W        W36191  16.812  17.041   3.016  0.2514  0.0204  0.3872
20723W        W36192   8.538   0.699  10.070  0.0865  0.3138 -0.0459
20724W        W36193   7.760   8.956   3.983  0.1586 -0.0021  0.1128
20725W        W36194   9.551   7.880  10.635 -0.0578  0.2028  0.0616
20726W        W36195  14.349   8.322  13.977 -0.4670 -0.1875 -0.0188
20727W        W36196   7.876  17.275  12.938 -0.2030  0.0802 -0.0994
20728W        W36197  13.280   2.210   3.951 -0.0508 -0.1916 -0.2022
20729W        W36198   4.534  15.269   4.350  0.0420 -0.0743  0.1140
20730W        W36199  13.230  16.699  12.657 -0.0588  0.0007  0.1973
20731W        W36200  11.239  13.825   5.064 -0.1367 -0.0351 -0.1598
20732W        W36201   9.055   3.225  14.723 -0.2595 -0.1599  0.3987
20733W        W36202   3.660   9.218  14.132 -0.1390 -0.0609 -0.3765
20734W        W36203   4.120   7.371   1.804 -0.1019 -0.1719  0.2036
20735W        W36204  10.188  17.838  14.763 -0.3010 -0.1291  0.1406
20736W        W36205   8.407  10.697   3.211 -0.0897 -0.3388  0.1919
20737W        W36206   9.776  15.420   0.444  0.0923  0.0447  0.3529
20738W        W36207  12.664  16.667   0.675 -0.1890 -0.0771  0.1852
20739W        W36208   0.186   0.199  10.947 -0.1377 -0.1261  0.1602
20740W        W36209  11.727  11.260  14.581  0.0830 -0.0350  0.0195
20741W        W36210  15.858   3.426   0.361 -0.0903  0.0965  0.1886
20742W        W36211  10.747  12.495   1.777  0.0916  0.0060 -0.1132
20743W        W36212   6.008   6.912   4.130  0.0184  0.0278 -0.1468
20744W        W36213  14.694  17.895  14.434 -0.1464  0.1632  0.0552
20745W        W36214  12.097   8.744  13.680  0.2506  0.0212  0.0900
20746W        W36215   1.003  11.466  14.729 -0.2019  0.1027 -0.1305
20747W        W36216   7.927   9.375   1.796  0.1625 -0.0930  0.0599
20748W        W36217   6.573  10.234  11.152 -0.1228  0.1003 -0.0490
20749W        W36218   9.027   3.301  14.178 -0.3200 -0.1046 -0.0497
20750W        W36219  16.419   2.301  15.501  0.0475 -0.2594 -0.0651
20751W        W36220   0.621   1.461  13.581 -0.2341 -0.0191 -0.1706
20752W        W36221   3.083  15.023   3.287 -0.3848  0.4791 -0.0162
20753W        W36222   7.835  14.367   5.694 -0.1855 -0.0404 -0.2085
20754W        W36223  13.874   3.657  15.858  0.1114 -0.1350  0.0819
20755W        W36224   7.610   7.168   4.505  0.1607 -0.0798 -0.4827
20756W        W36225  17.549  17.381   2.051  0.1782 -0.0005  0.0890
20757W        W36226   2.468  15.248   4.944 -0.0757 -0.1432 -0.0763
20758W        W36227   8.873  16.215  15.394 -0.2217  0.0868  0.1752
20759W        W36228   5.662  14.358   5.798  0.1027 -0.1075  0.2051
20760W        W36229  11.831   9.542   0.084 -0.1578  0.0666  0.1497
20761W        W36230   7.962  18.312  11.855  0.0885 -0.3535 -0.0560
20762W        W36231  13.096  14.538  14.624 -0.0245  0.0520 -0.0304
20763W        W36232   6.107  18.420  15.654  0.2399  0.2699 -0.1082
20764W        W36233   5.033  11.938   5.392 -0.3706  0.0034  0.0740
20765W        W36234   4.341   7.605  14.061  0.2002  0.1022  0.1234
20766W        W36235   4.240  17.563   0.140 -0.2669  0.1031 -0.1129
20767W        W36236  10.438  14.113   5.234  0.2104 -0.0115 -0.2151
20768W        W36237   8.321   9.946  14.995 -0.2181 -0.1889 -0.1049
20769W        W36238  11.495  17.819   5.862  0.0456  0.1291  0.3375
20770W        W36239   5.474   0.571  12.004  0.1824  0.0484  0.1541
20771W        W36240   6.434  16.699  13.214  0.0920 -0.0113  0.0820
20772W        W36241  10.010  13.384  12.359 -0.3939  0.2565 -0.1461
20773W        W36242   9.985   8.302   3.587 -0.1284 -0.4243 -0.0893
20774W        W36243   8.872   0.847  12.102  0.2920 -0.0214 -0.1543
20775W        W36244   5.632   8.068   0.087 -0.2141 -0.2081  0.2087
20776W        W36245   1.625   0.132  13.323  0.0358  0.0842  0.0064
20777W        W36246   4.820   9.475  12.172  0.0757  0.0350  0.0944
20778W        W36247   8.386  15.268   1.753 -0.2596 -0.0676  0.2096
20779W        W36248   2.990  17.311  11.660  0.0167  0.2427  0.0863
20780W        W36249   5.449   2.250   2.254 -0.0682  0.1277 -0.1890
20781W        W36250  12.841  13.634  14.125  0.0510  0.0317 -0.0294
20782W        W36251   5.913  10.637   3.714 -0.2200  0.0215  0.1536
20783W        W36252  14.526  15.717  13.471  0.0336 -0.3035 -0.1431
20784W        W36253   2.685  16.436  15.557 -0.2312  0.0889 -0.1980
20785W        W36254  18.215   6.589   4.518  0.1187 -0.0017 -0.2041
20786W        W36255  10.816  11.295  13.790 -0.0467 -0.0910  0.0923
20787W        W36256  12.057  10.385   5.472 -0.1871  0.0719  0.0928
20788W        W36257  16.397  16.791   0.412 -0.1528  0.3822 -0.0196
20789W        W36258  12.100   3.904   4.142 -0.0809  0.0475 -0.0264
20790W        W36259   7.657   5.158  13.947 -0.0800  0.1400  0.0335
20791W        W36260  12.399   7.691  13.629 -0.0079  0.0958 -0.4221
20792W        W36261   7.620  16.947   4.718  0.4528 -0.1178  0.4666
20793W        W36262   0.055  16.536   1.918 -0.0468  0.0977  0.1810
20794W        W36263   5.650   6.125   1.676 -0.3147  0.2719  0.2375
20795W        W36264   4.733   5.299  15.036  0.1943 -0.0837  0.0605
20796W        W36265   7.620  17.552   4.266  0.0229 -0.3020  0.4061
20797W        W36266  13.965  12.272  11.097  0.1307 -0.2649  0.0840
20798W        W36267   3.400  18.116   1.816  0.0387  0.2644  0.1381
20799W        W36268  18.206  14.681   3.902 -0.0755 -0.0128  0.0275
20800W        W36269   1.057   3.280   0.993  0.2512  0.1187  0.1781
20801W        W36270   0.073  16.517   3.780  0.2585 -0.1083  0.2236
20802W        W36271  16.751  15.876  11.627  0.1751  0.2396 -0.0383
20803W        W36272  15.593   7.844  12.738  0.0210 -0.0612 -0.0458
20804W        W36273  18.046   3.196   3.272  0.1803 -0.1575  0.1186
20805W        W36274   5.819  15.828  13.395 -0.1012  0.0767 -0.3310
20806W        W36275   0.369  15.968   1.257 -0.3059 -0.3307  0.2374
20807W        W36276  10.439  11.768  13.736  0.0348  0.1720  0.0074
20808W        W36277   8.160  13.749  11.219  0.2648  0.0653 -0.3872
20809W        W36278   6.492  11.786   5.012  0.0893 -0.0403 -0.2496
20810W        W36279  18.028  15.934   3.086 -0.1522  0.0517 -0.0731
20811W        W36280   4.702   9.794  11.161  0.1163 -0.3059 -0.0833
20812W        W36281  10.097   1.975  13.747 -0.1616  0.0563  0.3357
20813W        W36282  11.984  14.352  11.978 -0.0953 -0.0103 -0.1525
20814W        W36283  10.810   4.421   5.369 -0.0386  0.0674 -0.0216
20815W        W36284  12.935   8.640   2.431  0.0504  0.1763 -0.2851
20816W        W36285   3.383  14.993  11.227 -0.0498 -0.1216  0.1454
20817W        W36286   5.450  15.659  14.728  0.3099  0.4857 -0.1075
20818W        W36287   6.134  10.504   3.222 -0.1439  0.2828 -0.1198
20819W        W36288   6.718  12.376  11.986 -0.1940  0.0229 -0.2767
20820W        W36289   7.161   1.869   3.858 -0.2283 -0.0360  0.1664
20821W        W36290  15.660   0.061   2.928 -0.1070 -0.0220 -0.0472
20822W        W36291  12.498   0.343  12.121  0.1465 -0.0625 -0.1162
20823W        W36292   8.661   0.199   0.808 -0.1610  0.0929  0.0630
20824W        W36293   5.630   8.520   1.671  0.1171  0.1485  0.1140
20825W        W36294   7.027  15.411   2.892  0.0113  0.0667 -0.0718
20826W        W36295   8.164  14.049   1.700  0.0181 -0.1779 -0.2200
20827W        W36296  15.492   7.581  14.302 -0.2677  0.1142  0.0006
20828W        W36297   5.825   7.741   3.847  0.0447  0.0291  0.2726
20829W        W36298  16.799  14.062   9.849  0.0423 -0.1588  0.1130
20830W        W36299   4.368   5.454  11.701  0.2888  0.1149 -0.0853
20831W        W36300   0.282   9.460  14.061  0.0260  0.2513 -0.0460
20832W        W36301  17.979   2.282  11.847  0.0489 -0.1525 -0.1141
20833W        W36302   0.682   4.997   1.202  0.1348 -0.0535 -0.0612
20834W        W36303  16.950   7.319  10.255  0.0489 -0.3250 -0.1095
20835W        W36304  11.319  12.592  13.252  0.1679  0.3786 -0.2280
20836W        W36305  16.309   9.049   0.527  0.1462 -0.0921 -0.2849
20837W        W36306   3.391   0.904  12.359 -0.1702 -0.2481 -0.0927
20838W        W36307  13.265   2.542   1.502 -0.1722  0.1317  0.1587
20839W        W36308   0.684   9.186   9.630 -0.0030  0.3245 -0.0857
20840W        W36309   4.151  15.572  11.261  0.0579 -0.1302  0.1203
20841W        W36310   9.231  11.832  14.864  0.2042  0.1395  0.0905
20842W        W36311   8.650   2.090   3.855 -0.0525 -0.1106  0.0411
20843W        W36312  17.310   2.243   0.640 -0.3045 -0.1602  0.0270
20844W        W36313  18.148   7.510   0.034  0.0111 -0.5106  0.1740
20845W        W36314   4.277   4.332  11.185 -0.4565 -0.0165  0.2747
20846W        W36315  11.104  12.199   2.569 -0.2290 -0.1491 -0.0572
20847W        W36316   4.735  10.699   5.813 -0.1588 -0.1051 -0.0441
20848W        W36317   9.606  14.176  11.075 -0.2003  0.3817  0.2402
20849W        W36318   8.695  12.159   4.336  0.2203  0.1046  0.2167
20850W        W36319  11.077  16.413  13.214  0.0615 -0.0988  0.1154
20851W        W36320  17.989   6.152  10.922  0.0075  0.0949  0.1449
20852W        W36321   8.465  12.843   4.885  0.0579  0.0577 -0.3001
20853W        W36322   9.684   4.794   2.389  0.0229  0.0453  0.0970
20854W        W36323   8.600   4.033  11.370 -0.0261  0.4890  0.3503
20855W        W36324  15.024   4.543   3.914  0.0660 -0.0381  0.4078
20856W        W36325  11.551   8.824  12.188 -0.1521 -0.2794  0.0745
20857W        W36326  15.558  18.287   3.991  0.1106 -0.0778 -0.1754
20858W        W36327  12.887   3.494   0.171 -0.0452 -0.1595  0.0249
20859W        W36328  12.266   8.513   1.692  0.0201 -0.1697 -0.3225
20860W        W36329  13.591   4.981  13.790 -0.0214  0.2038 -0.0352
20861W        W36330  10.860   8.327   2.763 -0.1648  0.1282  0.0861
20862W        W36331  17.179   6.601   4.748 -0.4860 -0.2228  0.1343
20863W        W36332  15.763  14.830   4.396  0.2615  0.1439 -0.0599
20864W        W36333  14.859   8.401   2.017 -0.2699  0.0838  0.1846
20865W        W36334   0.198   1.610  15.427 -0.1372 -0.1102 -0.3383
20866W        W36335  13.216  17.764   5.421  0.1249  0.0716  0.1828
20867W        W36336   7.018   7.316  12.806  0.4316 -0.0605 -0.2109
20868W        W36337   2.500  14.292   2.080  0.3290  0.0922 -0.3347
20869W        W36338  18.196  16.213   2.685  0.1996  0.0910  0.0471
20870W        W36339   0.351   8.429   3.961  0.0902  0.0300  0.2011
20871W        W36340   1.655   8.730  12.676 -0.1783 -0.1073 -0.0724
20872W        W36341   1.525  11.716  13.959  0.2298 -0.4134 -0.0741
20873W        W36342   7.786   7.744   0.874 -0.0457 -0.0646 -0.1608
20874W        W36343   3.542   0.409   4.337  0.0243 -0.0808  0.3540
20875W        W36344   0.935  16.028   4.328 -0.4234  0.0769  0.0193
20876W        W36345  13.035  16.824   0.237 -0.0018 -0.3021 -0.1041
20877W        W36346   6.498   0.631  13.894  0.2035  0.0622  0.0045
20878W        W36347   3.519   6.719  12.850  0.1293 -0.1647  0.1377
20879W        W36348   4.311   7.301  15.030  0.3018 -0.0349  0.0514
20880W        W36349   4.040  12.735  12.187  0.0279 -0.0131 -0.0914
20881W        W36350  17.609  13.927   4.449  0.0447  0.1143 -0.0186
20882W        W36351   8.398   4.580  11.795 -0.1665  0.1763 -0.0093
20883W        W36352   4.946  12.716   4.716 -0.0541 -0.0049 -0.1633
20884W        W36353  10.576   4.270  12.455  0.2479  0.0829  0.1984
20885W        W36354   6.958  13.953  14.964  0.0430 -0.1183  0.3144
20886W        W36355  16.786  11.105  13.737  0.1843  0.1431 -0.0879
20887W        W36356   0.967  13.980  12.087  0.0053 -0.0271  0.1339
20888W        W36357   7.029   4.422   5.496  0.0101  0.3549 -0.0751
20889W        W36358   9.133  16.671   2.486  0.0489 -0.2113 -0.1827
20890W        W36359   6.165   9.444  15.664 -0.0007  0.0428 -0.1793
20891W        W36360  18.252  10.858   3.689  0.1669  0.1328  0.3828
20892W        W36361  15.596   5.713   3.789  0.0068  0.1707 -0.0495
20893W        W36362  14.297   7.860   2.790  0.1353 -0.1603 -0.2165
20894W        W36363   4.998   8.956  12.410 -0.1167  0.0401 -0.1660
20895W        W36364   4.836   9.068  15.643  0.0407  0.1279  0.0381
20896W        W36365   3.762   4.787  12.592 -0.1862  0.2470 -0.1039
20897W        W36366  13.949  11.655   0.956  0.2296 -0.1628 -0.0625
20898W        W36367   7.590   1.354  15.155  0.1504  0.3218  0.1245
20899W        W36368  11.086   0.229   5.907 -0.0311 -0.1265 -0.0555
20900W        W36369   1.045   3.116  10.439  0.0274  0.2737 -0.2799
20901W        W36370   4.056   9.455   0.685 -0.0477  0.2584 -0.3710
20902W        W36371   7.882   7.685  14.451 -0.1112 -0.3858  0.0776
20903W        W36372   4.752   1.768   5.831  0.2577 -0.0891 -0.0165
20904W        W36373  11.250   4.111  12.760 -0.0772  0.1317  0.2181
20905W        W36374  14.402  18.155   2.458 -0.0091  0.1697  0.1260
20906W        W36375  16.970   4.512   1.640 -0.1132  0.0695 -0.0454
20907W        W36376  17.539  11.670   1.881 -0.2056  0.3891 -0.0128
20908W        W36377  17.970   7.356   1.650  0.1056 -0.1368  0.3789
20909W        W36378   6.638   5.851  13.054  0.0080 -0.1853  0.3695
20910W        W36379  16.308  15.864   0.843 -0.2067 -0.3354 -0.1988
20911W        W36380   6.385  13.921   1.937  0.1798 -0.1041  0.0339
20912W        W36381  10.879  14.956  12.506 -0.1121  0.0588 -0.0387
20913W        W36382   0.284   5.913   2.393 -0.1373  0.3921 -0.1321
20914W        W36383   5.971  16.209   2.427 -0.1307  0.1559  0.3026
20915W        W36384   3.326   1.975   1.046  0.0718 -0.1320  0.0488
20916W        W36385   6.473   8.586  14.639 -0.0582 -0.0420  0.0848
20917W        W36386   0.405   3.715   5.408  0.1400  0.1995 -0.0132
20918W        W36387   7.294  12.235  11.295  0.1929  0.4974 -0.1364
20919W        W36388  13.831   0.776  13.644 -0.1027  0.3883 -0.0849
20920W        W36389  14.312   8.538   4.516  0.4397  0.0771 -0.0065
20921W        W36390  17.917  12.337   2.386  0.1609  0.0879 -0.0786
20922W        W36391  16.447   4.313   5.160 -0.0872  0.2100 -0.1274
20923W        W36392   9.457  11.489   3.278  0.1898  0.0663 -0.0620
20924W        W36393  12.056  17.486  14.539 -0.1184 -0.4441  0.0825
20925W        W36394   8.899  11.926  13.493 -0.1823 -0.1701  0.0927
20926W        W36395   7.658  11.704  15.749 -0.1888  0.0947 -0.0428
20927W        W36396   3.474  15.403   2.599 -0.1048  0.1695  0.1281
20928W        W36397  13.804   6.041   4.548 -0.0537  0.3353 -0.1310
20929W        W36398  16.036   1.133  14.975 -0.0379 -0.0407  0.2655
20930W        W36399  12.163  12.406  13.788  0.3544 -0.2469  0.0422
20931W        W36400   7.747   6.012   4.284 -0.3584 -0.0347  0.2824
20932W        W36401   9.741   4.903   0.229  0.4032 -0.2094 -0.1009
20933W        W36402   4.432   9.161  12.069 -0.0244 -0.0187  0.1247
20934W        W36403   9.673   7.146   3.348 -0.0155 -0.0461 -0.1831
20935W        W36404  11.933   9.553  13.221  0.2057 -0.1732  0.2581
20936W        W36405   3.065  13.167  15.300  0.0502  0.0318  0.0480
20937W        W36406  11.308  10.445   5.916 -0.0386  0.1162 -0.2662
20938W        W36407   3.494  11.781   0.553  0.2793  0.0953 -0.1610
20939W        W36408   1.132   5.260   4.000  0.0458 -0.2129  0.0092
20940W        W36409  15.617   3.720   2.007 -0.2415  0.1282 -0.0291
20941W        W36410  10.242  15.205   2.076  0.2008 -0.0303  0.1584
20942W        W36411  12.782   6.946   2.030  0.1399  0.2630 -0.1619
20943W        W36412   0.720   9.760  10.729  0.0039 -0.3964  0.2459
20944W        W36413   6.117   4.950  13.668 -0.0145 -0.1467 -0.0767
20945W        W36414   8.642  16.191   3.337 -0.0767 -0.3375  0.2089
20946W        W36415  12.714   6.486  12.255  0.1196 -0.1284 -0.0588
20947W        W36416   0.652   6.382  11.972 -0.1121 -0.0187 -0.0797
20948W        W36417   6.110  12.094   5.965  0.0173 -0.1096 -0.2478
20949W        W36418  15.448   7.150   1.436 -0.1349 -0.0837 -0.0219
20950W        W36419   4.805  15.829  13.268 -0.1498  0.0561  0.1459
20951W        W36420   0.474  16.384   1.553  0.0929 -0.1145  0.0725
20952W        W36421  13.903   1.047   0.643  0.0355 -0.0824 -0.2276
20953W        W36422  12.007   7.481  13.325  0.0180 -0.0243  0.0678
20954W        W36423  17.212   6.627  14.773  0.3625 -0.2069  0.1113
20955W        W36424   0.576   9.425   5.841 -0.1208  0.2036  0.1072
20956W        W36425   4.146  13.280   3.841 -0.2260  0.1434 -0.0198
20957W        W36426  18.282  10.919   4.147 -0.4092 -0.1682 -0.0571
20958W        W36427   3.899   4.013  13.697  0.1581 -0.1347  0.0899
20959W        W36428  12.545   7.372  10.798 -0.0299 -0.1915 -0.0147
20960W        W36429   6.912   0.426  14.080 -0.1531 -0.1349  0.6538
20961W        W36430  11.742  17.759   5.251  0.2098  0.0848 -0.3273
20962W        W36431   7.478   5.302  14.464  0.2211 -0.0076  0.0692
20963W        W36432  13.617  10.011  15.448 -0.1776 -0.2812 -0.3408
20964W        W36433   7.658   3.353  12.101 -0.1264 -0.2543 -0.1023
20965W        W36434  10.907   7.427   0.244 -0.0667 -0.0388 -0.1354
20966W        W36435   8.640  11.668  11.080 -0.0133 -0.1885  0.2080
20967W        W36436   2.458   3.021  14.688  0.1480 -0.4709  0.1889
20968W        W36437   5.480  16.195  11.908 -0.0352  0.1622 -0.1141
20969W        W36438  15.675  12.087   1.764  0.0305 -0.0547 -0.1747
20970W        W36439  11.015  18.257  12.947  0.0613  0.0843  0.1700
20971W        W36440  16.300  17.934   1.422  0.2410 -0.2555 -0.0171
20972W        W36441  14.868   8.503   0.179 -0.2888  0.1680 -0.2325
20973W        W36442   1.994   9.710   2.320  0.1348  0.1004  0.1965
20974W        W36443   5.770  15.369  15.184 -0.2714  0.0583  0.0716
20975W        W36444  15.844  18.355  11.358  0.1253 -0.0968  0.0773
20976W        W36445   7.122   7.191   4.851 -0.0030  0.1006  0.1159
20977W        W36446   4.609   2.642   5.626 -0.4022  0.1412 -0.2131
20978W        W36447  15.035   3.726   3.731  0.1164  0.1217 -0.3352
20979W        W36448   5.298   1.096   9.998 -0.0253 -0.2662  0.1009
20980W        W36449  17.712   1.175  10.077  0.2496  0.2573 -0.1384
20981W        W36450   3.779   5.540   2.646  0.2360  0.0516  0.0830
20982W        W36451   9.551   8.198   0.319 -0.0501  0.1271  0.0140
20983W        W36452  16.013   2.917  14.932  0.1493  0.2029  0.3745
20984W        W36453   8.844   0.801   3.084 -0.2266  0.0953 -0.0486
20985W        W36454   4.690  11.916   4.992  0.3142  0.1603 -0.2121
20986W        W36455  13.397  18.038   3.590 -0.1391  0.2193  0.3468
20987W        W36456  13.307   7.731   2.365  0.1440 -0.0038  0.2888
20988W        W36457   6.098  12.150   0.822  0.2376 -0.0585 -0.3012
20989W        W36458   4.069   2.010  12.933 -0.0733  0.0697 -0.2837
20990W        W36459  12.862  12.380  15.913 -0.0141 -0.1765  0.0980
20991W        W36460   9.164   6.841  14.102  0.1385  0.0863  0.3833
20992W        W36461  17.250  15.237  14.371  0.0474  0.1508 -0.1680
20993W        W36462  10.207   9.106   5.794 -0.0896  0.2580 -0.3456
20994W        W36463  11.285   4.025  14.909 -0.0860  0.0693 -0.0398
20995W        W36464  10.277   8.304  15.050 -0.0318 -0.0450 -0.0772
20996W        W36465  13.878   4.367   2.741 -0.0209  0.0151 -0.1209
20997W        W36466   6.086  14.150   4.275  0.1442 -0.0859 -0.0537
20998W        W36467  15.618  14.458   1.850  0.0188 -0.2854 -0.1716
20999W        W36468  17.344   2.232   2.788 -0.1119 -0.1308 -0.0558
21000W        W36469  17.812   4.436  12.932  0.1214 -0.0234  0.0017
21001W        W36470  13.228  10.392  14.900  0.0633  0.0019  0.1543
21002W        W36471   1.327  17.374   3.924  0.1354 -0.1374 -0.0323
21003W        W36472   9.410   9.126   3.251 -0.2257  0.2399  0.0153
21004W        W36473   2.399   1.803   0.261 -0.0270 -0.2086 -0.0675
21005W        W36474  17.963   6.282  14.811 -0.2608  0.2420 -0.0832
21006W        W36475   7.116   8.257  13.967 -0.0018 -0.1049 -0.1988
21007W        W36476   0.333  15.007   5.150 -0.0588 -0.1383 -0.2794
21008W        W36477  17.978   3.874  15.399  0.3540 -0.1266  0.1908
21009W        W36478  17.585   0.174   3.298  0.0859  0.0779  0.1437
21010W        W36479  17.734  10.275  15.421 -0.2674 -0.1594 -0.0192
21011W        W36480  11.808   9.663   1.744 -0.0953 -0.3361 -0.0685
21012W        W36481  13.937   4.218   1.332 -0.3842  0.3431  0.3160
21013W        W36482   2.182   0.078   3.331 -0.1540 -0.0077  0.3417
21014W        W36483  11.138   1.776  11.778  0.2836  0.1048  0.4502
21015W        W36484   9.490  10.035  13.844 -0.2413 -0.0402 -0.0297
21016W        W36485   1.512  16.719  13.272  0.0043 -0.1985  0.2110
21017W        W36486   6.610  14.047  10.518 -0.1950 -0.2309 -0.1893
21018W        W36487  11.611  14.203   1.460  0.0073 -0.1774  0.0394
21019W        W36488   5.232  14.951  13.786 -0.0217  0.2259  0.0673
21020W        W36489   6.621  17.825  11.466 -0.0403 -0.0491  0.0685
21021W        W36490   2.043   9.045   0.231  0.2588  0.4131 -0.1712
21022W        W36491   4.384   7.145  15.613 -0.1035 -0.1657 -0.1586
21023W        W36492  11.775   2.863  12.524  0.0829 -0.1783  0.0565
21024W        W36493   8.148  15.004   3.448  0.0869  0.0708 -0.3340
21025W        W36494   3.799  10.878  12.422 -0.1399 -0.1202  0.1896
21026W        W36495  15.065   3.234  12.548  0.3528 -0.0890 -0.1261
21027W        W36496   3.305  11.653  14.276  0.0549  0.1032 -0.2406
21028W        W36497   1.823  14.982  13.795  0.0380  0.1513 -0.0986
21029W        W36498  17.086   7.153  14.651 -0.0896  0.3132 -0.0339
21030W        W36499  12.903  10.868  15.611 -0.0071 -0.0311 -0.1130
21031W        W36500   3.280   5.167   3.848 -0.1877  0.1210  0.4014
21032W        W36501  12.748   2.874   0.674  0.2749 -0.2461  0.1057
21033W        W36502  17.525   0.387  14.735  0.1620 -0.1325  0.0977
21034W        W36503  10.278  10.692   3.110  0.1938 -0.0598  0.0198
21035W        W36504   9.727  17.964   4.547  0.2333 -0.0034 -0.0134
21036W        W36505   7.267  15.553   5.966  0.0921 -0.0926 -0.0549
21037W        W36506   7.547  10.418   0.231  0.0320  0.0064  0.0443
21038W        W36507   3.261   5.149   5.500  0.4139 -0.1296 -0.1131
21039W        W36508  10.864  12.646   2.597 -0.1740  0.0648 -0.0820
21040W        W36509   1.581   5.706   4.440  0.0190  0.0820 -0.0388
21041W        W36510   0.455  17.078  14.872  0.3911 -0.1719 -0.1277
21042W        W36511   4.721   5.904  14.294 -0.1125  0.2662  0.1383
21043W        W36512  14.589  10.567  15.347 -0.2676 -0.3240  0.0779
21044W        W36513   4.478  17.900  10.830 -0.0150  0.0182  0.0391
21045W        W36514  15.991   8.073  10.614 -0.0600 -0.1548 -0.3702
21046W        W36515   1.946  17.050  10.873  0.1015 -0.3209  0.2018
21047W        W36516  11.244   1.386   0.203  0.2965 -0.0022  0.0428
21048W        W36517  11.013   2.180  14.793 -0.2376 -0.1320  0.0582
21049W        W36518   7.464  14.559   4.449 -0.0408 -0.0838  0.3437
21050W        W36519   6.781   2.821  11.158 -0.0896 -0.0812 -0.1376
21051W        W36520  17.803  11.579  13.152 -0.0886  0.2169 -0.1565
21052W        W36521   3.839   7.797   4.730  0.2357  0.0442 -0.2160
21053W        W36522   0.189  16.561  13.493 -0.0935  0.0933 -0.3626
21054W        W36523  10.625   9.341   2.989 -0.1821  0.1905  0.2544
21055W        W36524  13.059   9.724  14.138 -0.0428  0.0316 -0.1615
21056W        W36525   0.893   7.769   3.590  0.2728  0.1978  0.1305
21057W        W36526  15.821  15.575   3.691  0.0477  0.0519  0.2753
21058W        W36527  15.564  15.899  13.685  0.1665 -0.0569  0.1494
21059W        W36528  10.979   3.366   3.431  0.0062  0.1286  0.1227
21060W        W36529  11.563  17.554  11.981  0.1622 -0.1077  0.0185
21061W        W36530  11.929   4.428  11.069  0.0057  0.0388  0.3523
21062W        W36531   9.685   5.592   5.051 -0.1925  0.1027  0.1101
21063W        W36532  11.817  15.420   2.517 -0.0054  0.1510 -0.1160
21064W        W36533   0.154  15.935  10.547 -0.0075  0.0089 -0.1285
21065W        W36534  12.191   9.800  11.782  0.2275  0.0388 -0.0156
21066W        W36535  15.115   8.619   4.543 -0.0867  0.2397  0.0991
21067W        W36536  12.257   0.121   4.806  0.0268 -0.0183  0.1470
21068W        W36537   8.196  12.613   1.675  0.0322 -0.5289  0.2464
21069W        W36538   1.538   8.034   3.245  0.0802  0.1311  0.1675
21070W        W36539  14.958   7.700  14.090 -0.1304 -0.2227 -0.0462
21071W        W36540  17.239  10.881  11.586  0.1406  0.3501 -0.0342
21072W        W36541   8.995  13.447   3.067  0.1018 -0.0698 -0.2430
21073W        W36542   3.677  10.766   4.030  0.1262  0.3347  0.0093
21074W        W36543  16.216  18.139   4.971 -0.1512 -0.1135  0.3567
21075W        W36544  15.641   8.277   2.436  0.1964  0.1376 -0.3000
21076W        W36545   1.796   6.350  14.722  0.2487 -0.0629  0.1299
21077W        W36546   8.038  12.138  13.515 -0.1897 -0.2471 -0.2075
21078W        W36547  17.892  13.265  14.368 -0.3338 -0.1269  0.0403
21079W        W36548  17.431   9.895   0.337  0.1115  0.4685 -0.0603
21080W        W36549   6.718  13.260   3.541  0.1445  0.0664  0.0979
21081W        W36550  11.316   2.949   4.086 -0.0790  0.2734  0.1017
21082W        W36551  15.939  17.637   4.057  0.0499 -0.0831 -0.2292
21083W        W36552   3.969   8.182   3.977 -0.1210  0.0783 -0.0844
21084W        W36553  16.559   0.486  12.844 -0.2711 -0.0448 -0.1533
21085W        W36554   5.185   2.626   0.740  0.0310 -0.0037 -0.2589
21086W        W36555   5.313  15.466   5.267 -0.1095 -0.1742 -0.2337
21087W        W36556   9.278  14.489  11.094  0.1668  0.1844  0.0669
21088W        W36557  10.764   9.870  15.794 -0.2116  0.1187 -0.0775
21089W        W36558   0.766   2.624   3.230 -0.0083 -0.1590 -0.0206
21090W        W36559  14.447  10.281   0.728 -0.0139 -0.1552  0.1564
21091W        W36560  16.188  13.564   3.097 -0.0104  0.0896 -0.2064
21092W        W36561  13.658  11.286   5.053  0.0580 -0.2361 -0.0109
21093W        W36562   1.313  15.301  11.844  0.1093  0.2010 -0.3385
21094W        W36563   9.728   3.881   1.595 -0.1144 -0.1078  0.1405
21095W        W36564   4.912   2.387   1.685  0.1144 -0.1250  0.1322
21096W        W36565   6.232  16.059  14.883  0.2354 -0.3880  0.0581
21097W        W36566  12.091  13.072   1.757 -0.2121  0.1889 -0.2393
21098W        W36567   8.228  11.415   1.446  0.0253  0.2702  0.2193
21099W        W36568   6.801   6.993   1.883  0.2768  0.0136 -0.1190
21100W        W36569  12.873   7.867  10.663 -0.0081  0.1332  0.0684
21101W        W36570   2.747  14.972   5.232  0.1312  0.5176 -0.0136
21102W        W36571   6.508   7.818   1.291 -0.1782 -0.0423  0.2545
21103W        W36572   5.066  17.803   4.823  0.1310  0.0851  0.2019
21104W        W36573   6.104   4.414  15.624  0.0753  0.0616  0.2203
21105W        W36574   0.728  10.564   4.341 -0.1475  0.4917 -0.0900
21106W        W36575  10.742  17.426   0.370 -0.1067  0.2785 -0.2118
21107W        W36576   8.327  12.810   3.939  0.0838  0.0989 -0.0894
21108W        W36577  12.948  13.963  13.290  0.1116 -0.0604  0.1857
21109W        W36578  14.838  14.361  12.319 -0.1909  0.0807  0.0186
21110W        W36579  14.622   6.923  14.294 -0.0327  0.0394  0.3188
21111W        W36580   3.842  17.974   0.244  0.0847 -0.1614 -0.1241
21112W        W36581   6.433  18.037  14.975 -0.0434  0.1213  0.0480
21113W        W36582   8.828  13.113  15.200  0.0561 -0.3973  0.0588
21114W        W36583   8.160  12.278   2.281  0.0683 -0.1106  0.1701
21115W        W36584   6.267  10.146  13.514 -0.0992 -0.2098  0.0469
21116W        W36585   3.702  17.553   0.009 -0.0818  0.0979  0.2982
21117W        W36586  14.846  13.800   4.882 -0.2527 -0.3853  0.0301
21118W        W36587  17.842   6.789   0.876  0.0693 -0.0068 -0.0256
21119W        W36588  10.584   1.666   4.075 -0.1518  0.3630 -0.1498
21120W        W36589  12.218   6.113   2.881 -0.1885  0.0236 -0.1260
21121W        W36590   2.733  12.281   4.942 -0.3065 -0.1929  0.0042
21122W        W36591  16.107  18.107   3.186 -0.1447  0.1812  0.3177
21123W        W36592  16.171  14.011  13.668 -0.0458  0.1398 -0.5167
21124W        W36593   0.723   1.496   0.519 -0.2965  0.2577 -0.3213
21125W        W36594  10.109   0.134   2.664  0.3348  0.2158 -0.2397
21126W        W36595   7.371   8.306   3.938 -0.0737 -0.1673 -0.1160
21127W        W36596   5.260   7.181   0.171  0.0045  0.0803  0.2090
21128W        W36597   0.978  13.313   4.722  0.0099 -0.1749  0.3227
21129W        W36598   5.850   0.657  15.195  0.2533  0.0668  0.0898
21130W        W36599  13.118   6.049  11.429 -0.2277 -0.2391 -0.1283
21131W        W36600   4.157  16.755  13.787  0.0761  0.2015 -0.3261
21132W        W36601  10.906   0.196   2.912  0.2985  0.0152 -0.3090
21133W        W36602  17.869   2.103  11.335  0.2794  0.1596  0.0111
21134W        W36603   8.170  12.037  15.462 -0.0621 -0.1317  0.1445
21135W        W36604  12.652  12.071   0.388 -0.0663  0.3184 -0.0078
21136W        W36605  17.061   2.696  13.904 -0.1418  0.0985 -0.1161
21137W        W36606  16.766  17.535   3.883 -0.0076 -0.1130  0.1375
21138W        W36607   7.545   7.756  10.990 -0.2902 -0.1894  0.3761
21139W        W36608  11.872   4.275   5.653 -0.2412  0.0818  0.0062
21140W        W36609   9.699   3.910  11.645 -0.0103 -0.0903  0.2184
21141W        W36610  17.740   5.765   3.794  0.1372 -0.0190  0.1661
21142W        W36611  17.920   0.341  15.051  0.0146 -0.0564 -0.2290
21143W        W36612  11.960   2.851   2.086  0.1280 -0.0006  0.0044
21144W        W36613  13.120  14.927   4.388  0.1111 -0.0812 -0.0549
21145W        W36614   2.007  10.846   4.669 -0.1047  0.0587 -0.0146
21146W        W36615  12.694  14.008   0.573  0.0864 -0.3655  0.1139
21147W        W36616  13.089   1.742   2.851 -0.2388  0.2418 -0.1868
21148W        W36617   9.736   8.432  14.775 -0.0295  0.0294 -0.0469
21149W        W36618   4.005   6.794  13.112  0.0065 -0.1618 -0.1511
21150W        W36619   9.029   5.744   1.775  0.0391  0.1692 -0.1909
21151W        W36620  10.345   9.556  11.693 -0.0358 -0.0907  0.0260
21152W        W36621   7.143   7.850   2.708 -0.0551 -0.1982 -0.0460
21153W        W36622   8.614   8.981  14.536 -0.1682 -0.3203  0.2664
21154W        W36623   5.159   9.802  14.644 -0.2153  0.1441  0.0443
21155W        W36624   0.220   7.760  14.497  0.2196 -0.0865 -0.0287
21156W        W36625   1.314  14.801  11.930 -0.0068  0.2431  0.0529
21157W        W36626  13.100   6.700   4.150 -0.2479 -0.1716  0.4454
21158W        W36627   0.871  14.671  11.210 -0.0945 -0.0045  0.0544
21159W        W36628  15.513   3.144   5.146  0.1500 -0.2063 -0.1639
21160W        W36629  12.434  12.394  14.814  0.1290 -0.2809 -0.0163
21161W        W36630   8.285   2.054  11.107 -0.2494  0.2516  0.0315
21162W        W36631  15.642  15.943  13.146  0.1928  0.1724  0.2009
21163W        W36632  12.743  11.643  13.861  0.1652 -0.1117  0.0649
21164W        W36633   2.973  10.917  14.289  0.3121 -0.2975  0.0975
21165W        W36634   4.666  16.594   1.420 -0.0420 -0.1488 -0.1859
21166W        W36635  16.728   2.381  12.866 -0.1188 -0.5047  0.0255
21167W        W36636   0.255  12.884   0.104 -0.1280  0.0410 -0.0151
21168W        W36637  10.474   3.235  12.337  0.1343 -0.1545  0.0319
21169W        W36638  15.589   2.757  13.884 -0.1355 -0.0902 -0.2467
21170W        W36639   1.936   0.175   6.194  0.1061 -0.3277  0.3118
21171W        W36640  12.006   8.419  13.294 -0.1911 -0.2974 -0.0990
21172W        W36641  15.701  17.653  11.168  0.1088  0.0210  0.0819
21173W        W36642  11.174   8.714  13.081  0.2136 -0.2095 -0.0932
21174W        W36643   0.188  17.374  13.155  0.0531  0.0464 -0.0995
21175W        W36644  14.390   4.627   5.309 -0.1942 -0.2323  0.0852
21176W        W36645   0.360  10.108  15.752 -0.0964  0.1516  0.2094
21177W        W36646   7.337   9.914   0.850 -0.3230  0.0910  0.3168
21178W        W36647  13.802   1.678   4.035  0.2057 -0.1938  0.1559
21179W        W36648  12.034   0.265   2.958  0.0639 -0.0420 -0.2178
21180W        W36649  10.235   6.201  13.991  0.0800  0.1863  0.0093
21181W        W36650  12.749   3.966  13.592  0.0903 -0.0620 -0.0115
21182W        W36651   3.003   2.940   3.523  0.1423  0.1071 -0.0956
21183W        W36652   1.654   8.179   1.277 -0.0064 -0.0282 -0.0439
21184W        W36653   2.713  10.245   2.800 -0.1472 -0.2342 -0.2923
21185W        W36654   7.379   1.999  13.340 -0.1039 -0.1914 -0.0578
21186W        W36655  10.841   2.093   3.744 -0.3182  0.0311  0.1769
21187W        W36656   9.504   7.245  13.615  0.1783 -0.4812 -0.2016
21188W        W36657   8.903   3.242   2.146  0.0288 -0.1854 -0.2429
21189W        W36658   0.664  13.763   1.685  0.0464  0.0224  0.1691
21190W        W36659   9.137  12.419  14.192 -0.3223  0.1357  0.1877
21191W        W36660  16.837   4.795   4.363 -0.1383 -0.0674  0.0790
21192W        W36661   7.656  16.715   3.496 -0.1497  0.1658 -0.2832
21193W        W36662  16.992   0.110  13.016 -0.4136  0.1912  0.2094
21194W        W36663   2.951   1.065  11.636  0.2291 -0.3820  0.0167
21195W        W36664   7.127   8.149   3.166 -0.0993 -0.0977  0.0244
21196W        W36665   9.558   4.910  14.773  0.2995  0.0194 -0.1235
21197W        W36666  15.565   1.103  10.308  0.1577 -0.0791 -0.1564
21198W        W36667   3.212   6.544   3.601  0.2649  0.1574 -0.1018
21199W        W36668  13.896   3.970   3.608  0.0761  0.2259  0.0986
21200W        W36669  12.248  10.649   4.615  0.1128 -0.2242  0.2612
21201W        W36670   0.304   6.120   0.537 -0.1379 -0.2919 -0.3360
21202W        W36671   1.581   9.986   2.833  0.2317 -0.0284 -0.0835
21203W        W36672   5.485   2.008  15.337 -0.1705 -0.1658 -0.3407
21204W        W36673   1.506   5.799   2.716 -0.1519 -0.1449  0.0922
21205W        W36674  10.030  13.226  11.104 -0.0864  0.0325  0.1061
21206W        W36675   2.545  13.502  15.234 -0.0087  0.0987  0.4443
21207W        W36676   6.849  11.616  14.635 -0.1477 -0.1039  0.1502
21208W        W36677   3.713   0.827  12.671 -0.3688  0.2187  0.2434
21209W        W36678  12.007   4.201  11.535 -0.2297 -0.1221  0.0977
21210W        W36679  14.693   8.870   1.902  0.1056  0.2136 -0.1769
21211W        W36680   6.741  15.775  15.092  0.0982 -0.4409 -0.1200
21212W        W36681  16.741  16.752   5.675 -0.0612  0.1990  0.1308
21213W        W36682  14.957  15.464  15.270 -0.0354  0.1306 -0.1883
21214W        W36683  13.026  12.766  15.512 -0.1436  0.0658  0.1144
21215W        W36684  16.054  15.592   1.573 -0.1838 -0.0724  0.1499
21216W        W36685  15.861   0.354  14.255 -0.0519  0.1312 -0.3186
21217W        W36686  15.806  10.412   3.135  0.0586 -0.1059  0.2002
21218W        W36687   3.708   2.404  11.976  0.0535 -0.0321 -0.0486
21219W        W36688  14.788   8.288  10.432 -0.1162  0.0692 -0.0107
21220W        W36689   1.872  11.988  12.734 -0.0126 -0.1344 -0.1365
21221W        W36690   3.512   3.008  14.742  0.1023 -0.0606 -0.0493
21222W        W36691   9.697   0.917  13.928  0.4752  0.1965 -0.0384
21223W        W36692   8.009  12.680   3.566 -0.1080  0.0575 -0.1885
21224W        W36693  16.634  11.613   5.291  0.1946  0.0490  0.2561
21225W        W36694   8.171   3.030  12.449  0.3451 -0.1569 -0.0862
21226W        W36695   0.438  15.166   3.485 -0.1441 -0.0753  0.0136
21227W        W36696   9.288  11.593   1.685  0.1249 -0.4487 -0.1724
21228W        W36697   4.165  16.623   2.505 -0.0291  0.0578 -0.3192
21229W        W36698   0.491   9.900   0.701  0.2712 -0.0392 -0.0515
21230W        W36699  11.609   3.469   9.753 -0.2560  0.1786  0.0471
21231W        W36700   7.856   3.862  15.174  0.1879  0.1301  0.1365
21232W        W36701   2.727   7.800  10.453  0.2313 -0.1846  0.0535
21233W        W36702   2.769   6.269  14.105 -0.3959  0.1018  0.0327
21234W        W36703   8.594  13.102   0.318  0.2491  0.2094 -0.1422
21235W        W36704   0.721  18.061  11.029 -0.1513  0.1846  0.0107
21236W        W36705  15.559  17.330  15.068  0.2800 -0.0136  0.0071
21237W        W36706   1.075  13.096   2.793 -0.1082 -0.1021  0.1030
21238W        W36707   9.874  11.943  15.687 -0.2030 -0.1635  0.1011
21239W        W36708  15.572   2.633  14.830 -0.2534 -0.0889 -0.1290
21240W        W36709   7.857   6.146   2.092  0.0131 -0.0799  0.1188
21241W        W36710  17.355  11.524  10.605  0.2019 -0.1450  0.0939
21242W        W36711   6.843   6.006   1.741  0.2269 -0.2739 -0.0467
21243W        W36712  16.687   9.587   0.956  0.1106  0.1578 -0.1610
21244W        W36713   3.846  10.673   4.592 -0.0977 -0.2696 -0.0914
21245W        W36714   3.641  11.853   3.247 -0.4105  0.2307 -0.0017
21246W        W36715   0.642   6.233   4.329 -0.0406  0.0100 -0.0781
21247W        W36716   1.531   0.082   1.588 -0.1374  0.2431 -0.1704
21248W        W36717   1.631  10.019   3.856  0.0101  0.0555 -0.0690
21249W        W36718   2.281   6.334  12.249 -0.0002  0.0207 -0.0195
21250W        W36719  16.194  12.487   3.455  0.3709  0.0280 -0.0319
21251W        W36720   6.079   5.781  10.174 -0.0432 -0.1124  0.0257
21252W        W36721   7.197   8.755  15.215 -0.0918 -0.0276  0.1641
21253W        W36722  13.046  14.153  12.512 -0.0840 -0.0941  0.0163
21254W        W36723  12.523  11.842   3.638  0.2504 -0.2568  0.1031
21255W        W36724   1.264  17.477   0.551  0.0130  0.0393  0.1255
21256W        W36725   1.075   7.112   4.750  0.0827 -0.1951  0.0142
21257W        W36726   7.927   1.722  13.450 -0.0313  0.1332  0.1885
21258W        W36727   1.378   5.285  14.853  0.0451  0.0445  0.0743
21259W        W36728   9.518  16.385  10.284  0.0363  0.0324  0.0361
21260W        W36729  18.025  17.049   0.646  0.2008  0.1396 -0.2206
21261W        W36730   0.554   8.712   3.549 -0.0491  0.3254  0.0281
21262W        W36731  10.522  15.576  12.501  0.1335  0.2165 -0.1592
21263W        W36732   5.220   0.283  15.604 -0.1469 -0.2464  0.0826
21264W        W36733  14.837   7.368  10.253  0.5277 -0.0778  0.1142
21265W        W36734  11.718   2.036   1.535  0.2475  0.0902 -0.3379
21266W        W36735   1.194   4.511  15.606 -0.2180 -0.2188 -0.0783
21267W        W36736   5.191  18.187   0.924 -0.2393 -0.1563 -0.1226
21268W        W36737   1.063   9.862   4.575 -0.1759 -0.0936 -0.1314
21269W        W36738  13.949   5.970   1.224 -0.3264  0.0587  0.1380
21270W        W36739  10.581  14.802   1.286  0.0853 -0.0091  0.1077
21271W        W36740  13.232  17.365  14.455 -0.1968 -0.1975  0.1525
21272W        W36741   6.429  13.266   0.557 -0.0743 -0.4081  0.4999
21273W        W36742   7.947   1.757   2.993 -0.2220  0.1034 -0.2802
21274W        W36743   8.177  17.557   6.328 -0.0248  0.0050 -0.1979
21275W        W36744  15.189   8.184   0.526  0.1720  0.0295  0.0185
21276W        W36745  17.235  14.581  14.841  0.2764 -0.2403  0.1433
21277W        W36746   2.208   0.850  15.071 -0.1629 -0.5508 -0.0241
21278W        W36747  11.340   3.625   2.429  0.0097 -0.2229 -0.6004
21279W        W36748  15.241   2.368  13.706 -0.0438  0.1736 -0.1770
21280W        W36749  15.515   7.864   2.091 -0.0643  0.1472  0.0076
21281W        W36750   4.377   9.295  12.961 -0.1216  0.0574  0.2875
21282W        W36751   5.560  11.723  14.610  0.3686  0.3363  0.1863
21283W        W36752   9.839   3.752  11.103 -0.0784  0.1020  0.0543
21284W        W36753   5.281   4.303   4.950  0.1649 -0.1996 -0.1586
21285W        W36754   5.154  17.003  10.634 -0.2059 -0.3441  0.1027
21286W        W36755   5.512  12.890   0.312 -0.2978 -0.0218  0.1971
21287W        W36756  16.445  12.735   0.087 -0.2636  0.0886 -0.2165
21288W        W36757  17.909   5.601  14.879 -0.1224 -0.1186 -0.1464
21289W        W36758   6.641  12.918  11.710  0.1907 -0.0227 -0.0354
21290W        W36759   3.961   3.463  13.064 -0.1184 -0.0267  0.1206
21291W        W36760  16.935  11.204  12.876  0.0904 -0.1639  0.0270
21292W        W36761  13.890   0.209   1.425 -0.0476  0.1055 -0.0402
21293W        W36762   1.887  15.795   3.660 -0.1140 -0.0120  0.0193
21294W        W36763   2.470   8.691   4.321 -0.0883  0.1472  0.1856
21295W        W36764   7.851   5.533   4.131  0.2130  0.3747  0.1082
21296W        W36765  17.884   0.312  12.095 -0.0563 -0.1211 -0.2519
21297W        W36766   9.607   9.341   1.102 -0.2975 -0.1352  0.1086
21298W        W36767   7.863   3.607   1.812  0.1610 -0.0830  0.0806
21299W        W36768   0.810  10.025   2.953 -0.2676 -0.0560  0.1006
21300W        W36769  14.969   4.217  13.518 -0.2711  0.0176 -0.0309
21301W        W36770  11.537  14.899  14.994 -0.3894  0.0953 -0.1082
21302W        W36771  17.734   7.864  13.427  0.3991  0.2076 -0.1009
21303W        W36772  13.212   5.950   4.256 -0.0292  0.2329  0.1424
21304W        W36773   7.266   8.360   5.175 -0.1515 -0.0614 -0.1527
21305W        W36774   1.932   5.341   5.311 -0.1930  0.0913 -0.0233
21306W        W36775   7.756  12.570  11.230  0.2196  0.1228 -0.1001
21307W        W36776   4.216   0.171   3.216 -0.1720  0.0786  0.1535
21308W        W36777   9.928   9.685   4.428 -0.1297  0.0331 -0.0839
21309W        W36778   8.646   2.993   3.403 -0.1297  0.2097 -0.1060
21310W        W36779   3.955   3.810  12.703 -0.0505  0.0863 -0.1343
21311W        W36780  13.253   5.543  14.910 -0.0429 -0.2465  0.0696
21312W        W36781   4.052   0.906  14.950 -0.0086  0.3096 -0.2400
21313W        W36782  18.242   1.958   1.167  0.2288  0.0398  0.2320
21314W        W36783  12.897   0.687   0.927 -0.2033 -0.0094  0.0185
21315W        W36784  17.398   3.405   2.097 -0.3064 -0.2895  0.1191
21316W        W36785   9.646   0.200   3.354  0.1212  0.1496 -0.0226
21317W        W36786   8.589  15.771  14.179  0.3141  0.1644  0.1468
21318W        W36787  13.664   9.520  11.058 -0.1388 -0.1051 -0.2138
21319W        W36788   8.390   2.072   2.470  0.0062 -0.1035  0.0288
21320W        W36789  15.283   8.118  13.967  0.1792 -0.0497  0.0259
21321W        W36790   5.790   4.395  12.750  0.0347 -0.2520  0.0430
21322W        W36791  15.077  10.805  13.550 -0.0444  0.0861  0.0094
21323W        W36792   1.694   9.263  12.529  0.1309  0.2837 -0.1340
21324W        W36793   0.672  15.965  10.620 -0.1483 -0.0966  0.0617
21325W        W36794  13.631   5.222  15.043  0.4439 -0.0569  0.1066
21326W        W36795   5.016   4.916   2.295 -0.2493 -0.0540  0.2121
21327W        W36796   2.028  12.601   5.523  0.0912 -0.0390 -0.0653
21328W        W36797   0.118   2.587   0.562  0.1243 -0.0254  0.2182
21329W        W36798   3.898  15.616   4.232  0.0133 -0.1707  0.3721
21330W        W36799   2.686   8.466   0.167  0.0381 -0.1587 -0.3860
21331W        W36800  18.460   3.667   2.627 -0.0522  0.1074 -0.2311
21332W        W36801   3.278  17.627  12.160  0.1358 -0.1913 -0.3745
21333W        W36802  13.030   6.902  10.901  0.0882 -0.1294 -0.2449
21334W        W36803  16.915  11.600   2.310  0.0025  0.1451  0.1690
21335W        W36804  16.071  14.360  13.285 -0.1751 -0.2986  0.1088
21336W        W36805   4.171   2.629   3.546 -0.0161  0.2338 -0.2504
21337W        W36806  15.269   0.843   0.364 -0.3227  0.2741  0.0975
21338W        W36807   7.635   3.235   4.170  0.0593  0.3826  0.0761
21339W        W36808  10.481  14.821  14.500 -0.2327 -0.1849 -0.2970
21340W        W36809   7.215   3.520  13.680 -0.0064  0.0445 -0.1067
21341W        W36810   2.631  17.325   4.251  0.2719 -0.0356 -0.2095
21342W        W36811  14.415  18.248  14.598  0.3080 -0.1217 -0.3367
21343W        W36812   8.955  11.083  15.003 -0.5298  0.3142 -0.3806
21344W        W36813   2.625   1.702  11.398 -0.1163 -0.0316  0.2336
21345W        W36814  17.049   8.032   9.369 -0.0233  0.0002  0.2398
21346W        W36815   3.205   1.159  13.982  0.0596 -0.2493 -0.1208
21347W        W36816   5.123  12.358  15.192 -0.1012  0.0591 -0.1741
21348W        W36817   3.433   4.792  12.177 -0.0653  0.4908  0.0390
21349W        W36818   6.771   5.460   0.719 -0.3750 -0.1856  0.0681
21350W        W36819  14.830  16.169  14.342  0.0854  0.3749 -0.1901
21351W        W36820   3.606   4.791   5.312  0.0219 -0.2237  0.0938
21352W        W36821  14.634  11.561  11.159 -0.1423 -0.4112  0.1594
21353W        W36822  17.174  15.078  12.470  0.1757  0.0730  0.2501
21354W        W36823   7.674  17.447   5.562  0.1154 -0.5657  0.3493
21355W        W36824  17.556  11.130  13.003  0.1855  0.0163  0.1350
21356W        W36825  17.612  17.772   3.860 -0.1351 -0.1411  0.0164
21357W        W36826   2.664  12.518   5.364 -0.4113  0.1750  0.0734
21358W        W36827   1.767   0.635  10.981  0.0887  0.0956 -0.0299
21359W        W36828   1.678   1.999  13.598 -0.0165 -0.1742 -0.0635
21360W        W36829  14.411   6.458   3.766  0.4245  0.1141 -0.0458
21361W        W36830  12.759   5.979   4.044 -0.0619 -0.2901  0.3895
21362W        W36831  11.616  18.221   0.308 -0.0994  0.0890  0.0015
21363W        W36832   6.401   4.322  15.029  0.0845  0.2367 -0.2843
21364W        W36833   8.963  16.481   4.843 -0.2384  0.2752  0.0802
21365W        W36834   8.772   9.158   4.882 -0.0990  0.3246  0.0610
21366W        W36835  14.094   6.742  15.273 -0.1753  0.0201 -0.1379
21367W        W36836  17.053  15.064   0.821 -0.0151 -0.0564  0.3752
21368W        W36837  18.233   1.222   0.362  0.0573 -0.1633  0.2320
21369W        W36838  13.859   2.531  10.850  0.2395  0.4352 -0.2519
21370W        W36839   2.294   2.301   4.539  0.1278  0.0229  0.0189
21371W        W36840   1.042   9.052  10.885  0.0608 -0.0102 -0.1637
21372W        W36841   6.495   8.355  13.582  0.1796 -0.0394  0.1213
21373W        W36842  15.596   7.590   4.777 -0.1538 -0.2422 -0.1621
21374W        W36843   6.442   2.660  13.419  0.1839  0.0780 -0.0350
21375W        W36844  16.574  14.482  11.220  0.2614  0.1588 -0.1704
21376W        W36845  16.022   7.485   0.796 -0.0703 -0.0888  0.0843
21377W        W36846  12.619   4.025  14.052 -0.2683  0.0198  0.1277
21378W        W36847  10.245  12.882   3.194 -0.3307  0.1395  0.1090
21379W        W36848   2.901   3.195   5.537 -0.3475 -0.0848  0.2362
21380W        W36849  15.223   8.636  14.487  0.0652 -0.2798 -0.0361
21381W        W36850   3.359  16.511   2.564  0.0505  0.3390  0.3084
21382W        W36851  15.346   1.948   3.420  0.0586 -0.0600  0.4470
21383W        W36852   6.504   5.987  11.418 -0.0947 -0.1312 -0.3330
21384W        W36853  15.877  12.169   2.624  0.0135  0.0450  0.0448
21385W        W36854   6.478   2.419   3.018 -0.1288  0.1674  0.0340
21386W        W36855  16.811   8.216  11.100 -0.0858 -0.2214 -0.1535
21387W        W36856  10.816  18.417  15.857 -0.1646 -0.1043  0.0863
21388W        W36857   9.229  12.676   3.741 -0.2099  0.0246  0.1365
21389W        W36858  17.571  16.179   1.594 -0.0303  0.0232  0.1693
21390W        W36859   1.892  16.302  14.978 -0.1876 -0.2091  0.0754
21391W        W36860  16.923  14.588  11.860  0.0152 -0.0385 -0.0364
21392W        W36861   5.785  17.511  11.300 -0.1434 -0.0062 -0.1032
21393W        W36862   7.615   8.407   4.817  0.2867  0.2087 -0.2809
21394W        W36863  12.899   7.163   5.054  0.0811  0.0312  0.1923
21395W        W36864   1.398   2.276  13.150 -0.1946 -0.1853  0.1146
21396W        W36865   5.890  18.104  12.287 -0.1839  0.3926  0.0776
21397W        W36866   1.476  10.023   2.250  0.1570 -0.1170 -0.1300
21398W        W36867   9.266   2.120  11.319  0.0766  0.2079  0.0921
21399W        W36868   4.699  16.761  15.180  0.1689 -0.0513 -0.1363
21400W        W36869   9.033   4.448  15.389  0.1067  0.2724  0.2090
21401W        W36870   8.601   4.844  14.429 -0.2683 -0.0674  0.0327
21402W        W36871  13.390   9.736  10.651  0.0103  0.0575 -0.2779
21403W        W36872   8.512  15.826   1.006  0.0368  0.0067  0.0548
21404W        W36873   7.546   7.092   2.078 -0.0940 -0.0548 -0.3248
21405W        W36874  17.397   1.119   2.074  0.2431 -0.1084 -0.0701
21406W        W36875   1.349   2.398   0.538 -0.3139  0.1393 -0.0945
21407W        W36876   6.439   2.648  10.157 -0.0107 -0.0612 -0.2693
21408W        W36877   8.316   0.893  14.487  0.3308 -0.0129  0.1278
21409W        W36878  15.047   9.431  11.363 -0.0224 -0.0310 -0.1565
21410W        W36879   6.371   1.297   3.630  0.3662 -0.0507 -0.2571
21411W        W36880  15.234   2.230   4.687 -0.1084 -0.3121 -0.1855
21412W        W36881  17.623   6.840   1.405 -0.1481 -0.0479  0.2658
21413W        W36882  18.221  18.256   1.623  0.2582 -0.0839  0.0002
21414W        W36883  13.733  12.424   4.193 -0.3491 -0.1068 -0.2591
21415W        W36884   5.672  13.847  11.870 -0.0067  0.1125 -0.0699
21416W        W36885  17.224  15.891   2.115 -0.2401 -0.1237 -0.1770
21417W        W36886   5.719  17.087   0.767 -0.0727  0.4160  0.3921
21418W        W36887   9.607  13.258  13.237  0.2011  0.0733 -0.0838
21419W        W36888   7.717  17.445   1.593 -0.1033 -0.2005  0.2729
21420W        W36889   3.775  16.364   4.875  0.0506 -0.0380  0.0333
21421W        W36890  16.004   2.687  12.614  0.0336 -0.3776  0.1490
21422W        W36891   9.472   6.767  10.878 -0.1810 -0.0239  0.0999
21423W        W36892  11.050   2.256  14.272 -0.0130 -0.2175 -0.0624
21424W        W36893  17.559  11.118  15.039  0.0025 -0.1035 -0.0696
21425W        W36894   2.554  12.708   3.554 -0.2379 -0.0896  0.2456
21426W        W36895   1.929   2.122  10.706 -0.0977 -0.1411  0.0764
21427W        W36896  17.705   1.771  12.635  0.1480  0.0904  0.2241
21428W        W36897   3.543  13.900   0.847 -0.2694  0.0698 -0.1953
21429W        W36898  15.390  10.303  11.868  0.0452 -0.1310  0.2312
21430W        W36899  12.169  13.701   3.174 -0.2088 -0.0626 -0.1951
21431W        W36900   7.801  10.944   0.056 -0.1702 -0.1131  0.2852
21432W        W36901   4.283   8.289   0.001  0.1776 -0.1585  0.2116
21433W        W36902   4.319   7.018  11.349  0.1159  0.0914  0.6232
21434W        W36903   3.711   3.810   2.400 -0.0130 -0.1648  0.3800
21435W        W36904   0.675   7.748   5.523 -0.2199 -0.1450 -0.3861
21436W        W36905   2.393  14.836   1.593 -0.1193 -0.4166  0.1865
21437W        W36906  17.611  17.614  12.952 -0.0381 -0.2736 -0.0606
21438W        W36907  10.911   4.876   3.915 -0.2578 -0.1098  0.1501
21439W        W36908  10.795   2.769  13.081 -0.1664  0.2926 -0.1011
21440W        W36909   2.793   3.830  13.542 -0.0761 -0.2834  0.1920
21441W        W36910   8.019  17.982   0.404 -0.2096 -0.0389  0.4408
21442W        W36911  10.573  10.391   0.911  0.0645 -0.2261 -0.0180
21443W        W36912   3.654  11.805  13.862 -0.0721  0.1832 -0.0206
21444W        W36913  15.660   4.834  14.140 -0.1792  0.2475  0.0146
21445W        W36914   3.489   1.562  14.218 -0.0047 -0.2947 -0.0751
21446W        W36915  15.812   6.752   6.060  0.1671 -0.1595  0.1558
21447W        W36916   3.362  15.001  13.203  0.0477 -0.0941 -0.1572
21448W        W36917   7.781  16.129   2.752  0.4980  0.1318 -0.4021
21449W        W36918  15.800  11.775   0.802  0.0596  0.0972  0.3223
21450W        W36919   8.202  17.846   4.823  0.3469  0.1311 -0.0090
21451W        W36920  10.908   3.734   9.848  0.0316  0.2353  0.0009
21452W        W36921   6.605   7.138   2.345 -0.1380 -0.1389 -0.3858
21453W        W36922   0.634   5.256  13.574 -0.0016 -0.2478  0.0646
21454W        W36923  14.985  14.542   4.417 -0.0303 -0.0836 -0.0760
21455W        W36924   1.573   3.416   5.062  0.1197 -0.0318  0.0258
21456W        W36925  15.723   2.645   2.275  0.1995 -0.1145 -0.3291
21457W        W36926  14.723  15.680   0.089 -0.0049  0.1279 -0.2985
21458W        W36927   4.758   4.915   4.365  0.0051 -0.1743  0.0627
21459W        W36928  12.945  12.249  11.635 -0.1923 -0.1831  0.1293
21460W        W36929   0.889  15.574   3.194  0.0761 -0.2332 -0.2404
21461W        W36930  18.188   7.723  11.811 -0.1930 -0.0872  0.1787
21462W        W36931   0.769  15.469   1.824 -0.0466 -0.0589  0.3276
21463W        W36932   7.697  17.961   4.487 -0.2665 -0.1327  0.0534
21464W        W36933   1.372   6.690  15.644 -0.0714 -0.3020 -0.2016
21465W        W36934   8.361  13.086   5.355 -0.0277 -0.0436 -0.0815
21466W        W36935   6.616   3.710   3.377 -0.0049 -0.0097 -0.1835
21467W        W36936   3.699   9.219   3.398 -0.2552  0.1486  0.1660
21468W        W36937  12.179  11.769  13.983 -0.0790  0.1444  0.0210
21469W        W36938   4.609   3.372  10.184  0.2376 -0.4568 -0.1334
21470W        W36939   3.921  15.763  12.283 -0.1027  0.0162  0.0580
21471W        W36940   1.763  10.396  10.912 -0.1152 -0.1065  0.2446
21472W        W36941   5.745  13.358   2.472 -0.0526  0.0952 -0.1215
21473W        W36942   8.901   4.354  14.093  0.0579  0.1337 -0.2687
21474W        W36943   6.045   7.161  10.991  0.0112 -0.1059  0.0282
21475W        W36944  14.180   7.535   1.878  0.1792 -0.0882  0.2090
21476W        W36945   6.403   4.953  10.007 -0.2705 -0.1022 -0.1096
21477W        W36946  14.939   6.479   3.745 -0.0616 -0.1846 -0.0530
21478W        W36947  15.081  13.821   3.915 -0.0910 -0.0997  0.1728
21479W        W36948  17.288  16.804   0.841  0.1510 -0.0426  0.0715
21480W        W36949   3.265   9.313   4.736 -0.1120 -0.0462 -0.0617
21481W        W36950   7.256   6.563  13.797 -0.3283  0.2682  0.2275
21482W        W36951   5.649  14.879   5.735  0.0550 -0.1092  0.1097
21483W        W36952  11.681   0.354  11.350 -0.5458 -0.4045  0.0854
21484W        W36953   2.012   8.454   3.284 -0.1787  0.1425 -0.1616
21485W        W36954  12.038   0.994   1.769  0.0011  0.0606  0.1341
21486W        W36955  11.451  17.070  15.679 -0.2552 -0.3161 -0.0509
21487W        W36956   9.722   2.195   3.740  0.1304 -0.0732  0.1323
21488W        W36957   1.752   5.194  12.665 -0.0492  0.2309 -0.0847
21489W        W36958  12.079   0.419  12.427 -0.1479 -0.1480  0.0738
21490W        W36959  11.818   1.579  11.038  0.0499 -0.1366 -0.0208
21491W        W36960  10.942  14.019   4.275 -0.0490 -0.0740 -0.0809
21492W        W36961   0.746   6.723  11.200 -0.2095 -0.2569 -0.1125
21493W        W36962   7.985  12.506  15.850 -0.3247 -0.2109 -0.0123
21494W        W36963   5.271  14.645   3.599 -0.0983  0.0270 -0.0582
21495W        W36964   2.998   3.000  14.565 -0.2529  0.0202  0.1345
21496W        W36965  12.484   8.147   1.967  0.1842  0.0310 -0.0705
21497W        W36966  10.680  12.575   0.503 -0.2924 -0.1352 -0.1190
21498W        W36967  10.932   7.069  14.208 -0.2226  0.0418 -0.0076
21499W        W36968  14.299   8.163   0.631  0.0485  0.2328 -0.1591
21500W        W36969   7.007  13.473  15.026  0.0694 -0.1767  0.2696
21501W        W36970  16.689  10.347  12.904 -0.0083  0.1280 -0.2695
21502W        W36971  10.899  16.866  14.511  0.0500 -0.1441  0.2842
21503W        W36972  18.171  17.771   2.024 -0.2751 -0.4541 -0.0402
21504W        W36973   1.994  17.270   1.294 -0.0438 -0.0627 -0.1557
21505W        W36974  13.879   8.832  11.915  0.2873  0.4081  0.0024
21506W        W36975   5.462  11.716   5.230 -0.1804 -0.1111  0.2915
21507W        W36976   3.021   7.124  14.782  0.1803  0.2408  0.0705
21508W        W36977   2.101  17.215  13.830 -0.3235  0.0076  0.0696
21509W        W36978  11.408   3.411  11.147  0.0482  0.3221 -0.0957
21510W        W36979   5.219   5.806  15.711  0.0771 -0.0094 -0.1485
21511W        W36980   5.835   6.966  13.441 -0.6948 -0.2928  0.2017
21512W        W36981  12.039   5.772   3.476  0.4830  0.2519  0.1903
21513W        W36982   2.246  10.166  15.562 -0.0335 -0.0201  0.1274
21514W        W36983  16.378   7.099   4.172 -0.5608 -0.2173  0.1200
21515W        W36984  14.165  17.794   3.275 -0.0046 -0.0976  0.0377
21516W        W36985   2.367   4.242   0.187 -0.0346  0.0845 -0.1392
21517W        W36986  17.918  14.305   1.973  0.0398 -0.1643 -0.1118
21518W        W36987   1.095  17.696  13.732  0.2771 -0.0330  0.1662
21519W        W36988  10.576   2.403   3.284  0.1159  0.1995 -0.2838
21520W        W36989   5.426   7.165   3.115  0.1593 -0.0055  0.1749
21521W        W36990   2.081   3.595  15.308  0.0585 -0.0907 -0.2669
21522W        W36991  14.104  16.935   2.020 -0.0306  0.1402 -0.0314
21523W        W36992   2.337   7.924  10.765  0.0514  0.0053  0.2336
21524W        W36993  11.419  13.808  12.255  0.1697 -0.0827 -0.2811
21525W        W36994   5.929   6.039   2.758 -0.3181 -0.2207 -0.0373
21526W        W36995  16.801  12.655  11.631 -0.1993 -0.1697  0.1125
21527W        W36996  13.642   5.345   2.563  0.0379  0.1119  0.1641
21528W        W36997   3.680   3.939   3.909 -0.0562  0.3069 -0.1142
21529W        W36998   6.686  14.924  14.887 -0.0432 -0.0700  0.1006
21530W        W36999  14.702   0.597   0.733 -0.0715 -0.3083  0.0689
21531W        W37000   8.309   2.517  11.262 -0.3450 -0.0203 -0.2226
21532W        W37001   0.070   6.834   4.242  0.1144 -0.0224 -0.2040
21533W        W37002  17.793   0.851  12.673  0.1905 -0.0743  0.0143
21534W        W37003   8.349   1.863   3.363  0.1209  0.0977  0.2435
21535W        W37004  11.905  16.809   4.371  0.1272 -0.0969 -0.0112
21536W        W37005  11.906  14.643  10.741  0.1619 -0.0153 -0.1131
21537W        W37006   9.791   0.051   2.271 -0.2363  0.1481  0.1991
21538W        W37007  11.310  10.356  15.759 -0.0462  0.3547 -0.1018
21539W        W37008   1.515   4.216  13.991 -0.3299 -0.3675  0.2065
21540W        W37009  16.442   3.665   4.200  0.1043 -0.0138 -0.1959
21541W        W37010  18.193  15.281  15.269 -0.2052  0.1662  0.0640
21542W        W37011  14.850   5.934   0.796  0.2114 -0.2370 -0.3843
21543W        W37012   3.984   4.243  12.445  0.1440 -0.2904 -0.2862
21544W        W37013   7.214  11.853  12.130 -0.2789  0.1421 -0.1937
21545W        W37014   3.775  16.340   2.311 -0.1226 -0.1206 -0.3259
21546W        W37015   6.867  14.155  12.547  0.3278 -0.0204  0.2805
21547W        W37016  16.591   5.287  11.071  0.1217 -0.1693 -0.0918
21548W        W37017  14.758   4.107   4.645  0.3207  0.3846  0.4550
21549W        W37018  12.114  11.688   1.768 -0.0830 -0.1034 -0.1335
21550W        W37019   8.217  13.360   0.546 -0.2554  0.0236  0.0388
21551W        W37020   7.418  16.821   3.100  0.1214 -0.1462  0.0206
21552W        W37021  16.927  15.260  10.994  0.0329 -0.1245 -0.1898
21553W        W37022   5.220  10.569  10.523  0.0895 -0.1582 -0.2261
21554W        W37023  12.460   2.780   1.477 -0.1599  0.2768  0.3151
21555W        W37024  13.181  10.004   1.663 -0.3017 -0.0867 -0.0418
21556W        W37025  12.640   5.466  15.644  0.3853 -0.2994  0.0196
21557W        W37026   8.205   8.302  14.970 -0.1154 -0.1285 -0.0360
21558W        W37027   9.032   3.269   4.242 -0.1586 -0.2880 -0.3703
21559W        W37028  15.937   6.999  14.605 -0.0198 -0.0019 -0.2610
21560W        W37029   5.821   0.466  11.224 -0.0915  0.0916 -0.0522
21561W        W37030  10.191   6.569  13.113 -0.0402  0.0870  0.1639
21562W        W37031   2.729   0.539   0.572  0.0215  0.0760 -0.1961
21563W        W37032   3.811  12.834  10.755  0.0574  0.0752  0.2284
21564W        W37033   0.318  12.675  13.975 -0.1107 -0.0965  0.0348
21565W        W37034   5.268   1.817  14.732  0.0331 -0.1736  0.0746
21566W        W37035   6.323   3.701   0.386 -0.1373 -0.1623  0.1289
21567W        W37036   1.272   2.526   5.552 -0.0784 -0.1122  0.2378
21568W        W37037   6.530  14.696  12.942 -0.0879  0.0007  0.1669
21569W        W37038   6.728   7.750   3.481 -0.3067  0.1215  0.0688
21570W        W37039   9.005   2.816  14.385  0.4288  0.1546  0.2776
21571W        W37040  11.119   7.819  10.732 -0.1876 -0.1862  0.0757
21572W        W37041  14.704   8.365   5.485  0.2247 -0.1187  0.2357
21573W        W37042   2.925   8.464   3.540  0.0300 -0.0388  0.0073
21574W        W37043   2.447  10.313   0.685  0.1415  0.0421  0.2037
21575W        W37044   2.818  11.653   4.477 -0.1893  0.0058 -0.1329
21576W        W37045   3.568   1.100   0.418  0.1958  0.0915  0.0163
21577W        W37046   1.303  15.418  14.069 -0.0577 -0.0620 -0.5209
21578W        W37047  11.258   2.633  15.309  0.1152  0.1055 -0.1206
21579W        W37048   5.099   7.282  11.035  0.4295  0.2539 -0.2431
21580W        W37049  13.791   2.937  14.986  0.0571 -0.2226  0.1511
21581W        W37050   9.953   3.028   4.230  0.3269 -0.0442 -0.0764
21582W        W37051   9.474   9.370   1.882  0.0568 -0.1723 -0.0275
21583W        W37052   6.063   7.661  12.863 -0.2272  0.1014 -0.0103
21584W        W37053  14.040  11.436  14.994  0.0578  0.1289  0.2024
21585W        W37054  17.762  11.241   4.648 -0.1961  0.1021 -0.0154
21586W        W37055   3.773   9.859   0.776  0.2337  0.2571  0.3392
21587W        W37056  17.068  16.103  12.042  0.1979 -0.0731 -0.2924
21588W        W37057   2.778   7.610  11.073 -0.0692  0.2411  0.3290
21589W        W37058  13.935   3.069  15.780 -0.0243 -0.0654 -0.1066
21590W        W37059  16.158  12.889   3.810 -0.5078 -0.1428  0.1402
21591W        W37060  14.426   4.684  14.942  0.1045 -0.2040 -0.1410
21592W        W37061  12.567  18.164  12.852 -0.1645 -0.1168 -0.0915
21593W        W37062   4.498   2.245  12.879 -0.4089 -0.0647  0.0864
21594W        W37063  17.634  17.721   0.186 -0.0461  0.1781 -0.1687
21595W        W37064  14.155   1.087  13.793 -0.2166 -0.0122 -0.1111
21596W        W37065  10.764   8.423   4.092  0.0251  0.2307  0.2326
21597W        W37066  13.822  10.438  11.223 -0.0370  0.1304 -0.0665
21598W        W37067  18.278   0.962   2.682 -0.0160 -0.1198 -0.1012
21599W        W37068   3.987  10.859   0.906  0.1664 -0.2919 -0.0383
21600W        W37069  17.175   9.740  11.687 -0.0021  0.1078 -0.3342
21601W        W37070  10.039  11.053  12.605  0.1025  0.0433  0.0155
21602W        W37071  16.986   3.501   1.682 -0.0915 -0.0119  0.2116
21603W        W37072   1.747   3.108   2.819 -0.0681 -0.2645  0.1138
21604W        W37073  18.173   2.458  12.253 -0.2881 -0.2847  0.2334
21605W        W37074  15.478  10.925   0.349  0.2372  0.2435 -0.0612
21606W        W37075  16.227   3.906  14.946 -0.0044 -0.4788  0.0346
21607W        W37076   3.408  11.576  10.439 -0.1316  0.0788 -0.0640
21608W        W37077   6.810  16.047   5.396  0.0314 -0.0663 -0.0618
21609W        W37078  17.397  16.384  11.791  0.2267  0.0584 -0.2202
21610W        W37079  17.192  15.778   1.567  0.0479  0.2095  0.0982
21611W        W37080   3.926   3.849   4.906 -0.0641 -0.0177  0.1374
21612W        W37081  13.785  10.489  15.578 -0.1669 -0.0226  0.1860
21613W        W37082   6.358  14.172  15.138 -0.0152 -0.1611 -0.1439
21614W        W37083   9.132  14.260   2.685 -0.1493  0.0557  0.1228
21615W        W37084  15.989  15.865   2.802  0.3526 -0.4270 -0.1477
21616W        W37085  16.978  13.930   3.899  0.1543  0.0229 -0.0495
21617W        W37086   8.004   4.027  14.135  0.0230  0.1464 -0.6470
21618W        W37087  16.375  11.940  11.912 -0.3238 -0.0101  0.0300
21619W        W37088   0.898   7.018  11.586 -0.2166 -0.0377 -0.1222
21620W        W37089  12.560  12.481   5.604 -0.0267 -0.0810 -0.1037
21621W        W37090   6.215  16.304   0.126  0.3481  0.3777 -0.3557
21622W        W37091   8.668  17.305   2.615 -0.0025 -0.0601  0.4056
21623W        W37092  16.790   5.463   5.129 -0.0378 -0.1186 -0.2584
21624W        W37093  12.641  11.255  12.314 -0.2303  0.0274  0.0929
21625W        W37094  16.288  15.202   2.915  0.2794 -0.2088 -0.0328
21626W        W37095  16.018   6.755  11.387 -0.0543 -0.0973  0.1136
21627W        W37096   0.042   7.966  12.110  0.0679 -0.0187 -0.1436
21628W        W37097  14.272  16.310   2.189  0.2213 -0.0632  0.0086
21629W        W37098  11.686  13.074  12.497 -0.5028 -0.3181  0.0774
21630W        W37099  15.634  16.065  14.186  0.1247 -0.0697 -0.0800
21631W        W37100  15.910   0.047   1.650  0.2356  0.0274  0.2063
21632W        W37101  14.613  12.836   9.981 -0.0146  0.2712 -0.0543
21633W        W37102   0.885  17.216  13.687 -0.3663 -0.0879 -0.0559
21634W        W37103  15.357   9.592   2.802 -0.0995 -0.1708 -0.1796
21635W        W37104   9.981   3.569  13.019 -0.1823  0.2623 -0.3353
21636W        W37105   2.093   1.712  14.499  0.0860  0.1359  0.2490
21637W        W37106   7.118  15.735  15.438 -0.3055  0.0165  0.1516
21638W        W37107   1.162   0.620   3.144  0.0056 -0.0253  0.0628
21639W        W37108   4.349  12.220  12.131 -0.3165  0.3202  0.0454
21640W        W37109  12.358  14.567   4.989  0.1205  0.0054  0.0937
21641W        W37110   3.631   5.605  12.199 -0.2900  0.0425 -0.3013
21642W        W37111  14.005  10.878  15.073 -0.0912  0.2067 -0.0603
21643W        W37112   3.917   3.943  11.149 -0.0460  0.0546 -0.1000
21644W        W37113   7.254  18.315  14.487  0.1157 -0.1418 -0.3713
21645W        W37114  10.927   3.726   4.807 -0.0954  0.0965 -0.0342
21646W        W37115   9.077   5.075   1.624  0.0308  0.1596 -0.0017
21647W        W37116  11.822   6.513  12.615 -0.1215 -0.3166 -0.1119
21648W        W37117   6.617   4.077   3.023  0.2805 -0.0090  0.1974
21649W        W37118   0.065  15.143  13.278  0.0104 -0.1650  0.2263
21650W        W37119  15.491   3.619   6.048 -0.1196  0.0531  0.1788
21651W        W37120  10.044   6.955  14.948  0.2813 -0.1323 -0.1765
21652W        W37121   0.497   2.563   2.715  0.3485  0.0505 -0.1378
21653W        W37122  14.008  10.522  14.692  0.3361  0.2038 -0.2181
21654W        W37123  14.784   8.894   4.267  0.0407 -0.0866  0.1040
21655W        W37124   1.892   4.303  11.230 -0.1604 -0.0319  0.0782
21656W        W37125   6.634   2.973  11.733 -0.2049  0.2536 -0.1432
21657W        W37126  17.247  15.660   4.064  0.2679 -0.0724  0.2500
21658W        W37127   7.489   5.079  13.059 -0.0514  0.1289 -0.1195
21659W        W37128   6.298   5.018  15.718  0.3098  0.2381 -0.0122
21660W        W37129   2.219   4.655  12.194  0.0444 -0.1197  0.0036
21661W        W37130   7.845   9.688   2.928 -0.0250  0.1502  0.2288
21662W        W37131   1.937   6.450  11.410  0.1154 -0.3365 -0.1197
21663W        W37132   7.890   0.518  15.103 -0.1691  0.1521 -0.1977
21664W        W37133   0.721  11.236  11.381 -0.1974  0.1160 -0.0378
21665W        W37134   0.818  18.153   3.777  0.1128  0.1993  0.2510
21666W        W37135   9.963  13.092  12.758  0.0826  0.0217 -0.0467
21667W        W37136   8.595  12.331  13.139 -0.0060  0.1709  0.1032
21668W        W37137   7.824  10.395  11.624  0.0614  0.0741  0.3636
21669W        W37138  17.470  12.508   2.330 -0.0224  0.2091  0.6580
21670W        W37139   4.301  12.132  10.465 -0.0276 -0.3751  0.1319
21671W        W37140   9.031  13.506   0.134 -0.0646  0.1785 -0.0433
21672W        W37141   1.508   8.825  11.063  0.0775  0.0657 -0.4317
21673W        W37142   4.367   2.730  14.177  0.0568  0.0126 -0.1036
21674W        W37143  12.030   5.018  11.700 -0.1629 -0.2022  0.4179
21675W        W37144   4.874  12.823   1.436  0.2051 -0.2360  0.2061
21676W        W37145  14.360   3.797   1.484 -0.3317 -0.0420  0.0762
21677W        W37146  14.176   1.992   3.752  0.0043  0.2781  0.1444
21678W        W37147  11.157  15.919  14.736  0.2580 -0.0901  0.0350
21679W        W37148   9.430   4.569  15.679  0.1740  0.0272  0.1180
21680W        W37149  14.090  16.875  11.638 -0.2248 -0.1735  0.0841
21681W        W37150   1.065  17.308   2.953 -0.1739 -0.0873 -0.0509
21682W        W37151  14.184   0.589  11.657 -0.0398  0.0077  0.1951
21683W        W37152  18.333  13.738  10.693  0.1457 -0.1231 -0.0789
21684W        W37153   1.533   8.035  14.140  0.3133  0.0359  0.2399
21685W        W37154   0.485   2.862  14.275  0.2035  0.6463 -0.2793
21686W        W37155  12.734   9.787  11.980 -0.1815  0.2232  0.2126
21687W        W37156  14.699  16.425   0.830  0.0618  0.1334  0.0455
21688W        W37157   0.678  15.880  12.904  0.0350 -0.0788  0.1723
21689W        W37158   0.605   7.315  10.799 -0.1648 -0.1463  0.2062
21690W        W37159   8.286  12.001   4.655  0.2369 -0.0953 -0.4182
21691W        W37160   6.570  14.714  11.310  0.1117  0.3039  0.3216
21692W        W37161   6.554   1.768   3.824 -0.0007 -0.0580 -0.0445
21693W        W37162   7.540   5.682   2.096 -0.2782 -0.1262  0.3636
21694W        W37163  13.167   4.091   5.377 -0.1621 -0.2205 -0.3749
21695W        W37164   2.506   8.810   2.794 -0.1551 -0.1088 -0.2248
21696W        W37165  17.619  16.871  11.536  0.2310  0.0428 -0.0868
21697W        W37166  16.632   7.543   4.215  0.0299  0.0299  0.2657
21698W        W37167   5.490  10.635   1.197 -0.3992 -0.0407  0.1326
21699W        W37168  13.403  15.536   1.354 -0.1015 -0.1052  0.2692
21700W        W37169   7.252  10.737   1.759 -0.1879 -0.5545 -0.1996
21701W        W37170   8.929  17.264   0.409  0.1975  0.1842 -0.1599
21702W        W37171  17.720   8.758   1.311  0.0000  0.1240 -0.1555
21703W        W37172   0.650   2.145   3.111 -0.6778 -0.0149 -0.1800
21704W        W37173   8.170   3.013  11.280 -0.1083 -0.1999  0.0938
21705W        W37174   1.509   7.162  15.753  0.5133 -0.0714 -0.0498
21706W        W37175  17.728   6.390  12.379  0.0994  0.0440 -0.1269
21707W        W37176  14.241  13.884   4.086  0.0830 -0.0403  0.0476
21708W        W37177   7.825  10.717  13.211  0.1042  0.1088 -0.1627
21709W        W37178   1.379  14.521  15.303 -0.1226 -0.1622 -0.1178
21710W        W37179  13.402  14.555   4.167  0.2829  0.0201 -0.0150
21711W        W37180  10.607  11.020  12.246  0.0225 -0.0618 -0.0855
21712W        W37181   3.421  15.151   5.845 -0.1282  0.0021 -0.4419
21713W        W37182   8.313  12.460   0.287 -0.0133 -0.0433  0.0632
21714W        W37183   3.365   5.344  15.616 -0.0855  0.1071  0.0279
21715W        W37184   5.117   6.292   2.002  0.3633  0.3596 -0.1721
21716W        W37185   5.085  16.965  13.672 -0.2808  0.2450  0.2417
21717W        W37186   6.383   9.909   0.838  0.0233  0.2563  0.1938
21718W        W37187  17.604  18.164  13.077  0.0256  0.1202 -0.2108
21719W        W37188   2.546  14.267   0.279  0.1689 -0.1314 -0.1878
21720W        W37189  17.080  11.838  10.973  0.0408 -0.0406 -0.1693
21721W        W37190   4.577   5.763   5.863  0.2781 -0.2460 -0.1918
21722W        W37191   0.330  15.620   1.991  0.1393  0.0348 -0.3491
21723W        W37192  13.973   8.608   0.637 -0.3681  0.1517 -0.0778
21724W        W37193  10.044  12.110  15.152 -0.1912  0.1102 -0.2654
21725W        W37194   1.308   7.158   1.003 -0.0544 -0.0448 -0.0287
21726W        W37195   3.288   1.104  14.947  0.1393 -0.1230 -0.1816
21727W        W37196  10.903   3.019  13.979  0.0155 -0.0686  0.0147
21728W        W37197  15.453  17.180   0.756  0.2086  0.0074  0.1054
21729W        W37198   0.346   4.220   4.470  0.0276  0.0295  0.0959
21730W        W37199   9.763   1.890  14.233 -0.1080  0.0506  0.1227
21731W        W37200   9.193   1.079   3.284 -0.0980  0.2457 -0.1204
21732W        W37201   0.753  18.037  13.308 -0.1000  0.1873 -0.1205
21733W        W37202   7.231   5.230  15.818 -0.0672  0.0551 -0.1696
21734W        W37203   2.901   0.251   4.759 -0.0151 -0.2332  0.1409
21735W        W37204  14.978  16.823   2.743 -0.2914 -0.1037 -0.2311
21736W        W37205  16.857  10.393  14.091 -0.2105 -0.0026  0.0277
21737W        W37206   8.700  16.256  14.377  0.2102  0.0720 -0.0834
21738W        W37207   7.639  12.993  12.550  0.0878 -0.0878  0.1810
21739W        W37208  17.465   4.324   1.627 -0.0807 -0.1616 -0.0556
21740W        W37209  10.699   4.908   2.262  0.0366  0.0638  0.0310
21741W        W37210   1.107   7.064  11.008  0.2563 -0.0019 -0.0301
21742W        W37211  10.953  12.964   4.377 -0.0004  0.3230 -0.2284
21743W        W37212   0.784   3.386   4.781  0.1383  0.0662  0.4206
21744W        W37213   9.466  17.356  14.831  0.1416 -0.4169 -0.1442
21745W        W37214  14.251  18.190   4.933 -0.2708 -0.0593 -0.1381
21746W        W37215   8.290   8.660   1.132 -0.1590 -0.1722  0.2682
21747W        W37216  16.451  10.879   3.302 -0.1819  0.1028  0.1216
21748W        W37217   3.552   9.498   2.915 -0.0777 -0.0982 -0.1968
21749W        W37218   6.802  14.466  14.859 -0.0598 -0.0668 -0.1429
21750W        W37219   8.547  16.389   3.936 -0.5412 -0.0667 -0.1290
21751W        W37220   2.715  11.418   2.133  0.1811 -0.0336 -0.0866
21752W        W37221   6.047  15.239   4.161  0.0421  0.0859  0.0830
21753W        W37222  13.547  15.322  11.747  0.1508  0.2111 -0.0046
21754W        W37223   0.857   8.050   3.045 -0.0413 -0.1281  0.1659
21755W        W37224   5.479  17.035   5.515 -0.3203 -0.1784 -0.1025
21756W        W37225  10.252  12.514   4.463 -0.3438 -0.0115  0.0875
21757W        W37226   8.793   7.604   2.389  0.1284 -0.2588  0.0460
21758W        W37227   1.445  10.952   2.993  0.1843 -0.5148  0.0851
21759W        W37228   6.762  10.810   1.775 -0.0742 -0.3111  0.3657
21760W        W37229  13.704  16.890  12.538 -0.3277 -0.0421  0.3173
21761W        W37230   0.487   7.452  14.930 -0.0327  0.1058 -0.2709
21762W        W37231   2.670  10.422   2.329  0.2208 -0.0909  0.2154
21763W        W37232   8.554   5.066  13.913  0.0104 -0.1665 -0.0613
21764W        W37233   1.572   7.667   2.502 -0.0718  0.0821  0.1391
21765W        W37234  14.248  12.917   1.100 -0.1749  0.0894  0.1809
21766W        W37235   4.525  13.834   5.483 -0.0730 -0.2738 -0.1992
21767W        W37236   0.391  16.130   2.581  0.3065 -0.0696  0.1532
21768W        W37237   4.074  17.882  14.626 -0.3068  0.3160  0.1739
21769W        W37238  17.097   8.100   3.552  0.1572  0.1102  0.2581
21770W        W37239  13.356   4.997   4.401 -0.1012 -0.1957 -0.0411
21771W        W37240  12.680   8.409   3.414  0.0362  0.0099  0.1158
21772W        W37241  15.703  15.792   0.064 -0.0122  0.1073  0.0686
21773W        W37242   4.563   0.113   5.050  0.0486  0.0656  0.0050
21774W        W37243   4.573   3.500  13.680 -0.4011 -0.2348 -0.2088
21775W        W37244   3.155   6.091  13.409 -0.2792 -0.0313 -0.3730
21776W        W37245   9.432   9.731   1.382  0.2654 -0.2128  0.0851
21777W        W37246   2.403   9.436   2.219 -0.0129 -0.2957  0.0164
21778W        W37247  14.881   8.912   0.932 -0.0731  0.0638 -0.1043
21779W        W37248  14.344   8.486   1.996 -0.1972  0.1129  0.4229
21780W        W37249   9.705  11.309   9.906  0.2169 -0.0643 -0.4070
21781W        W37250   7.250   6.875   1.751  0.1551  0.0493 -0.0786
21782W        W37251   5.911  10.533  12.197 -0.2582  0.1120  0.1418
21783W        W37252   8.593  12.756  15.847  0.1641 -0.1811 -0.1878
21784W        W37253   9.171  12.904   5.805  0.1612  0.2959 -0.2605
21785W        W37254  16.314   5.220  10.656  0.2752  0.0822 -0.1685
21786W        W37255   9.704   0.964  11.065 -0.0348 -0.0594 -0.0317
21787W        W37256   0.886   7.882   1.784 -0.0668  0.0879  0.0825
21788W        W37257  13.114  11.483   0.970 -0.0616  0.0964  0.2459
21789W        W37258   9.147   0.016   1.767 -0.0227 -0.2595  0.2905
21790W        W37259   0.924   7.216   2.825 -0.0161  0.0383 -0.1307
21791W        W37260   3.297   7.528   3.495 -0.1269  0.2369 -0.1456
21792W        W37261   5.444   7.474  11.765  0.0349 -0.1641  0.3006
21793W        W37262   7.990  17.073  15.337  0.3637 -0.0125  0.0183
21794W        W37263  15.646  16.841   3.777 -0.1779  0.0977 -0.0863
21795W        W37264  11.328  17.247  15.188 -0.1492 -0.0887  0.0163
21796W        W37265   3.366   7.318   2.144  0.1281  0.3828  0.3355
21797W        W37266   6.108  17.823  11.503 -0.2253 -0.1959  0.0562
21798W        W37267  17.798   8.302  13.141  0.0143  0.2424  0.1216
21799W        W37268  15.812  15.195  14.645 -0.0825 -0.2578 -0.0947
21800W        W37269   7.296  14.091  11.023 -0.0423  0.1187  0.0420
21801W        W37270   6.643  10.524  13.714  0.1128  0.0909 -0.0146
21802W        W37271   7.196  17.728   5.871  0.0520  0.1643  0.1227
21803W        W37272  11.966  14.948   4.760  0.1689  0.1599 -0.2920
21804W        W37273   8.410   4.020  15.113 -0.2148  0.1292  0.0029
21805W        W37274  13.085   5.761   1.230  0.0416 -0.0701  0.0688
21806W        W37275  18.228  16.514  13.769  0.0295  0.1211  0.0120
21807W        W37276  15.366   0.179  13.025  0.1333  0.0199 -0.0901
21808W        W37277  15.591   0.513  11.930  0.1090 -0.1202 -0.3182
21809W        W37278   2.151   7.802  15.748  0.0467 -0.0291 -0.0521
21810W        W37279   6.392   2.578   5.344 -0.0800  0.3565  0.1818
21811W        W37280  12.264  13.072  15.368  0.0072  0.0605  0.3288
21812W        W37281   1.857   9.396  14.336  0.2878  0.1720 -0.1500
21813W        W37282  10.083  17.300   4.580  0.2407 -0.2854  0.0840
21814W        W37283  15.668   7.712  10.593 -0.0559 -0.5618 -0.2739
21815W        W37284  13.160   2.191  11.251  0.0222 -0.2247  0.0261
21816W        W37285  15.252   1.087   1.845  0.2917 -0.1651 -0.0904
21817W        W37286   1.044  14.337  11.727  0.0071 -0.0192 -0.0882
21818W        W37287   5.678   4.787  12.277  0.0336 -0.1202 -0.1082
21819W        W37288  11.658  12.538   5.136  0.2782  0.1120  0.0888
21820W        W37289  16.284  15.477   5.315 -0.1209 -0.2162  0.1457
21821W        W37290   0.043   3.097  13.373 -0.1223  0.0672 -0.0309
21822W        W37291   2.314  17.355   6.095 -0.2372 -0.2243  0.1146
21823W        W37292  10.704  10.156  11.178  0.1208  0.2090  0.1199
21824W        W37293   2.176   6.502   1.467 -0.1324  0.1976 -0.4513
21825W        W37294  10.235   8.744   1.934 -0.0390  0.4180  0.0952
21826W        W37295  14.152   1.668  14.461  0.0953  0.0241 -0.0597
21827W        W37296   4.059  18.466   1.505  0.1634  0.1376 -0.0466
21828W        W37297   8.840   4.706   3.418 -0.0935 -0.2387  0.2112
21829W        W37298  14.677  12.856   2.339 -0.1452 -0.0835 -0.2201
21830W        W37299  16.650   2.554  13.686 -0.0762 -0.0240 -0.0519
21831W        W37300   2.451  18.127   2.307  0.0301 -0.0297 -0.2804
21832W        W37301   3.220  18.243   0.962  0.0932  0.0565  0.1724
21833W        W37302  13.130  12.632  10.096  0.0679  0.0350  0.3703
21834W        W37303   1.073   9.900  12.426 -0.1633  0.0665  0.1184
21835W        W37304  13.398  11.201   5.449  0.1635 -0.3012  0.1570
21836W        W37305  16.329   3.167   0.503 -0.0183 -0.0556  0.1483
21837W        W37306  18.189  14.348   0.608 -0.0582  0.0484 -0.0641
21838W        W37307  18.220   2.837   1.319  0.0731  0.0481 -0.1419
21839W        W37308  11.502   6.480  15.287 -0.1806 -0.0984 -0.0446
21840W        W37309  14.011   5.237  10.139 -0.2203 -0.0027 -0.1314
21841W        W37310  14.878   9.926  10.320 -0.0151 -0.2082  0.1597
21842W        W37311   6.977  12.700  13.542  0.1382  0.0038  0.1081
21843W        W37312  13.548   8.560  14.970 -0.1674 -0.0615 -0.2520
21844W        W37313  14.748  16.827   3.912 -0.1817  0.0124  0.1114
21845W        W37314   9.192   1.914   3.761  0.4797 -0.2143  0.1266
21846W        W37315  13.387   3.605   2.865  0.0411 -0.0843  0.1317
21847W        W37316  11.527  11.823  11.042  0.0297 -0.0887  0.1135
21848W        W37317   7.540   7.123   5.038  0.3291  0.0564 -0.0576
21849W        W37318   0.037  10.752  15.295  0.0150  0.0133 -0.1153
21850W        W37319  15.798  12.236   1.298  0.0126 -0.1592 -0.2080
21851W        W37320  16.086   2.184   1.335  0.1817  0.1993 -0.0441
21852W        W37321  11.144   3.771   3.174  0.3137  0.1426  0.1733
21853W        W37322  13.959   1.171   3.922  0.1076  0.1273 -0.0952
21854W        W37323   2.626  10.005  15.866  0.1874  0.0643 -0.0233
21855W        W37324  16.301   0.155  15.776 -0.3227  0.3090  0.1936
21856W        W37325   3.251   4.932  12.638 -0.2009  0.2822 -0.2222
21857W        W37326  16.162  17.020  11.889  0.3524 -0.1385  0.1827
21858W        W37327  12.269  10.485   1.248  0.2250  0.4165  0.1995
21859W        W37328  12.363  10.217   0.404  0.2469  0.1894 -0.1317
21860W        W37329  18.248   0.143   0.861 -0.1240 -0.0806 -0.0252
21861W        W37330   4.239  17.013  14.218 -0.2157 -0.5963 -0.0794
21862W        W37331  16.582  14.914  13.529 -0.1815  0.3323  0.0699
21863W        W37332   2.668   8.915  11.724 -0.1961  0.5000 -0.1202
21864W        W37333  13.238  15.176  11.313 -0.0287 -0.2983  0.1893
21865W        W37334   1.427  15.505  14.947  0.5150 -0.1735  0.2609
21866W        W37335   4.640   9.981   5.125 -0.0290 -0.0448  0.1930
21867W        W37336  11.126  15.563  13.809  0.0159 -0.1161  0.1721
21868W        W37337  17.657  14.626  13.386  0.1752 -0.2012 -0.1181
21869W        W37338   6.635   5.837   0.990  0.3007  0.0310 -0.1974
21870W        W37339  14.986   1.100  10.811 -0.4359 -0.3565 -0.0514
21871W        W37340  12.248  13.582   0.201  0.1524 -0.0337 -0.0187
21872W        W37341  16.604   2.786  14.150 -0.0175  0.2083  0.1481
21873W        W37342   4.091   2.234   0.208  0.0325  0.2842  0.0476
21874W        W37343  14.970  15.278   3.941 -0.1043  0.1418 -0.0252
21875W        W37344  13.667   0.714   4.223  0.1928 -0.0757 -0.1775
21876W        W37345   8.866  10.578  12.924  0.1629  0.0409  0.1365
21877W        W37346  11.117   2.335   2.355 -0.0623 -0.0221 -0.0249
21878W        W37347  13.599   5.602   1.143  0.2675 -0.1524  0.1348
21879W        W37348   3.358   0.434   5.644 -0.0219 -0.3483 -0.1717
21880W        W37349   7.546  12.769   3.316 -0.1355  0.3509 -0.0074
21881W        W37350  11.042  16.842  15.047 -0.2718  0.0520 -0.2335
21882W        W37351  12.611   5.480   0.723  0.0500  0.1736 -0.1047
21883W        W37352  10.498   2.229   2.181  0.4908  0.2854 -0.0884
21884W        W37353   0.278   0.654   4.655  0.2999 -0.2277  0.1231
21885W        W37354   8.781   9.607   2.449 -0.0807 -0.0382  0.1361
21886W        W37355   6.355   3.582  14.235  0.2967 -0.0949  0.1476
21887W        W37356  16.680   6.254  11.080 -0.2040 -0.2312 -0.1236
21888W        W37357   4.726   6.278  11.669  0.0142 -0.2893  0.1785
21889W        W37358  13.682  14.443  13.044  0.1060  0.3338  0.1663
21890W        W37359  12.224  18.016  11.823  0.1963  0.0230 -0.0006
21891W        W37360  13.329  11.811  10.923  0.0355 -0.0551 -0.0097
21892W        W37361   6.776  10.868  12.506 -0.1024  0.4569 -0.0451
21893W        W37362  14.491  11.055  15.006 -0.3351  0.2698 -0.0692
21894W        W37363   7.802  12.563  11.716  0.1232 -0.1996 -0.1198
21895W        W37364  17.434   0.214  11.893  0.0700 -0.1945  0.0147
21896W        W37365  12.250   7.124   1.096 -0.1059  0.0676 -0.0282
21897W        W37366   9.844   3.161  13.384  0.0260  0.3592  0.1011
21898W        W37367  10.050  10.117  11.811 -0.0466  0.0606 -0.1145
21899W        W37368   6.676   1.381  15.171 -0.0113 -0.0614 -0.2089
21900W        W37369   5.046   8.201  12.937  0.3565 -0.1827  0.0611
21901W        W37370  15.675   5.713   0.847 -0.2183  0.3058 -0.2688
21902W        W37371   4.968   9.541   1.321 -0.1660  0.1320 -0.1310
21903W        W37372  14.682   9.134  12.517  0.1061 -0.2998 -0.1769
21904W        W37373   2.553   9.125   4.088 -0.0720 -0.1526  0.1769
21905W        W37374   5.591  17.529  14.122  0.1216  0.0014  0.0226
21906W        W37375   0.488  15.348   2.992 -0.0943  0.4885 -0.1747
21907W        W37376  13.155  13.578   0.839  0.1620 -0.1776 -0.1200
21908W        W37377   1.860   8.556   0.454 -0.1255  0.1074 -0.2591
21909W        W37378   6.744   2.435  12.839  0.0279 -0.1429 -0.3212
21910W        W37379  10.575   3.723  13.099 -0.0219  0.0010  0.1847
21911W        W37380   2.956   1.137   3.775 -0.2381 -0.2556 -0.1800
21912W        W37381   5.247  18.251   5.462  0.1626 -0.1012  0.3955
21913W        W37382  13.993   4.213  15.037  0.1051  0.1237 -0.0960
21914W        W37383   1.493  11.690   4.447  0.0945 -0.0248  0.0700
21915W        W37384   9.714  16.044   1.744  0.0266 -0.0572  0.1396
21916W        W37385   4.178   0.279   1.927  0.0093 -0.2340 -0.0608
21917W        W37386  16.739   5.179  12.658 -0.0405 -0.0592 -0.2037
21918W        W37387   2.990  17.511   3.950  0.0887  0.0048 -0.1249
21919W        W37388   8.522   8.326   0.399  0.2377  0.0010  0.0165
21920W        W37389   4.730  12.835  14.541  0.3641 -0.0592  0.0723
21921W        W37390  11.154  12.769   0.549  0.1126  0.0238 -0.2155
21922W        W37391  16.115   1.529  14.687  0.0674 -0.3882  0.2852
21923W        W37392   6.030   0.504   2.150 -0.2027 -0.4500 -0.1081
21924W        W37393   3.659   3.501   3.166 -0.0978 -0.1433 -0.0934
21925W        W37394  17.995   3.059   4.212 -0.0448  0.4643  0.1394
21926W        W37395   2.007  13.902   5.063  0.1760 -0.0456  0.0742
21927W        W37396   0.238  10.437  14.337 -0.0786 -0.4344  0.0445
21928W        W37397   5.048   5.876   0.500  0.3005 -0.1078  0.2668
21929W        W37398   2.670  18.038   5.498  0.1399  0.1799 -0.0285
21930W        W37399   3.375  11.289  15.185 -0.2004 -0.1763  0.0767
21931W        W37400   6.518   4.504   5.348 -0.2855 -0.0174 -0.0151
21932W        W37401  12.605  13.003   5.862 -0.0383  0.2136  0.1883
21933W        W37402   2.936   0.348  12.406 -0.0127  0.3527 -0.1822
21934W        W37403   6.031  10.110   1.450  0.3825 -0.0062 -0.0896
21935W        W37404  18.452   2.238  13.070 -0.0029  0.4120  0.1450
21936W        W37405   5.933  12.051  14.763 -0.2043  0.0234 -0.1385
21937W        W37406   4.477  12.027  12.521 -0.0293  0.1110 -0.1994
21938W        W37407  11.226   1.738  13.281 -0.0833 -0.1675  0.3317
21939W        W37408  11.150  14.440   2.375 -0.3501  0.2771 -0.1297
21940W        W37409   1.618  16.485  12.010  0.2024  0.0127  0.2778
21941W        W37410   0.641  13.228   3.767 -0.1573 -0.2903 -0.1215
21942W        W37411  15.084  16.970  12.687  0.2632  0.0668  0.0995
21943W        W37412   1.100  18.458   0.446 -0.2014  0.2017 -0.2946
21944W        W37413   7.602   1.329  14.178 -0.0477  0.0816  0.1772
21945W        W37414  13.124   3.267  15.356  0.0102 -0.0681  0.0147
21946W        W37415   5.007  16.193   0.728  0.0361 -0.2272  0.2710
21947W        W37416   1.473  17.548   2.936  0.0930  0.2039 -0.0338
21948W        W37417  12.444  12.252   3.399  0.1924  0.0017  0.0021
21949W        W37418  15.166   9.107  14.842 -0.3146 -0.2083 -0.3016
21950W        W37419   0.016   1.290  11.554  0.3241 -0.1650  0.0345
21951W        W37420   3.946   5.187  12.276  0.2470  0.0823 -0.1422
21952W        W37421   5.018   2.472   3.575  0.3380 -0.1225  0.2433
21953W        W37422  14.899  12.690  15.655  0.0674  0.0620 -0.1549
21954W        W37423  13.731  10.492  11.720  0.1381 -0.2968 -0.0146
21955W        W37424  17.533   2.686   1.549 -0.1393 -0.1361  0.4386
21956W        W37425  11.436   5.025   3.762  0.0912 -0.0671 -0.2163
21957W        W37426   2.344  15.710  11.209  0.1920  0.1165  0.1207
21958W        W37427   0.306  15.407   9.731 -0.0275 -0.1494 -0.1327
21959W        W37428  10.082  13.763   2.285  0.1703  0.0801  0.0773
21960W        W37429   3.505   9.796   4.990  0.0991 -0.0482 -0.3882
21961W        W37430   4.119  12.169   4.459 -0.2178  0.0525  0.0421
21962W        W37431  11.397  11.138   0.414 -0.1294  0.1392  0.2068
21963W        W37432   6.223  12.816  10.143  0.1177 -0.0199 -0.0046
21964W        W37433   4.998  16.701  12.705 -0.1691 -0.0505  0.3769
21965W        W37434   5.478   6.742  15.248 -0.0812  0.3413  0.1293
21966W        W37435  18.293   9.204  14.223 -0.5197  0.2413 -0.0673
21967W        W37436   8.682   2.631   3.930  0.0532 -0.0998 -0.1598
21968W        W37437   2.605   1.083  13.381 -0.2701 -0.0548  0.3331
21969W        W37438  10.349  18.161  14.384  0.0133  0.1249  0.2525
21970W        W37439   3.315  13.556  13.188  0.1635 -0.1104  0.0699
21971W        W37440  12.882   5.911   0.809 -0.0632  0.1242  0.2102
21972W        W37441  15.365   9.479   4.910  0.2644 -0.1943 -0.0317
21973W        W37442  10.580  16.579  14.760 -0.3952  0.0293 -0.0583
21974W        W37443   7.452  14.069   6.129  0.2536  0.2328  0.4893
21975W        W37444   5.092   8.645   0.380  0.0681  0.2145 -0.0357
21976W        W37445  14.254  11.981   1.183  0.0395  0.1345 -0.1318
21977W        W37446   1.019  16.704   5.250 -0.1805  0.1166 -0.1973
21978W        W37447   1.785   6.798   5.244 -0.3706 -0.1257  0.1374
21979W        W37448  10.792   2.665   2.433  0.1627 -0.0069 -0.1900
21980W        W37449  14.266  10.131   0.209 -0.2671  0.0309  0.0611
21981W        W37450   4.427  12.776   1.061 -0.2312  0.0102 -0.2576
21982W        W37451  13.003   6.069   3.051  0.1632 -0.1078 -0.1957
21983W        W37452  11.266   8.424   4.213  0.0381  0.2171 -0.0743
21984W        W37453   1.205  15.296  15.530  0.2121 -0.0301  0.0194
21985W        W37454   2.270   3.489  14.797  0.0003 -0.3904 -0.1249
21986W        W37455  17.405  15.846  13.548 -0.0548  0.1280  0.3295
21987W        W37456  18.330   9.488  10.207  0.1759 -0.1631  0.2243
21988W        W37457  12.624  12.401  10.862 -0.1516  0.1959 -0.1295
21989W        W37458  16.755  10.688   4.290  0.0797  0.2258  0.2019
21990W        W37459   2.730   1.254   2.866  0.1858 -0.2166 -0.1689
21991W        W37460  12.988  18.345  11.080 -0.1109  0.1303  0.2171
21992W        W37461   0.494  16.717   4.101 -0.1059  0.1209 -0.2547
21993W        W37462   6.173  13.556  11.722 -0.3696  0.2052 -0.0310
21994W        W37463   3.805   1.678   1.809  0.3045  0.3448  0.0527
21995W        W37464  11.424   0.599  12.658  0.3663 -0.2429  0.0070
21996W        W37465   5.845   0.500   3.485  0.2247 -0.0635 -0.0672
21997W        W37466  13.014   2.344  12.546 -0.0230 -0.1023 -0.1196
21998W        W37467   8.450   9.975  10.965 -0.0722  0.1312 -0.1673
21999W        W37468   9.572  10.273   5.311 -0.0587 -0.2991  0.1351
22000W        W37469   1.934   2.185  12.708 -0.0673  0.1713  0.2442
22001W        W37470   5.677   5.121   4.481  0.0207 -0.1849  0.2794
22002W        W37471  11.127  17.166   3.352  0.0861 -0.1171 -0.0526
22003W        W37472   4.596   9.886   9.825 -0.0389  0.2087  0.0139
22004W        W37473  12.859   2.780   4.652  0.2360  0.0462 -0.2434
22005W        W37474   0.784   1.445  12.497  0.1366 -0.1005  0.5478
22006W        W37475  11.794   1.566   1.858  0.1136  0.1406  0.1240
22007W        W37476   6.115  13.685  13.596  0.1662  0.1965 -0.0936
22008W        W37477   0.896  15.320  11.552 -0.0828 -0.3855  0.1998
22009W        W37478   6.561  12.471   0.053  0.1034  0.0553  0.0257
22010W        W37479   9.057   8.071  10.447 -0.0858  0.0180 -0.1575
22011W        W37480  12.205  12.708  10.286  0.0348 -0.0493  0.0963
22012W        W37481   4.681   5.066   0.665  0.2795 -0.1979 -0.1896
22013W        W37482  10.428  16.232   5.145 -0.0291 -0.1939  0.4543
22014W        W37483   3.973   9.401  12.635 -0.2800  0.0382  0.0415
22015W        W37484  15.753  16.407  13.237  0.1316 -0.0393 -0.1016
22016W        W37485  18.348   3.698  12.198 -0.0362 -0.2789 -0.2217
22017W        W37486  12.154   2.458  15.149 -0.1340  0.2854  0.1535
22018W        W37487  13.896  13.871  11.811 -0.3435  0.0036 -0.0080
22019W        W37488   3.472  14.655   2.096 -0.2162  0.1239 -0.3848
22020W        W37489   2.135   2.876  15.643 -0.0768 -0.1591  0.0814
22021W        W37490   0.868  18.277  10.544 -0.1868  0.3014  0.0015
22022W        W37491   1.553   6.737   0.993 -0.0692 -0.1403  0.0855
22023W        W37492  17.592  12.376  10.870 -0.0743 -0.4256  0.1168
22024W        W37493   2.271   3.142   1.898 -0.0024 -0.1258  0.0632
22025W        W37494   5.257  12.623  12.762  0.1791  0.0248  0.0742
22026W        W37495  12.400  11.755   2.640  0.2447  0.3484 -0.0086
22027W        W37496   0.410   0.133   5.328 -0.0522  0.2414  0.1308
22028W        W37497   4.230  16.286  13.453  0.1799  0.1970  0.0347
22029W        W37498   4.735   5.679  12.581 -0.1825 -0.0497  0.0878
22030W        W37499   2.241  16.630  12.162 -0.2071 -0.2737  0.0335
22031W        W37500  11.044  12.287   0.751  0.2412  0.1342 -0.0824
22032W        W37501  15.621   1.097   0.797  0.2124  0.0408  0.0714
22033W        W37502  11.109   2.249  12.362  0.0703  0.1589  0.1368
22034W        W37503  13.666   5.691  12.888  0.3612 -0.0261 -0.2382
22035W        W37504  10.700   1.254   0.178 -0.4338  0.1132  0.1233
22036W        W37505   8.116   4.323   3.605  0.0478 -0.0741  0.0319
22037W        W37506   6.453   3.143  13.884  0.0448 -0.1264 -0.1650
22038W        W37507  17.259   0.417  10.218  0.2651  0.1086  0.0617
22039W        W37508  10.787   5.908  13.997  0.1950  0.0400  0.2305
22040W        W37509   3.937   1.550  10.860 -0.0928  0.0367 -0.1126
22041W        W37510   9.737   3.065   4.821 -0.0070  0.0949 -0.0016
22042W        W37511  15.801  11.355  13.738 -0.4725  0.0915 -0.0929
22043W        W37512   7.281  12.027  13.081 -0.0538  0.0339 -0.3010
22044W        W37513   5.617   7.700  11.011  0.2729  0.1166 -0.2056
22045W        W37514  15.184  14.627   1.225 -0.3084 -0.1457 -0.0438
22046W        W37515  18.123  12.868   3.042  0.2577 -0.1866 -0.4248
22047W        W37516   2.992  16.797  15.665 -0.2740  0.1241  0.0988
22048W        W37517  17.465   5.950  11.119 -0.0389  0.1294 -0.3310
22049W        W37518   4.748  14.603   2.008 -0.0536  0.0789 -0.2610
22050W        W37519  10.804   8.734  11.451  0.0004 -0.0025  0.1626
22051W        W37520  18.065   4.080  11.132 -0.2228 -0.0329 -0.0014
22052W        W37521   9.263   4.764  10.177  0.1201 -0.1329  0.0794
22053W        W37522  14.991  12.081   3.419 -0.0964 -0.0651 -0.0389
22054W        W37523   1.239   3.738   1.828  0.0091  0.0107  0.1766
22055W        W37524  18.434   1.441   0.846  0.1118 -0.1314 -0.0524
22056W        W37525   4.887   1.524  15.442  0.1340  0.2516  0.1157
22057W        W37526  15.603   9.306   4.100 -0.1366  0.0675 -0.0282
22058W        W37527   8.370   9.799   9.899 -0.2781 -0.0735 -0.0770
22059W        W37528   4.396  12.161   2.703  0.0169 -0.0234  0.0630
22060W        W37529   2.148  17.204  11.998 -0.0358  0.0473  0.3843
22061W        W37530   0.581   5.532   5.251  0.0189  0.0254  0.0052
22062W        W37531   6.455  11.175  11.970  0.0261 -0.0723 -0.2621
22063W        W37532  17.765  16.046   3.871  0.1618  0.0494 -0.0535
22064W        W37533   0.512   3.374  14.459 -0.0712 -0.2649 -0.0643
22065W        W37534  11.355  18.207  14.770  0.0197  0.3471  0.1104
22066W        W37535   0.846   5.906   3.925  0.0527  0.1085  0.0666
22067W        W37536  16.550   5.818  11.320 -0.1774 -0.1051 -0.0112
22068W        W37537  16.369   0.553   3.521  0.0551  0.1253  0.3778
22069W        W37538   0.415  18.160  12.769 -0.3490  0.0299 -0.4077
22070W        W37539   2.444   4.031   1.063 -0.1623 -0.0798 -0.2405
22071W        W37540  17.712   8.710   3.090  0.2131  0.1759  0.0686
22072W        W37541   4.390  13.693  12.061 -0.1201  0.0705 -0.1372
22073W        W37542   6.500   1.622  11.680  0.0186  0.0240 -0.3090
22074W        W37543  12.514  14.852  13.459  0.0862 -0.1413 -0.0553
22075W        W37544  13.342   7.237   4.888  0.0087 -0.0813  0.1982
22076W        W37545   7.114   1.419  15.534 -0.1569 -0.0330  0.2127
22077W        W37546   6.631  16.942   5.809 -0.1400 -0.0845  0.1776
22078W        W37547   6.175   0.356  11.647 -0.0419 -0.0228  0.2108
22079W        W37548  15.905   4.895  13.302  0.3560 -0.1706  0.1933
22080W        W37549   4.253  11.389   5.072  0.2270  0.0542  0.0352
22081W        W37550  14.375  16.644  12.917 -0.0294  0.3093 -0.0353
22082W        W37551  18.034  15.299   0.502 -0.1131 -0.0454 -0.1091
22083W        W37552   0.672  12.692   2.950  0.0375  0.1682 -0.2233
22084W        W37553   0.367  17.067   0.061  0.0712  0.2310 -0.5967
22085W        W37554   0.550   0.998   3.898  0.2669 -0.3089 -0.2263
22086W        W37555   5.233  13.402   2.478 -0.1233 -0.0309 -0.1164
22087W        W37556   2.233  17.621   4.524 -0.2804  0.0097 -0.0673
22088W        W37557   4.641  11.222  12.930  0.1863  0.0623  0.2957
22089W        W37558   9.590   6.161   3.746  0.0062 -0.0796  0.0537
22090W        W37559  14.751  11.448   4.019 -0.4173 -0.2027  0.0749
22091W        W37560  13.565   5.619  15.353  0.2109  0.1908 -0.1315
22092W        W37561   0.244   2.312  13.961  0.1292 -0.0868  0.0021
22093W        W37562  13.515  12.101   1.942  0.0417 -0.0165 -0.0194
22094W        W37563   2.772  15.855  11.641  0.0158 -0.0638 -0.3109
22095W        W37564  13.253   6.394   3.319 -0.0200 -0.2163 -0.1241
22096W        W37565   2.645   6.405  13.133  0.1931 -0.1105  0.1196
22097W        W37566   2.741   2.130  11.156 -0.1146  0.1460  0.2674
22098W        W37567  11.933   1.431   4.844 -0.1042  0.1087  0.0611
22099W        W37568  17.567  17.137  15.471  0.0660 -0.0254  0.3173
22100W        W37569  17.018  13.757  13.040  0.3798  0.1510  0.1289
22101W        W37570   9.126   9.336  11.732  0.0654  0.0469 -0.0718
22102W        W37571   8.231   1.100  15.404  0.0491 -0.1923  0.1476
22103W        W37572   3.565   0.317   1.184  0.0899 -0.0771  0.0366
22104W        W37573  10.280   9.981   4.617 -0.0738 -0.2021  0.2057
22105W        W37574   1.458   1.512  13.881 -0.0250  0.0087  0.0897
22106W        W37575   3.742   2.475   0.521  0.5218  0.1210 -0.0837
22107W        W37576  17.404   9.578  14.363 -0.3254  0.1122 -0.1189
22108W        W37577   6.574  10.953  11.565  0.2849 -0.0529 -0.0382
22109W        W37578  15.714  13.015   1.084  0.0047  0.0383  0.1176
22110W        W37579  12.011  15.782   2.792 -0.0407 -0.1390  0.4326
22111W        W37580  17.152   5.261  12.358  0.3228  0.2445 -0.3351
22112W        W37581   7.802  16.794  11.120  0.1661 -0.0032  0.4177
22113W        W37582   6.141   9.334   5.347 -0.2847 -0.0739  0.0607
22114W        W37583   6.080  11.674  11.147 -0.0506  0.0128  0.3998
22115W        W37584   8.450   7.854  11.177 -0.3031 -0.0762 -0.0830
22116W        W37585  14.318  12.518  13.927  0.1812  0.0352 -0.3941
22117W        W37586  12.873   1.685   1.208  0.0033 -0.0521  0.2977
22118W        W37587   1.116  13.275  10.143 -0.0478  0.1735  0.1697
22119W        W37588   1.320  16.013   5.118  0.3826 -0.1737  0.0971
22120W        W37589   7.698  12.766  13.035 -0.0287 -0.1237  0.0298
22121W        W37590  12.203   7.212   4.334 -0.1720  0.1353  0.4582
22122W        W37591   4.190  10.415   3.365  0.0067 -0.0402  0.1296
22123W        W37592   4.337   9.696  13.233  0.4468 -0.3230 -0.1915
22124W        W37593  11.807  18.433  14.590  0.4656  0.0641 -0.1803
22125W        W37594   1.346  13.822  11.762 -0.0896  0.0379 -0.0458
22126W        W37595  18.381  11.693  13.195 -0.0642 -0.1753 -0.0526
22127W        W37596  14.520   1.904  13.556  0.1086  0.1293  0.2587
22128W        W37597  17.041  13.896   4.419  0.1962  0.4919  0.1009
22129W        W37598   7.977   0.461   4.918 -0.2717 -0.0444  0.1983
22130W        W37599   7.039  14.593  12.781  0.1429  0.2712  0.3460
22131W        W37600   4.813   4.931   3.339  0.0375  0.0113  0.1625
22132W        W37601   5.176  14.160   3.863  0.3553  0.1054  0.0064
22133W        W37602   5.204  11.227  11.581 -0.1059  0.0068 -0.1688
22134W        W37603  16.769  16.847   1.694  0.0549 -0.0948  0.0885
22135W        W37604   8.266   2.306   4.130  0.0028  0.0603  0.1157
22136W        W37605   9.236  16.461  13.096 -0.0597 -0.3554  0.2325
22137W        W37606   4.066   0.534   4.426 -0.0073  0.1573 -0.1378
22138W        W37607  15.238  16.548   1.291 -0.1587  0.3121 -0.2388
22139W        W37608  12.546  12.943   4.176  0.1324 -0.1631 -0.5182
22140W        W37609   9.013   9.885   5.486  0.0087 -0.1077  0.0380
22141W        W37610  14.230   2.122  15.197  0.0076  0.3271 -0.2099
22142W        W37611  12.762   8.631   1.664 -0.1846 -0.1776  0.0756
22143W        W37612  11.964  14.295   5.658 -0.2516 -0.3843 -0.0784
22144W        W37613   5.900  16.196  14.509 -0.1181 -0.0634 -0.2445
22145W        W37614   2.278  17.378   5.352 -0.1352 -0.0345  0.3026
22146W        W37615   1.521   8.220  11.054 -0.0776  0.4131 -0.0441
22147W        W37616  13.131  13.850  13.742  0.0198  0.0006  0.2226
22148W        W37617  17.207  18.188   2.409 -0.1408  0.4139  0.0159
22149W        W37618  16.470  12.904  14.168 -0.1420 -0.1178 -0.0358
22150W        W37619  11.642  11.249   1.509  0.0549 -0.3148  0.1328
22151W        W37620   7.952   9.500  12.216 -0.0874 -0.1521 -0.0612
22152W        W37621  14.962   4.563  10.699  0.0077  0.2420 -0.3147
22153W        W37622  15.516   2.506  12.397 -0.1393  0.0408 -0.0796
22154W        W37623  12.903  13.732   3.789  0.1182  0.0335  0.1118
22155W        W37624   4.373   9.470  13.897 -0.2305 -0.1767 -0.0080
22156W        W37625  10.693   1.432   1.051 -0.0170 -0.1059  0.0336
22157W        W37626   1.015   7.572  10.622  0.0993  0.0565  0.2109
22158W        W37627   2.366  13.059   4.531 -0.0948  0.4826  0.1831
22159W        W37628   2.253   1.294  10.998 -0.0206  0.2722 -0.0109
22160W        W37629  15.423  12.114   0.877  0.0558 -0.1737  0.2294
22161W        W37630   5.749  16.734  15.847  0.1357 -0.3790 -0.1132
22162W        W37631   0.298  10.404  12.881  0.0750  0.0975 -0.1251
22163W        W37632   4.068   7.839  12.494 -0.2015 -0.1714  0.1092
22164W        W37633   6.141   4.394   5.619 -0.0279 -0.0832  0.2071
22165W        W37634  16.936   3.244  11.148  0.1124 -0.1704 -0.1107
22166W        W37635  15.924  10.942   4.572  0.2029 -0.0064 -0.0225
22167W        W37636   7.058  12.095  14.601 -0.0135  0.0041 -0.1389
22168W        W37637   3.938   6.642  12.070  0.2645  0.1303  0.1471
22169W        W37638  14.706   9.553  12.829  0.2025 -0.3031 -0.1313
22170W        W37639   1.977  12.740   3.486  0.0522  0.0723  0.0438
22171W        W37640   8.514  13.964  12.079  0.1805 -0.0806 -0.1249
22172W        W37641  16.809   1.660   2.207  0.1881  0.0415  0.0089
22173W        W37642  16.259   8.066   5.308 -0.3403  0.1960 -0.1874
22174W        W37643   4.786   0.747  14.166  0.0823 -0.2110  0.1400
22175W        W37644  14.364   9.022   4.669 -0.1082  0.3041 -0.0197
22176W        W37645  18.456   4.131   2.880  0.1313 -0.0523  0.0297
22177W        W37646   3.787   2.024   0.822  0.0335 -0.1351 -0.0421
22178W        W37647   9.831   1.855   4.551 -0.1825 -0.0905 -0.1745
22179W        W37648   2.145   4.043   3.685  0.1607  0.0260 -0.0394
22180W        W37649  14.526  18.456   4.078 -0.1402  0.1261  0.0099
22181W        W37650  18.369   6.382  11.481 -0.0458  0.1187  0.0631
22182W        W37651  17.965  17.549   0.508  0.0130  0.1495  0.0105
22183W        W37652   8.291  18.081   1.787  0.2863 -0.2352 -0.0829
22184W        W37653   3.666  18.005  12.117  0.2067  0.0013  0.3163
22185W        W37654   0.383  17.472   4.940  0.0634 -0.0612 -0.3082
22186W        W37655  16.224  11.768  11.421  0.2868 -0.1876  0.2882
22187W        W37656  15.828  16.520   4.543  0.0264 -0.1394 -0.0093
22188W        W37657   5.595   6.725  13.810  0.2947 -0.2922 -0.1160
22189W        W37658   0.141  17.878  13.552  0.1647  0.0768  0.0684
22190W        W37659   8.258   7.403  11.282  0.1850 -0.4978  0.0489
22191W        W37660  12.476   6.649   0.350 -0.0687  0.0415 -0.0256
22192W        W37661   7.608  17.051  14.953  0.2137  0.0788  0.0459
22193W        W37662  11.750  11.394   9.830 -0.0686 -0.1519 -0.2259
22194W        W37663  11.694   4.357  12.490  0.1277 -0.5247 -0.1438
22195W        W37664   3.519   5.201  11.471  0.0647  0.0672 -0.1768
22196W        W37665   1.830   1.094  13.770  0.6233  0.2052 -0.1539
22197W        W37666   7.230   9.880   0.130 -0.2033 -0.1010  0.1192
22198W        W37667  14.262   6.808  13.855  0.2280  0.1853 -0.1905
22199W        W37668  10.316  16.683   0.338 -0.0624 -0.1178  0.2073
22200W        W37669  14.003  13.761   3.115 -0.0302  0.1351  0.1881
22201W        W37670  16.262  11.186  15.048  0.0660  0.0681  0.2271
22202W        W37671  11.552  13.820  15.467 -0.4332 -0.2793  0.1545
22203W        W37672  13.698   6.369   1.006  0.2578 -0.0155 -0.1412
22204W        W37673   4.386   5.536  14.798 -0.0936  0.1126 -0.0232
22205W        W37674  16.468   3.533  12.400  0.0320 -0.0951  0.2697
22206W        W37675  12.647   0.082   3.772  0.0417  0.1610  0.0764
22207W        W37676  15.967  17.212   4.455  0.0119 -0.0549  0.0658
22208W        W37677   6.792  14.893   3.125 -0.1462  0.1097  0.0326
22209W        W37678   8.029   9.210   4.761  0.3239  0.1098 -0.1112
22210W        W37679  18.087   9.427   0.697  0.0841  0.2238 -0.0758
22211W        W37680  15.356   5.027   2.942 -0.1700  0.1011  0.1952
22212W        W37681  14.477  17.811   4.707 -0.3852 -0.0152 -0.0416
22213W        W37682  17.661   3.299  15.079 -0.0866  0.2852 -0.1032
22214W        W37683   5.380  18.263   3.269  0.3682 -0.0629 -0.1768
22215W        W37684  16.215   1.306  12.553  0.2515 -0.2788 -0.1882
22216W        W37685   7.840   7.735  13.095  0.2062  0.1908  0.2165
22217W        W37686  12.113   3.276  12.505  0.2440  0.0526  0.1137
22218W        W37687   2.015   3.136  14.037  0.1591 -0.2797  0.0591
22219W        W37688   3.926  14.885  14.924 -0.0590 -0.3212  0.1358
22220W        W37689   9.655   4.999  10.405 -0.0743 -0.1775 -0.3143
22221W        W37690  14.326  12.940   0.209  0.0750 -0.0798 -0.0906
22222W        W37691  14.139   3.358  12.908  0.1436 -0.0264 -0.0239
22223W        W37692  11.001  10.600   1.153  0.2374 -0.0376 -0.1316
22224W        W37693   9.586   2.652  13.210  0.0112  0.0056  0.3988
22225W        W37694   7.754  15.486  14.728  0.3552 -0.0890  0.1073
22226W        W37695  11.482   0.284   4.406 -0.1132  0.2412 -0.3143
22227W        W37696   9.742   2.330   5.307  0.0078  0.0524  0.0144
22228W        W37697  17.659   9.128  13.276 -0.1173 -0.0228 -0.0516
22229W        W37698  14.220   0.398  12.573  0.0466  0.1192 -0.0967
22230W        W37699   0.772   6.268   0.540  0.3176 -0.0304  0.3341
22231W        W37700   8.934   4.276   0.468 -0.0867 -0.1505  0.2922
22232W        W37701  15.488   2.710   4.683 -0.1141 -0.4312 -0.0692
22233W        W37702  13.282   9.991   2.199  0.4847 -0.1347  0.3571
22234W        W37703   8.717   9.178  12.588 -0.0221  0.1324  0.2711
22235W        W37704   1.947   0.316   2.467  0.1089 -0.0812 -0.0370
22236W        W37705   3.906  10.988  13.878  0.3058  0.5262  0.1473
22237W        W37706   5.948   2.425   2.247 -0.0272 -0.0251 -0.0358
22238W        W37707   4.954  14.783  15.055  0.2176  0.4466 -0.0621
22239W        W37708   3.646  13.201  13.490  0.3741 -0.2100 -0.2006
22240W        W37709   0.993  12.736   4.818 -0.2357 -0.0062  0.2484
22241W        W37710   1.665   5.700  12.758 -0.1948 -0.2564  0.0924
22242W        W37711  18.470  15.245  12.800  0.1785 -0.0462  0.0760
22243W        W37712   2.603   2.576  10.903  0.0294 -0.0078 -0.1232
22244W        W37713   7.862   2.715  13.400 -0.0339 -0.0365 -0.4063
22245W        W37714   4.243   3.267   0.972  0.2287 -0.3358 -0.1058
22246W        W37715   3.425  12.072   3.674  0.2535 -0.0836  0.0606
22247W        W37716  11.284   8.506  11.564  0.2096 -0.1366  0.4226
22248W        W37717   3.643  17.028   3.194  0.2693  0.2221  0.1547
22249W        W37718   2.375  13.759  15.654 -0.2745  0.1013  0.1287
22250W        W37719   2.800   3.992   0.062  0.4876 -0.1154 -0.1143
22251W        W37720  12.611   0.612   1.358  0.1676 -0.1824  0.0722
22252W        W37721  17.381   5.215  13.372 -0.0299 -0.2593 -0.1733
22253W        W37722  14.721   9.058   5.535 -0.1985 -0.3057 -0.0327
22254W        W37723  10.738   4.736  11.310  0.2491 -0.1184 -0.2092
22255W        W37724  16.925  14.007   3.250 -0.1279 -0.0958  0.0129
22256W        W37725   2.269   6.163  11.625  0.1281 -0.1618  0.1165
22257W        W37726   1.906  13.061  15.251 -0.0047 -0.1580 -0.0073
22258W        W37727   4.486   5.706  15.269 -0.0073 -0.3142  0.2922
22259W        W37728   2.899  14.292  11.024 -0.2023  0.0663  0.0764
22260W        W37729  11.936  16.462   0.148  0.0261  0.0898 -0.1190
22261W        W37730  15.870   2.249  14.867  0.3252 -0.2267  0.1445
22262W        W37731   9.838   5.663   0.761 -0.0981 -0.1450 -0.1059
22263W        W37732   4.967  14.772  15.592  0.1752 -0.1487  0.2027
22264W        W37733  13.430   6.648   0.343  0.1807  0.0127  0.0201
22265W        W37734  10.260   7.401  13.695  0.1028 -0.0186 -0.0301
22266W        W37735   5.374   1.898  12.986 -0.3236  0.0768 -0.2553
22267W        W37736   1.329   4.898   3.732 -0.1156  0.1208  0.1232
22268W        W37737   9.631   5.416  12.102  0.0318 -0.0121  0.1914
22269W        W37738  13.850   7.227   0.585 -0.3178 -0.0913 -0.1786
22270W        W37739   0.201  18.342  12.227 -0.1617  0.0390  0.0954
22271W        W37740   8.078  15.158  15.081  0.2496  0.0664  0.0327
22272W        W37741  13.247  11.054  10.819 -0.0504 -0.2861  0.2779
22273W        W37742  17.998   9.007  12.836  0.1668  0.0914  0.1284
22274W        W37743  18.157  18.307  12.301 -0.0810  0.2524 -0.4474
22275W        W37744  18.246   9.490  12.987 -0.0357  0.0539  0.5568
22276W        W37745   5.167   6.432  13.842  0.1849  0.0566  0.2657
22277W        W37746  15.369  16.300   9.878  0.0744  0.1950 -0.1039
22278W        W37747  17.019   8.596   2.705 -0.3653 -0.3453  0.0690
22279W        W37748   8.694  12.558   1.463  0.1506  0.0789 -0.0218
22280W        W37749   3.377  11.525   3.511 -0.0039 -0.4233  0.1688
22281W        W37750   0.358   4.940  13.102  0.1615  0.0795 -0.1175
22282W        W37751   5.235   2.664  13.380  0.1528 -0.2364 -0.0981
22283W        W37752  11.903   5.638   4.540  0.0723 -0.0485 -0.1010
22284W        W37753  12.744  18.013  11.708 -0.1537 -0.1611  0.0421
22285W        W37754   6.705   6.124  15.863 -0.1770  0.1680  0.5238
22286W        W37755   5.225  15.171  11.853 -0.1306  0.0637 -0.1164
22287W        W37756   8.416  10.295  13.200  0.1822  0.0346  0.0463
22288W        W37757   0.184   0.542   5.155 -0.0919 -0.1543 -0.2283
22289W        W37758   8.351  16.215  12.198  0.2676 -0.1222 -0.2375
22290W        W37759   3.319  13.341  15.696  0.1570 -0.1920  0.0573
22291W        W37760  14.209   3.256   2.733  0.1688 -0.0904  0.1974
22292W        W37761  18.085  17.281   2.010 -0.2421  0.0370 -0.3506
22293W        W37762   0.096   1.119   4.041  0.1389 -0.0027 -0.0786
22294W        W37763   7.651   9.701  13.159  0.3783 -0.1892 -0.3109
22295W        W37764  14.690  10.451   3.896 -0.0025 -0.0578 -0.2376
22296W        W37765  15.045   8.149   2.376  0.0447 -0.3679 -0.0165
22297W        W37766  18.372   7.223   4.540  0.0696 -0.1465  0.0677
22298W        W37767  11.396   1.003   4.345 -0.0401 -0.2040 -0.0924
22299W        W37768   7.628  17.812  13.663  0.0984  0.0923 -0.0890
22300W        W37769   5.979   6.507   1.772  0.0796  0.2688 -0.2171
22301W        W37770  11.376   7.127   0.117 -0.0836  0.2846 -0.2440
22302W        W37771  12.927  13.613   1.339 -0.0879 -0.0423 -0.0812
22303W        W37772   7.258   7.491  11.506  0.1648  0.2067  0.2559
22304W        W37773   7.578  17.319   2.570  0.2580 -0.1196  0.2603
22305W        W37774  10.083   4.655  13.602 -0.1353 -0.3362  0.2394
22306W        W37775  14.275   5.978  15.756 -0.1294 -0.0477  0.1615
22307W        W37776   3.775   0.347   0.513 -0.1740  0.2917  0.0114
22308W        W37777   6.895  11.259  14.281  0.1312 -0.0044  0.2405
22309W        W37778   1.927   6.000   0.398  0.0886  0.3176 -0.2614
22310W        W37779  11.001   6.882  13.022  0.1461 -0.1142 -0.1306
22311W        W37780  11.260   6.908  15.332 -0.0066  0.0364 -0.1551
22312W        W37781   8.790  10.760   3.461 -0.0225 -0.0206 -0.1319
22313W        W37782   6.753   2.468  11.503 -0.0036 -0.0502  0.0782
22314W        W37783   4.491   4.752   3.808  0.4367  0.2072  0.1263
22315W        W37784  14.362  13.917  12.848  0.1098  0.0790  0.0217
22316W        W37785   2.001  16.832   2.187  0.1636  0.0679  0.0368
22317W        W37786  12.286   6.427  15.374  0.2175  0.1323  0.0631
22318W        W37787  15.521  15.256  10.812  0.2352 -0.2299 -0.2650
22319W        W37788   1.858  15.445  14.043  0.1070 -0.0479 -0.1251
22320W        W37789   4.994   7.316  11.652  0.0942 -0.0654 -0.0232
22321W        W37790  13.039   5.070  11.522 -0.1232 -0.1163 -0.4589
22322W        W37791   2.484  13.696  10.886 -0.2200 -0.1710 -0.1323
22323W        W37792  14.065   6.757   4.407 -0.0324 -0.2065 -0.2421
22324W        W37793   7.334  15.368  11.522  0.1377 -0.1444  0.3028
22325W        W37794  11.732  16.254  12.084 -0.2443 -0.1346 -0.4771
22326W        W37795   9.787   2.341   1.474 -0.2036 -0.4440 -0.1894
22327W        W37796  14.679  11.708   1.226  0.0104 -0.0394  0.1491
22328W        W37797  10.403  18.090   0.655  0.0762  0.1751 -0.2309
22329W        W37798   8.285   5.979   2.413  0.0703 -0.1430 -0.0651
22330W        W37799  16.808  13.383  14.070 -0.1562  0.0494 -0.0490
22331W        W37800   3.785   5.691   6.483  0.1463 -0.4526 -0.2078
22332W        W37801  12.099  15.862   3.765  0.0151 -0.2045  0.2767
22333W        W37802   8.240   3.788   4.514  0.0956  0.0774 -0.2026
22334W        W37803   3.757  11.260  11.644  0.3426  0.2426  0.4514
22335W        W37804  12.338   6.358   4.411 -0.0357  0.1718  0.1350
22336W        W37805   8.332   4.096   1.069 -0.1214  0.2304 -0.0320
22337W        W37806  14.756  11.033  15.502 -0.3962 -0.1737  0.0874
22338W        W37807   4.438   6.453   1.621 -0.2730  0.1487 -0.1127
22339W        W37808   0.721   9.891  12.818 -0.1968 -0.0310  0.1711
22340W        W37809   5.502  11.981  15.444 -0.0921  0.4920  0.0051
22341W        W37810  10.976  13.389   5.212 -0.1867 -0.2131 -0.0868
22342W        W37811  13.790   9.807   3.304  0.2425  0.1122 -0.2941
22343W        W37812  13.261  17.386  13.963  0.1783 -0.0307  0.0783
22344W        W37813   8.896  11.072   3.823  0.2490 -0.2677 -0.0879
22345W        W37814  11.658   1.558  14.666  0.1027 -0.1160  0.0478
22346W        W37815   2.571   7.758   2.337  0.2763  0.3304  0.0329
22347W        W37816   4.308  15.354   1.542 -0.0722 -0.0282  0.0326
22348W        W37817  17.384   6.750   4.351  0.0228  0.4702  0.0790
22349W        W37818   2.180   7.195  13.865  0.1332  0.0897 -0.2576
22350W        W37819  17.849  17.332   2.514 -0.1861 -0.0584 -0.0125
22351W        W37820   1.142   2.268   3.938  0.1756 -0.3137  0.0553
22352W        W37821   7.131  16.879  15.033  0.2691  0.1540  0.3466
22353W        W37822  16.640  14.262   0.396 -0.0863  0.1151  0.0613
22354W        W37823   0.550   6.896  15.877 -0.0581 -0.0410 -0.0822
22355W        W37824  14.596  11.193  14.005 -0.0855  0.0243  0.2657
22356W        W37825   5.817   7.883  12.034  0.0309 -0.1200 -0.2587
22357W        W37826  16.399  17.379   4.176 -0.1265 -0.2775  0.1011
22358W        W37827   8.591  15.127  14.206  0.0554  0.1665  0.5723
22359W        W37828  13.716  18.231   3.946 -0.2057 -0.0974  0.1009
22360W        W37829   4.809  12.773   5.570 -0.1357 -0.0016  0.1364
22361W        W37830  17.197   3.426  15.176  0.1439 -0.1805 -0.0579
22362W        W37831   1.268   0.213  11.610 -0.0596  0.2132  0.1075
22363W        W37832  17.401   5.281   0.485  0.1425  0.1976  0.0118
22364W        W37833   9.634   3.963   5.523  0.2471 -0.0637  0.0929
22365W        W37834  15.081   7.027   3.806 -0.5583 -0.0294 -0.0311
22366W        W37835   6.272   8.773  10.798 -0.1680  0.0016  0.1223
22367W        W37836   0.519   4.145  14.255 -0.1430  0.0340  0.0910
22368W        W37837  13.477  16.278  14.664 -0.1754  0.0295 -0.0056
22369W        W37838  15.309  10.664  11.330 -0.1169 -0.1536 -0.2040
22370W        W37839   1.762  16.912   1.588  0.1420 -0.0152  0.2154
22371W        W37840   5.121   5.679  10.355  0.1344  0.1372 -0.3492
22372W        W37841   2.263  14.848   2.566 -0.1610  0.1234  0.4739
22373W        W37842   6.275   0.984   2.173  0.0328  0.1276 -0.0319
22374W        W37843   8.186  14.585  10.908 -0.0587  0.0019 -0.1491
22375W        W37844  10.481  11.365  14.559  0.2946  0.0433  0.0750
22376W        W37845  15.774  12.575   3.814 -0.2872 -0.1089 -0.0223
22377W        W37846  10.066   6.987   4.956  0.0221  0.0740 -0.0681
22378W        W37847   9.787   6.594  15.257 -0.0507 -0.4766 -0.0881
22379W        W37848  10.309  12.585  15.119  0.0239  0.1118 -0.2014
22380W        W37849  10.039   5.975   1.652  0.3266 -0.2237 -0.2905
22381W        W37850  13.390  15.797   0.927  0.0511 -0.1222  0.3788
22382W        W37851   1.323   6.107  13.918  0.0535  0.0421 -0.1520
22383W        W37852   8.328   5.901  11.384 -0.1191  0.0671 -0.0519
22384W        W37853   0.083   0.704  10.957  0.0003 -0.0185 -0.0052
22385W        W37854   0.824  14.470  12.127  0.3255 -0.1775 -0.0318
22386W        W37855   7.902  16.102  13.137 -0.1777  0.0583  0.3283
22387W        W37856   4.868   2.157   2.347 -0.2260  0.0171 -0.0875
22388W        W37857   4.302  13.632  14.697 -0.0516 -0.0489  0.1253
22389W        W37858  16.635   2.361   0.098  0.1553 -0.0651  0.0360
22390W        W37859  13.109   6.587   1.062  0.2411 -0.2657 -0.3262
22391W        W37860   4.893   1.753   4.265  0.3401  0.0408 -0.0753
22392W        W37861   5.721  11.853   1.040 -0.2067  0.3714  0.2352
22393W        W37862   3.871  12.157  15.082 -0.0915  0.1258 -0.4212
22394W        W37863  10.523  14.287   4.370  0.1525  0.2119  0.1767
22395W        W37864  16.349   1.245  15.597 -0.1214  0.1506  0.0126
22396W        W37865  17.662   4.392  11.184  0.1431  0.2114 -0.0346
22397W        W37866   4.072   7.033   4.130 -0.1446  0.2696  0.0963
22398W        W37867  10.682  17.695  14.680 -0.2461  0.2567  0.2350
22399W        W37868   9.588  15.106  14.736  0.0127 -0.0529  0.1835
22400W        W37869   6.686   6.731  14.716  0.0116 -0.0558  0.2905
22401W        W37870   4.604   9.507   5.439  0.1103  0.2009  0.0954
22402W        W37871   7.689   8.000   4.531  0.2019 -0.0489  0.2547
22403W        W37872   1.732   7.561   3.112 -0.1606  0.1362  0.2645
22404W        W37873   7.137   3.997  13.557  0.0045 -0.0029 -0.0254
22405W        W37874   3.838   7.463   4.343 -0.2822 -0.0318  0.1123
22406W        W37875   7.041  10.215  15.239 -0.0619 -0.2486 -0.0025
22407W        W37876   8.655   8.687   4.231  0.1471  0.0966 -0.3606
22408W        W37877  11.743  14.114   4.375  0.0076 -0.1919 -0.2417
22409W        W37878   0.337  11.634  11.426 -0.0100 -0.1512  0.2317
22410W        W37879   1.410  14.586   5.312  0.0045  0.1965  0.1368
22411W        W37880  15.156  17.768  13.314  0.1078 -0.0471  0.1437
22412W        W37881  18.094  14.649   1.055  0.0770 -0.2843 -0.0019
22413W        W37882   7.180   6.614   0.672  0.1293  0.2293  0.3369
22414W        W37883   2.721  17.710  10.819 -0.0066 -0.2271 -0.3472
22415W        W37884   6.378  10.537  13.119  0.0092 -0.0670  0.0855
22416W        W37885   4.005  15.390  11.793 -0.2665  0.1678  0.1395
22417W        W37886   2.976   1.949   2.290 -0.2260  0.1310  0.0827
22418W        W37887  12.674   7.961   3.881 -0.1090  0.0881  0.0491
22419W        W37888  12.223  13.820   4.564 -0.2542  0.0104 -0.1841
22420W        W37889   9.919  11.257   2.973  0.1731  0.0230 -0.0550
22421W        W37890  13.566   8.284   3.034 -0.0937 -0.1367  0.2008
22422W        W37891  14.518  18.348  11.089  0.0824 -0.1282 -0.2918
22423W        W37892   3.079  14.238   2.046  0.1634 -0.0829  0.0143
22424W        W37893  17.681   9.723   2.602 -0.2473 -0.0063  0.0289
22425W        W37894   4.035  10.141  13.981 -0.0772 -0.0927  0.2384
22426W        W37895   4.079  18.378   0.447  0.0339 -0.0999  0.2550
22427W        W37896   4.021  11.308   2.710 -0.0133 -0.1351 -0.0743
22428W        W37897   3.029  18.222  15.734 -0.0469  0.3017 -0.1225
22429W        W37898  10.231  10.622  12.801 -0.0694  0.1521 -0.0611
22430W        W37899   2.723  11.753  12.875 -0.0010 -0.0892  0.0880
22431W        W37900  10.136   2.689   5.528  0.0272 -0.2861  0.0193
22432W        W37901  13.893   5.212   3.301  0.1324 -0.0497  0.0356
22433W        W37902   9.075   1.170  13.244 -0.1309 -0.2400  0.0912
22434W        W37903  13.763   0.639   3.249  0.0978  0.0811  0.0860
22435W        W37904  10.706  12.565   5.588 -0.2804  0.0865 -0.0724
22436W        W37905   1.206   2.116  14.740  0.2286 -0.0518 -0.0563
22437W        W37906   4.575   1.853   3.274  0.2904  0.2921 -0.1189
22438W        W37907   8.450  18.217   5.063  0.0665  0.1476  0.3242
22439W        W37908   5.769   2.058  13.228  0.0003 -0.3319 -0.1453
22440W        W37909   2.252  17.871  14.608  0.1009 -0.0542 -0.0240
22441W        W37910   9.628   9.813   2.003  0.2216  0.2277  0.0705
22442W        W37911   5.575   8.435  13.050 -0.0673 -0.0859 -0.1224
22443W        W37912   7.799  13.381  15.495  0.0135 -0.0728 -0.0030
22444W        W37913  15.303   5.868  14.747 -0.1685  0.1564  0.1269
22445W        W37914  13.976   9.625  15.647 -0.2038 -0.0297 -0.2425
22446W        W37915   5.671   8.597   2.837 -0.0180 -0.1368  0.2287
22447W        W37916   7.538  17.710   0.154 -0.3007 -0.0878 -0.0857
22448W        W37917   6.530  13.386   4.641 -0.3544 -0.2079 -0.1484
22449W        W37918   9.504   8.451  12.574  0.1932  0.1546  0.1105
22450W        W37919   7.479   2.782   6.051 -0.2283  0.1758  0.0577
22451W        W37920  17.309   4.703   1.256  0.0101 -0.2285 -0.2308
22452W        W37921  18.145  14.883  13.467 -0.2122 -0.2883  0.1764
22453W        W37922  12.354   6.621   3.497 -0.2586  0.3322 -0.0737
22454W        W37923   0.935   5.441   1.175 -0.2256  0.1479  0.1464
22455W        W37924   8.548  12.767  12.858 -0.0379  0.1133  0.2637
22456W        W37925   8.149  15.661  13.023 -0.0618 -0.0620 -0.0535
22457W        W37926  10.473   0.205   3.133 -0.0988  0.2911  0.1175
22458W        W37927   1.415  16.129  12.547  0.1216 -0.0165  0.2574
22459W        W37928  16.060   4.239  15.375 -0.0391  0.3901  0.4483
22460W        W37929   2.825   4.275   3.775  0.0342  0.2322 -0.0383
22461W        W37930  15.409   1.568  15.225 -0.1414 -0.1619  0.0488
22462W        W37931  16.957  10.405  15.062  0.2166 -0.2205  0.0760
22463W        W37932   4.345  16.555  11.059 -0.1196 -0.1344 -0.0875
22464W        W37933  10.229  12.140   0.200  0.0740 -0.0609  0.1775
22465W        W37934   5.008  15.531  10.852 -0.2966 -0.0973 -0.0048
22466W        W37935   7.490   5.638   1.157 -0.1501  0.3439 -0.3238
22467W        W37936   5.261  12.450  13.945  0.0062  0.0375  0.1580
22468W        W37937  17.964   7.026   0.235 -0.0354  0.0233 -0.2470
22469W        W37938  13.659  13.297   2.172 -0.0002  0.0678 -0.3066
22470W        W37939  16.755   4.869  11.880  0.0346  0.1757  0.1852
22471W        W37940   1.084  13.415   0.059  0.1741  0.2782 -0.2193
22472W        W37941  14.791  15.206   4.373 -0.0625 -0.2046 -0.1921
22473W        W37942   3.424  14.710   0.298 -0.0219  0.1393 -0.0803
22474W        W37943  12.868   3.493  12.261  0.3085  0.0261  0.1267
22475W        W37944  15.813   4.023   6.005 -0.1013 -0.4142  0.0288
22476W        W37945   8.314   5.556   0.601  0.0406  0.2331 -0.0473
22477W        W37946   2.270  15.291  10.365  0.1107  0.2979  0.3221
22478W        W37947  16.350  15.815  15.219  0.3129 -0.0015  0.0207
22479W        W37948   2.062   3.263   4.809  0.1861  0.1142  0.0254
22480W        W37949   4.303  16.115  11.293  0.3788 -0.2699  0.0269
22481W        W37950  14.039  15.455  13.437 -0.2145  0.2092  0.3747
22482W        W37951  13.549  18.296  15.305  0.0097  0.0172  0.0788
22483W        W37952   1.474   2.034   1.029  0.5649 -0.1584 -0.1569
22484W        W37953   4.735   1.814  10.588  0.2980 -0.1935  0.1420
22485W        W37954   0.459   9.910  14.109  0.0968  0.0539  0.1946
22486W        W37955  16.956   0.592   4.338 -0.1689 -0.0565 -0.1938
22487W        W37956  12.867  16.997  12.412  0.2197 -0.0727  0.2200
22488W        W37957  11.993   8.339   1.047 -0.3560 -0.2084  0.0684
22489W        W37958  10.711   5.264   0.800  0.1928 -0.2233  0.1882
22490W        W37959   3.002   3.620   5.141 -0.0917 -0.1867 -0.1188
22491W        W37960  10.122  12.198  14.674 -0.2948 -0.0699 -0.2094
22492W        W37961  17.254   6.814  11.071 -0.2669 -0.0335  0.0152
22493W        W37962   6.862   1.849  15.300 -0.0850 -0.0345  0.0081
22494W        W37963  10.641   5.629  11.632  0.0333 -0.0842  0.2203
22495W        W37964  15.381   4.530  13.370 -0.1899  0.0298  0.0623
22496W        W37965  13.141   4.612   5.278 -0.1581 -0.1285  0.1520
22497W        W37966   3.905  12.642   0.310 -0.0242 -0.2281 -0.4136
22498W        W37967   4.877   9.939   4.227  0.4232 -0.3937 -0.2363
22499W        W37968   3.678   7.893   0.823 -0.3397  0.1584 -0.1213
22500W        W37969   5.488   9.230   3.221 -0.1121 -0.1579  0.3000
22501W        W37970   2.726   2.107  15.273  0.0457 -0.1436 -0.1334
22502W        W37971   1.335   0.494  11.182  0.0977 -0.0664  0.1333
22503W        W37972  18.442   8.791  15.378  0.1125  0.0501 -0.1894
22504W        W37973  13.126  12.018   5.711  0.1260 -0.3886 -0.0889
22505W        W37974   7.604   6.917  13.486  0.1166  0.2519 -0.0023
22506W        W37975   1.167  15.496  11.094  0.0796 -0.0416  0.3421
22507W        W37976  10.802   0.553   1.633  0.0000 -0.0713 -0.0024
22508W        W37977  14.762  17.444   2.332 -0.0386 -0.0981  0.0820
22509W        W37978   7.840   9.489   3.374 -0.0184  0.2109  0.0641
22510W        W37979   8.861   0.183   3.899 -0.0531 -0.0444 -0.0395
22511W        W37980   2.009   4.965  11.768 -0.1456 -0.2209 -0.2037
22512W        W37981   5.662  14.913   3.980  0.0348 -0.0894 -0.0697
22513W        W37982  11.972   0.660   5.539 -0.0827 -0.1926 -0.0540
22514W        W37983  15.751  17.040  13.094  0.0598  0.2550 -0.0246
22515W        W37984  10.193   3.570  15.885  0.1987 -0.0120  0.0955
22516W        W37985   7.588   0.987  11.808  0.1345 -0.1886  0.1870
22517W        W37986   1.481  17.270  12.559  0.0580 -0.0355  0.0783
22518W        W37987   1.302  11.133   0.534  0.3346  0.0350  0.0790
22519W        W37988  16.714  12.176   5.126  0.0339  0.2690  0.1548
22520W        W37989  15.095   1.428  14.801 -0.1965 -0.3406  0.0829
22521W        W37990  11.190  12.176  12.321 -0.0961 -0.1307  0.0225
22522W        W37991   2.183   1.789  11.016 -0.1183  0.0032 -0.1491
22523W        W37992   0.791   1.581  11.433 -0.1781 -0.1746 -0.1511
22524W        W37993   8.511   9.400  13.123 -0.0862  0.0277 -0.1789
22525W        W37994  18.246   2.974  13.818 -0.1796  0.0194  0.0997
22526W        W37995   2.479   8.647  13.703 -0.2713  0.1295  0.0168
22527W        W37996  17.361  11.006   4.460 -0.3773 -0.1203  0.0659
22528W        W37997   4.514   4.003   3.268  0.3353 -0.0069  0.2774
22529W        W37998   1.738  10.734   2.705 -0.1893 -0.0887  0.0563
22530W        W37999  17.790   0.686   1.146  0.0303 -0.0346 -0.2225
22531W        W38000  14.897  17.919  15.552  0.0835  0.0584  0.0414
22532W        W38001  12.119   7.276  12.587 -0.0407 -0.0201  0.0740
22533W        W38002  10.581  12.692   2.157  0.1096 -0.1396 -0.1000
22534W        W38003   2.461  10.463  13.447  0.1045  0.1458  0.1592
22535W        W38004  14.412   7.345  15.063  0.3277 -0.0197 -0.2987
22536W        W38005   1.019  16.164   1.901  0.0141 -0.0765 -0.1033
22537W        W38006  16.831   6.388   3.574  0.0909 -0.0386 -0.3682
22538W        W38007   2.877   5.410   0.269  0.1805 -0.2919  0.0471
22539W        W38008  13.442   9.625  15.895  0.1760  0.0980  0.1241
22540W        W38009   0.048   0.915   0.832 -0.0298 -0.0292 -0.0945
22541W        W38010   4.537  16.929  11.921  0.2366  0.2147  0.5096
22542W        W38011  17.430  17.901  11.114  0.3151 -0.0739  0.0849
22543W        W38012  12.045   2.615   4.319 -0.1824 -0.0603  0.1992
22544W        W38013  16.333   1.002   3.250  0.1657 -0.4341 -0.0136
22545W        W38014  13.095   9.302   4.494 -0.1264 -0.3167  0.1617
22546W        W38015  15.579   6.373  14.817 -0.1328  0.1332  0.0100
22547W        W38016   7.860   4.663   3.866  0.2792 -0.1984 -0.1209
22548W        W38017  14.378  17.051   3.325 -0.1013  0.1020 -0.1565
22549W        W38018  18.470  15.436  14.824  0.2742  0.1283 -0.1072
22550W        W38019   6.738   4.685  10.352  0.2944  0.1409  0.1050
22551W        W38020  12.284  14.781   2.931 -0.3098  0.3431 -0.2022
22552W        W38021  10.846  14.838  14.076 -0.3794 -0.0843  0.2070
22553W        W38022  15.568   0.521  12.411  0.2541 -0.1416  0.0303
22554W        W38023   6.178   7.616   5.866 -0.0035  0.0894  0.0008
22555W        W38024  10.373  17.897   4.953 -0.1973 -0.0212 -0.0494
22556W        W38025   2.090   3.879   0.579 -0.1583 -0.0342 -0.0041
22557W        W38026   7.983   3.592   2.938 -0.1562  0.0483 -0.0907
22558W        W38027   0.033   9.262  10.650 -0.0370 -0.1466 -0.1774
22559W        W38028  11.637   3.659  11.620  0.2243  0.2875  0.4929
22560W        W38029   0.525  15.089  13.383 -0.1033 -0.1645  0.0040
22561W        W38030  18.208   1.194   6.067  0.0642 -0.2293 -0.1158
22562W        W38031  15.247   3.630  13.021  0.3158 -0.3036 -0.2181
22563W        W38032  12.971   3.834   2.792 -0.1721  0.3273  0.0441
22564W        W38033  12.995  15.920   1.198 -0.1444  0.1909 -0.0237
22565W        W38034   2.339  10.454  11.947  0.0411 -0.1570  0.0307
22566W        W38035  10.200   0.358   5.296  0.2436 -0.1235  0.1580
22567W        W38036   1.749  10.019   0.550  0.0287  0.1266 -0.1309
22568W        W38037   9.288  12.118  15.545  0.0430  0.4266  0.0355
22569W        W38038   0.202   3.715  14.317 -0.3720 -0.0531  0.0850
22570W        W38039  17.889   1.820   1.822  0.0165 -0.0759 -0.1707
22571W        W38040   3.780   0.061   4.066  0.1120 -0.0086 -0.1349
22572W        W38041   1.498   9.704  12.258  0.0842  0.3426 -0.1775
22573W        W38042  15.832  13.412   2.742  0.1039  0.1143  0.1784
22574W        W38043  11.264   9.577   1.839 -0.4191  0.0040 -0.0786
22575W        W38044   5.462  13.049   4.919  0.1309  0.2231 -0.0031
22576W        W38045  16.990   2.917   3.407 -0.0774 -0.2479  0.0757
22577W        W38046   0.633  15.016  12.909 -0.0105 -0.2099 -0.1104
22578W        W38047  12.346   9.274  15.851  0.2550 -0.0796  0.2896
22579W        W38048  17.959  10.202  12.661 -0.1558 -0.2252 -0.1322
22580W        W38049   9.618  14.820   4.330  0.5571  0.4216  0.0282
22581W        W38050   5.661  14.894  11.897  0.0062  0.0257 -0.0458
22582W        W38051  17.534  16.789   5.271  0.1182  0.0600 -0.0394
22583W        W38052  13.851  16.543   2.193  0.2032 -0.3627 -0.0064
22584W        W38053   6.218   2.227  12.158 -0.3296 -0.1338  0.3117
22585W        W38054  16.828   4.174   4.887 -0.2013  0.1860  0.1873
22586W        W38055  14.091  17.436   1.319  0.0849  0.2315 -0.0007
22587W        W38056   5.531   6.208   3.380  0.2188 -0.0881  0.1240
22588W        W38057  16.778   7.833   1.244  0.0317  0.4655 -0.2364
22589W        W38058  13.594  16.026   2.292  0.1090 -0.0158 -0.1203
22590W        W38059   7.026  12.844  15.213 -0.1307  0.0098 -0.1906
22591W        W38060  13.034   8.647  10.918 -0.4397  0.1222 -0.1600
22592W        W38061  11.909  13.906   0.986  0.0367  0.0887  0.0985
22593W        W38062   7.249  17.218   2.051 -0.1194 -0.0272  0.1637
22594W        W38063   5.255   1.582   5.352 -0.1821  0.2181 -0.1879
22595W        W38064  13.185   5.902   4.763  0.2806 -0.1018 -0.0969
22596W        W38065  12.192   8.432   3.632  0.2845  0.3363 -0.3142
22597W        W38066   2.635  13.434  11.757 -0.4428 -0.0160 -0.2774
22598W        W38067  12.204   0.235  10.711  0.1160  0.0767 -0.1127
22599W        W38068   1.710  12.998  14.737  0.0948  0.1018  0.2516
22600W        W38069   1.468  12.082  11.839  0.2183  0.2304  0.1571
22601W        W38070  17.554   8.322   0.159 -0.0384  0.2107  0.1796
22602W        W38071  13.681   7.333   5.324 -0.0860  0.0201 -0.0225
22603W        W38072  16.592   3.953  14.060 -0.3181 -0.0387 -0.0293
22604W        W38073  17.091   5.541  11.908  0.0733  0.3581 -0.2485
22605W        W38074  17.881  17.132  15.023  0.0077  0.1871  0.1127
22606W        W38075   7.875  10.074   3.837 -0.1532 -0.0262 -0.1742
22607W        W38076   6.641  11.179  13.892  0.1222 -0.0814  0.2593
22608W        W38077   6.710  12.521   2.248 -0.3307  0.0909  0.0234
22609W        W38078   2.758  12.151  13.536  0.1608  0.1080  0.0441
22610W        W38079   1.457  17.431  14.888  0.1057  0.1130  0.0941
22611W        W38080  13.354   8.682  12.210 -0.1314 -0.0308  0.1108
22612W        W38081  11.231   6.196   4.948  0.2951 -0.2174  0.0739
22613W        W38082  13.731   5.088   2.132  0.3640  0.0010 -0.1409
22614W        W38083   5.791   0.662  12.546  0.1271 -0.3683 -0.3047
22615W        W38084  12.177   0.553  11.091  0.0225 -0.0070 -0.3497
22616W        W38085  12.504  15.268  13.944  0.1193  0.3740 -0.2194
22617W        W38086   2.657  14.089   4.220  0.1158  0.1459  0.1964
22618W        W38087  10.599  13.224  11.871  0.2825 -0.2803  0.1460
22619W        W38088   9.733   4.695  12.482 -0.0939  0.1228  0.0181
22620W        W38089   4.754   0.315  12.572  0.3079 -0.1558  0.1568
22621W        W38090  18.204   9.483   2.462  0.1314 -0.0912 -0.1742
22622W        W38091  13.827   7.794   2.619  0.0924 -0.1817  0.0097
22623W        W38092  12.893  16.907  14.719 -0.0891  0.0118  0.3709
22624W        W38093  14.483   2.762  13.961  0.3681  0.1437  0.0467
22625W        W38094   3.134  13.760  14.430 -0.1028  0.0719 -0.4702
22626W        W38095  11.104   6.060  14.720  0.2423  0.4792  0.0967
22627W        W38096  12.913   3.834  10.747  0.1216  0.0432 -0.0390
22628W        W38097  13.275  15.644   3.043 -0.3434  0.1482 -0.0525
22629W        W38098  17.967   5.648   4.338 -0.0570 -0.1689  0.2491
22630W        W38099  15.115   0.313   0.605  0.1396 -0.0265  0.0708
22631W        W38100   1.936  11.849   0.216 -0.2416 -0.2082  0.0013
22632W        W38101   7.198   3.065   0.386  0.0786  0.2410  0.3025
22633W        W38102   6.441  18.263   1.431 -0.0387 -0.0861 -0.1804
22634W        W38103  17.291  14.373  13.807  0.1294 -0.1262 -0.4156
22635W        W38104   5.111   2.814  14.618 -0.1435  0.2914 -0.2037
22636W        W38105  13.373  10.590  13.500  0.5387  0.0902 -0.0476
22637W        W38106  12.790   9.026   6.039 -0.3357  0.0385  0.3728
22638W        W38107   8.271   8.810   0.051  0.1893  0.0617  0.1758
22639W        W38108  18.039  16.274   2.201  0.0524 -0.1511 -0.2084
22640W        W38109   8.072   7.434  11.798 -0.0307 -0.1471  0.4297
22641W        W38110  17.602   3.103   0.687 -0.1469 -0.2301  0.2322
22642W        W38111   0.077   1.168   5.164 -0.0610  0.2390 -0.0062
22643W        W38112   2.636  14.174  12.980 -0.0607  0.2518  0.3984
22644W        W38113  14.771   0.055   3.153 -0.0747 -0.2800  0.1430
22645W        W38114  10.722  17.296   3.663 -0.2329 -0.0176  0.1311
22646W        W38115  11.313   0.072   3.574  0.0102 -0.3081  0.0499
22647W        W38116  17.772   4.504  10.656 -0.0547 -0.0218  0.0959
22648W        W38117   3.300  13.052   4.704 -0.0750 -0.2084 -0.0178
22649W        W38118  11.730   6.887   0.966 -0.0093  0.0126  0.1391
22650W        W38119   8.786   5.074   2.565  0.0108 -0.0361  0.1239
22651W        W38120   7.731   8.576   5.310 -0.0074 -0.0281  0.0674
22652W        W38121   9.955  10.117  12.361 -0.3566 -0.0635 -0.0950
22653W        W38122   4.574  15.772   1.498 -0.1200  0.1877  0.3299
22654W        W38123   5.329   9.969   4.020 -0.0631 -0.2418 -0.1455
22655W        W38124   6.316   5.259   1.767 -0.3658 -0.2803 -0.1902
22656W        W38125   6.583   9.780  11.437 -0.1107 -0.1257  0.1709
22657W        W38126   9.468  13.223  11.075  0.2110  0.0031  0.0380
22658W        W38127   9.631  15.340  11.744 -0.0929 -0.0554  0.2618
22659W        W38128  13.698  10.525  10.734  0.2752  0.1642  0.2238
22660W        W38129  17.897  14.251   4.100  0.0775 -0.5475 -0.0737
22661W        W38130  11.011   7.823   2.713  0.3222  0.1822  0.0657
22662W        W38131   3.177   9.201   1.678  0.0590 -0.1969 -0.3273
22663W        W38132   7.482  15.019   1.560 -0.1939 -0.3033 -0.2820
22664W        W38133  14.327   8.591   0.110 -0.4027 -0.0222 -0.0658
22665W        W38134   6.451   6.868   4.794 -0.0298 -0.0409 -0.1161
22666W        W38135  17.469  13.071   4.152  0.0979  0.1673 -0.1796
22667W        W38136  17.445  11.527   0.713  0.2189  0.0464 -0.3202
22668W        W38137   3.386   0.671   1.593  0.3122 -0.0535 -0.1502
22669W        W38138  14.610   3.064   4.771  0.1910  0.0011  0.0572
22670W        W38139  11.396   9.997   2.174  0.2943 -0.0857  0.0925
22671W        W38140   8.552  12.294   6.327 -0.0528  0.0024 -0.2176
22672W        W38141  16.912  14.955  15.791 -0.2248 -0.0279 -0.1242
22673W        W38142  11.852   2.031   2.568  0.1163 -0.1748 -0.2223
22674W        W38143   9.889  14.685  12.908 -0.1266  0.2639 -0.2294
22675W        W38144  11.711   8.736  11.720 -0.0707  0.1771  0.4936
22676W        W38145  10.995  15.745   5.294 -0.0895 -0.0737  0.1692
22677W        W38146  12.718  14.576  10.991 -0.1309  0.1263  0.1269
22678W        W38147  15.344  16.206   3.137 -0.2623  0.2060  0.0894
22679W        W38148   6.034   7.358   2.032  0.2565  0.0628  0.0506
22680W        W38149  13.699  18.429   0.437  0.2362  0.0175  0.1102
22681W        W38150  11.651   5.361   2.963 -0.0417 -0.1045  0.0398
22682W        W38151  13.517   1.616  11.850  0.0772 -0.0112  0.1361
22683W        W38152  11.211   6.218  13.724  0.1849 -0.1391 -0.0945
22684W        W38153  11.839   3.619  12.739 -0.4797 -0.3888 -0.1383
22685W        W38154   4.359  10.178  13.087  0.0737  0.1059 -0.1996
22686W        W38155   2.018   4.172   2.230  0.3786  0.1376  0.2832
22687W        W38156  16.793  10.106   2.795 -0.0140 -0.0956 -0.0783
22688W        W38157   3.630   7.875   4.225  0.2192  0.0180  0.2335
22689W        W38158   7.828  10.728  12.054 -0.1532 -0.1732 -0.2355
22690W        W38159   6.204  15.764  15.807  0.0516 -0.0635 -0.1273
22691W        W38160  10.309  10.302   5.777 -0.0977  0.0384  0.4170
22692W        W38161  11.349   6.992   0.608 -0.0538  0.1237 -0.1312
22693W        W38162  16.165   5.221   0.859  0.1288  0.1685 -0.0542
22694W        W38163   7.552   3.957  14.463  0.1572  0.1358 -0.2171
22695W        W38164   6.100  12.131  12.300 -0.2699  0.1008  0.0726
22696W        W38165  12.202  16.092  11.957  0.2187  0.1971 -0.0347
22697W        W38166  11.960   5.562  11.676  0.0488  0.0193 -0.0469
22698W        W38167   4.689   4.223   5.973 -0.0581 -0.2867  0.0950
22699W        W38168  14.580  11.805   5.029  0.1334  0.1527 -0.5034
22700W        W38169   9.798  11.406   1.227  0.3141  0.0646  0.2484
22701W        W38170   0.310  13.841  14.047 -0.1219  0.1484  0.0984
22702W        W38171   2.547  11.065  15.711  0.0134 -0.1992  0.1949
22703W        W38172   3.904   5.036   2.482  0.0751 -0.0192  0.3749
22704W        W38173  12.434  16.207  15.216 -0.1129 -0.0616 -0.0863
22705W        W38174   3.366  15.105  12.240  0.0246 -0.1552 -0.0951
22706W        W38175  12.702  10.327   4.675  0.0114 -0.2385  0.1258
22707W        W38176  11.440   3.869  13.585 -0.3367 -0.2526 -0.0985
22708W        W38177   0.822   0.680   1.041  0.4358  0.0396 -0.0992
22709W        W38178   8.368  16.982   2.781  0.3544 -0.1517  0.0147
22710W        W38179  12.241  16.236  13.800  0.0397  0.2168  0.0963
22711W        W38180  13.231  11.944   3.111 -0.1754 -0.0989  0.0802
22712W        W38181   0.899   2.440   0.328 -0.3765  0.4412  0.1236
22713W        W38182   7.055   1.369  13.431  0.0462  0.0936 -0.1541
22714W        W38183  15.072  15.558  12.789 -0.1019 -0.3830  0.2463
22715W        W38184  10.187  17.739  12.513  0.0033 -0.2039  0.2194
22716W        W38185   5.013   1.976  15.735  0.0082  0.0441 -0.0902
22717W        W38186  14.626  15.079   2.697 -0.1108 -0.0398  0.0144
22718W        W38187   5.427  15.191   1.637  0.0828 -0.0246 -0.0020
22719W        W38188   9.796   2.877   2.144  0.3140 -0.1210  0.1671
22720W        W38189   3.793  14.230   3.966  0.2924 -0.0084 -0.0136
22721W        W38190  12.506   9.458  13.510 -0.0737 -0.1912  0.0032
22722W        W38191  16.699   9.233   3.799  0.1084  0.4275 -0.2306
22723W        W38192  14.417  17.443   5.046  0.0327  0.0835 -0.1343
22724W        W38193   2.158   6.592   0.449 -0.2127 -0.1034  0.3160
22725W        W38194  12.759   0.040   2.220  0.0412  0.2060  0.0464
22726W        W38195  13.701  15.753   1.861 -0.0841 -0.1419  0.0163
22727W        W38196  11.240  15.105   0.193 -0.1671  0.0141  0.0893
22728W        W38197  14.577   3.868   5.143  0.0006  0.1734 -0.2295
22729W        W38198  14.493  16.003  15.663 -0.0759  0.0184 -0.0810
22730W        W38199   0.089   8.316   5.738 -0.0790 -0.1381 -0.0540
22731W        W38200  16.741   1.704  12.200  0.2214  0.1915  0.0475
22732W        W38201   6.148   7.138   3.344 -0.5092  0.0302 -0.0148
22733W        W38202  15.159  14.175   4.780 -0.0845 -0.2771  0.0165
22734W        W38203   2.354  11.746   0.809  0.1365  0.1808 -0.0232
22735W        W38204   2.419   9.024  14.372  0.1340  0.0327 -0.0671
22736W        W38205   4.312   9.269   0.127 -0.0350 -0.0194 -0.3756
22737W        W38206  15.198   6.651   0.684  0.1768  0.0840  0.0489
22738W        W38207   0.084  12.138  15.802 -0.3736 -0.0140  0.2743
22739W        W38208   7.334  15.128  14.745  0.1756 -0.0621  0.2275
22740W        W38209  18.215  16.928   4.637 -0.2304  0.0134  0.3396
22741W        W38210  14.914   5.810  10.782 -0.0794 -0.2263 -0.0801
22742W        W38211  12.701   6.857  10.482  0.0029 -0.1226 -0.0644
22743W        W38212  14.079  18.284  14.977 -0.1560  0.1014  0.1966
22744W        W38213   3.295  11.603  15.645  0.1760 -0.2400  0.2124
22745W        W38214  11.297   2.124  13.632  0.4325 -0.0909 -0.1985
22746W        W38215  14.195  17.738  14.310 -0.3220 -0.1938  0.2274
22747W        W38216  12.385  11.074   4.440  0.2174  0.0449 -0.2617
22748W        W38217  10.971  11.147  14.852 -0.1412 -0.1354 -0.1761
22749W        W38218  14.346   8.858  11.047  0.1223 -0.2693  0.1194
22750W        W38219   0.347  10.843   1.985 -0.0518 -0.1128 -0.3307
22751W        W38220  13.599  14.577  11.137  0.1383 -0.1194  0.0484
22752W        W38221   2.791   9.967   1.030  0.0592 -0.1208  0.1307
22753W        W38222   8.030   6.849  11.452 -0.2887  0.1739 -0.2388
22754W        W38223  14.960   7.619   5.377  0.0160 -0.0737 -0.0933
22755W        W38224   5.251   1.949   5.753 -0.0112 -0.0584  0.0832
22756W        W38225   0.140   5.143   5.381  0.0878 -0.2375  0.2868
22757W        W38226   7.311  18.329   4.991  0.1975 -0.0875 -0.0496
22758W        W38227   6.025   6.983  13.916 -0.0048  0.0521 -0.3764
22759W        W38228  17.787  13.810   1.959 -0.3197  0.1268  0.0228
22760W        W38229   5.504   6.152  11.623 -0.1073  0.2680  0.0505
22761W        W38230   3.302   5.229  11.926 -0.3816  0.2513 -0.3479
22762W        W38231  14.524   5.286  12.404 -0.3610 -0.0306  0.0174
22763W        W38232   8.947   7.440  15.366  0.4335  0.0084 -0.3540
22764W        W38233  12.555   1.464  15.702  0.4289 -0.3257  0.0759
22765W        W38234  13.142  16.962   0.682  0.2126 -0.2167 -0.0583
22766W        W38235   2.607   8.965   0.860 -0.1324  0.0428  0.0648
22767W        W38236   6.962  11.596   5.214 -0.3392 -0.1156 -0.0532
22768W        W38237  17.238  10.456  12.533  0.2225  0.0988  0.1616
22769W        W38238  11.342   6.470   1.914 -0.0457  0.1977  0.4669
22770W        W38239   3.580  14.196  13.269  0.1000  0.0567  0.2380
22771W        W38240   1.768   1.598   5.112  0.1737  0.1387 -0.1920
22772W        W38241   0.069  14.858   5.591  0.0213 -0.1578 -0.3036
22773W        W38242  10.696   8.501   4.871 -0.0047  0.1229  0.3675
22774W        W38243  11.997   3.983   0.249  0.1014 -0.1364  0.2633
22775W        W38244   3.953  17.851   5.297 -0.0403 -0.1509  0.2212
22776W        W38245   2.883   5.877  13.826  0.0174  0.1148  0.3130
22777W        W38246  16.408   8.432  10.514  0.0890  0.2467  0.2833
22778W        W38247  13.155   1.881  12.420  0.0875  0.0317  0.0387
22779W        W38248  10.946   9.947   0.390  0.1170 -0.3298  0.0363
22780W        W38249   7.404   4.621   5.272  0.1383  0.1456 -0.1630
22781W        W38250  13.307   4.436   3.410  0.0476 -0.0504 -0.2209
22782W        W38251  13.310  18.109   4.183  0.3240 -0.1266 -0.2470
22783W        W38252   4.372  14.143  11.920  0.2267  0.1963  0.2035
22784W        W38253   6.642   5.942  14.821 -0.2128  0.1530 -0.2421
22785W        W38254  17.291  14.062   0.836 -0.1568 -0.1124  0.2664
22786W        W38255   7.019   1.041   2.857  0.3323  0.2644 -0.2795
22787W        W38256  18.287  13.765   1.387  0.2133 -0.0534 -0.1160
22788W        W38257  18.329  13.722  12.388 -0.4114  0.2072  0.1085
22789W        W38258   6.061  10.309   4.079  0.0903  0.1863 -0.3985
22790W        W38259  17.857  11.735  14.503 -0.0463  0.1688 -0.0836
22791W        W38260  17.663   6.716  15.520  0.0505  0.1220 -0.1014
22792W        W38261  14.584  14.908   0.076  0.2243 -0.2528  0.1451
22793W        W38262   7.424   2.639  14.329 -0.1051  0.2053 -0.0147
22794W        W38263  10.998  12.179   5.790 -0.2367 -0.0730 -0.2760
22795W        W38264   0.728  15.841  13.423  0.0628 -0.2993  0.3547
22796W        W38265  15.955   0.787   3.954  0.3687  0.0707 -0.4655
22797W        W38266  11.596   1.141   1.523  0.3392 -0.2682 -0.0767
22798W        W38267  17.487   2.329   5.503 -0.0013  0.1014  0.2236
22799W        W38268  12.941  17.528   3.115 -0.1838 -0.0731  0.0047
22800W        W38269   6.559  12.642   3.287  0.0567 -0.1464  0.1154
22801W        W38270  11.693   0.258   0.350 -0.0519  0.2213  0.0650
22802W        W38271   9.627   1.483  11.264 -0.0709 -0.1219 -0.0579
22803W        W38272   8.498   8.121  13.260 -0.1199  0.1678 -0.2191
22804W        W38273  12.048   8.888   3.825  0.4872  0.4401  0.0827
22805W        W38274   8.975  15.715   5.257  0.0178  0.0782 -0.3680
22806W        W38275   9.645  16.709   2.524 -0.0837 -0.0240 -0.1176
22807W        W38276  13.525   9.095   1.994  0.2190 -0.2004  0.0315
22808W        W38277   3.525  14.372  11.912 -0.1679  0.1438 -0.0718
22809W        W38278   5.404  11.451   0.324  0.0546 -0.1339  0.0762
22810W        W38279   9.892  12.809  14.081  0.0973 -0.1157 -0.1388
22811W        W38280  12.171   4.379  12.329  0.3521  0.0806  0.4076
22812W        W38281   1.600   0.484  15.713 -0.0794  0.0486  0.2548
22813W        W38282   8.247   6.597  10.734 -0.2974 -0.0583 -0.1718
22814W        W38283   5.786   6.406   4.197  0.1937 -0.0075 -0.0063
22815W        W38284   8.271   9.124  11.980 -0.0607  0.1494  0.1692
22816W        W38285   0.144   5.345  13.267 -0.2911  0.0794 -0.1412
22817W        W38286   4.333   1.805   4.640  0.0268 -0.2305 -0.0259
22818W        W38287   0.345  13.822  10.702 -0.1328  0.2150  0.5061
22819W        W38288   0.779   0.163  13.880 -0.4054 -0.0238 -0.4463
22820W        W38289   0.662   2.986  14.775 -0.0612  0.2046 -0.3344
22821W        W38290   5.603  13.896   2.468  0.0633 -0.1057  0.0860
22822W        W38291  11.931   6.209  14.021  0.1239  0.1861  0.2497
22823W        W38292  15.539   1.792   4.375  0.2377 -0.0009 -0.2652
22824W        W38293   4.833  14.412  12.649 -0.1887  0.0860  0.0288
22825W        W38294  15.217   0.037   3.382  0.1051  0.1619  0.4508
22826W        W38295  11.405  11.039   1.158  0.1756  0.1906 -0.0109
22827W        W38296  13.417  14.298   1.203  0.0895 -0.1573 -0.3004
22828W        W38297   1.696   6.370  14.256  0.1252  0.2859 -0.2415
22829W        W38298  15.191   6.423  11.476  0.3340  0.0428  0.0910
22830W        W38299  17.152  14.555  12.361 -0.0057  0.5314 -0.1295
22831W        W38300   0.149  15.051  11.011  0.0854 -0.1028  0.4041
22832W        W38301   5.801   2.023  11.211  0.3396 -0.1213  0.1357
22833W        W38302   4.785   1.384  10.832 -0.0453  0.1630 -0.1014
22834W        W38303   9.191   1.147   1.404 -0.2201 -0.0506 -0.1665
22835W        W38304   7.663   3.752   0.131 -0.1190 -0.2331  0.0341
22836W        W38305   6.778   4.148   5.045  0.0458  0.1616 -0.0901
22837W        W38306   7.823   5.158  10.375 -0.2638 -0.0635  0.0579
22838W        W38307  17.554   3.890   0.840 -0.1797  0.1099  0.2469
22839W        W38308  11.370  17.588  10.729  0.0435  0.1145 -0.2621
22840W        W38309   4.244  12.252   5.189 -0.0502  0.2221  0.1350
22841W        W38310   4.659   0.545  13.750 -0.5535 -0.1075  0.3113
22842W        W38311   6.648  13.422  11.773 -0.0512 -0.0354  0.1303
22843W        W38312  15.631  14.640  13.220 -0.0130 -0.1152  0.1654
22844W        W38313   1.538   7.321  12.291  0.1635 -0.0303 -0.3276
22845W        W38314   1.587   9.994  13.624 -0.0352  0.1699 -0.0726
22846W        W38315  11.018   3.377  12.396  0.0916 -0.0726  0.1382
22847W        W38316   1.276  17.913  14.616  0.2802 -0.2146  0.1910
22848W        W38317  16.433  17.158   4.653  0.1511 -0.1607 -0.2250
22849W        W38318   7.560  16.067  11.619  0.0099  0.1459 -0.0921
22850W        W38319   0.116  17.093  11.352 -0.0507 -0.1514  0.0404
22851W        W38320   4.744  18.468   0.756 -0.2299 -0.1335  0.1161
22852W        W38321  12.113   0.697   2.177 -0.0160 -0.1192 -0.0157
22853W        W38322   4.733   4.838  12.231 -0.0157 -0.0424 -0.0616
22854W        W38323  11.628  15.642   2.066  0.1349 -0.2100 -0.2953
22855W        W38324   6.866   5.268   2.198 -0.1016 -0.1730 -0.0039
22856W        W38325   8.738   2.425   3.437 -0.1022  0.3198 -0.0645
22857W        W38326  13.830  11.767   1.553  0.0857 -0.2036 -0.0669
22858W        W38327   8.761   4.311   1.312 -0.1851  0.0651  0.0154
22859W        W38328   8.164  10.392  15.198  0.1024  0.1126 -0.1153
22860W        W38329  10.963   7.771  14.446  0.1564 -0.0173 -0.2866
22861W        W38330   1.109  16.566   4.360  0.2862  0.0375 -0.1664
22862W        W38331   8.953   2.291  14.394  0.0737 -0.0687 -0.1327
22863W        W38332   8.063  18.451  15.510  0.2615 -0.1783  0.1830
22864W        W38333  17.297   0.540   1.951  0.0187 -0.0501 -0.0731
22865W        W38334   9.405  15.398   0.787 -0.3912 -0.3588 -0.2896
22866W        W38335   2.186   6.693   3.341  0.0852  0.0865 -0.2264
22867W        W38336   1.734   0.946  15.616 -0.1331  0.2307  0.0743
22868W        W38337  13.105  16.121   5.326  0.1429  0.0680 -0.1773
22869W        W38338  12.199   3.320   4.369  0.0249 -0.0316  0.1581
22870W        W38339   8.676  11.877  12.857 -0.0725  0.0257 -0.2188
22871W        W38340   5.782  15.963   2.048  0.0683  0.0002 -0.3317
22872W        W38341  12.215   1.244   2.486  0.1528  0.2404  0.0362
22873W        W38342  18.130   1.579  13.594 -0.1146  0.0737  0.1429
22874W        W38343   8.366  14.764   2.416  0.1063 -0.2337  0.2852
22875W        W38344  18.193   6.036   4.563 -0.0813 -0.0482 -0.0392
22876W        W38345   0.821   3.179   3.902  0.0087  0.1958 -0.0905
22877W        W38346  14.540   2.035  10.533  0.0068 -0.1937  0.0742
22878W        W38347  10.177   9.654  10.185  0.0657 -0.3128 -0.0389
22879W        W38348   7.733   5.211  12.648 -0.1165  0.0876  0.0488
22880W        W38349  17.357  10.029   4.492 -0.0295 -0.0420 -0.0615
22881W        W38350   0.736   1.983  14.644  0.1813  0.2394 -0.1472
22882W        W38351  15.839  13.215  11.368  0.2117 -0.0695  0.4350
22883W        W38352   1.962  13.185  13.486  0.0519  0.0887 -0.0909
22884W        W38353   5.981   8.763   3.776  0.0194 -0.0755  0.3451
22885W        W38354   3.132  17.985  14.832 -0.4003  0.1267  0.1949
22886W        W38355   8.533   1.615  13.737 -0.1306  0.3371  0.1732
22887W        W38356   0.277   0.106  13.973 -0.1013 -0.1128 -0.0407
22888W        W38357   2.755   2.183  13.352 -0.1585  0.0865  0.1911
22889W        W38358   2.680   4.962   3.967  0.0971 -0.0026 -0.0078
22890W        W38359  17.140   9.514   0.202  0.3044  0.0546 -0.3369
22891W        W38360  14.768   4.359  11.583 -0.0302 -0.2630  0.1255
22892W        W38361  11.603  12.242   4.735  0.0708  0.0460 -0.1145
22893W        W38362   3.763   6.948  12.420  0.0435  0.0941 -0.2540
22894W        W38363   8.448  14.684  14.433 -0.1723  0.1144  0.2223
22895W        W38364   3.630   6.550   3.366 -0.0041 -0.1697  0.1246
22896W        W38365  14.901   6.744  15.568 -0.1764  0.0032  0.0901
22897W        W38366   9.097  17.755   5.407  0.1263  0.0149  0.0957
22898W        W38367   1.815  11.518  13.536  0.2504  0.0502 -0.0975
22899W        W38368  14.264   4.596   4.569 -0.0125  0.0610  0.0788
22900W        W38369   5.091   5.157  12.196  0.1189  0.1108 -0.3367
22901W        W38370  14.562  16.183  10.555  0.1405  0.1461  0.3000
22902W        W38371  17.834   7.848   2.950 -0.1541 -0.0961 -0.3209
22903W        W38372   0.667   8.423  11.606 -0.2361 -0.1856  0.0159
22904W        W38373   7.518  10.265  14.703  0.0906 -0.2156  0.0694
22905W        W38374   8.103  13.909  11.822  0.1913  0.0053  0.1779
22906W        W38375  11.085  11.356   0.751  0.1166  0.2801 -0.3631
22907W        W38376   0.515  10.887  14.260 -0.2368 -0.1021  0.2368
22908W        W38377   4.157   4.585  10.344  0.3076 -0.2149  0.0390
22909W        W38378   7.382  10.844   3.090 -0.1378 -0.0295 -0.0657
22910W        W38379  12.217  14.481   3.652 -0.1028  0.4706  0.1865
22911W        W38380  14.047   8.654   2.400 -0.2445  0.1297  0.0228
22912W        W38381  14.746  16.105   0.302 -0.0466 -0.2336 -0.0496
22913W        W38382   5.395   2.157  12.607 -0.4473  0.0365 -0.0530
22914W        W38383  17.016   9.546   1.286 -0.1457 -0.1391  0.2959
22915W        W38384   2.407  17.374  15.374  0.1238 -0.2030 -0.0366
22916W        W38385   7.397   9.208  15.610 -0.0509  0.0027 -0.0666
22917W        W38386  15.959  16.933   0.165 -0.0970  0.0963 -0.0052
22918W        W38387  13.280  16.042  11.020  0.3863  0.1042 -0.0558
22919W        W38388   0.973  15.342   3.631  0.1391  0.2915  0.0602
22920W        W38389   3.074   2.974  11.405  0.0519  0.1469  0.0654
22921W        W38390   3.640  12.096  10.987 -0.1080  0.0095 -0.1668
22922W        W38391   8.145  15.415  14.398  0.2142 -0.0053 -0.0693
22923W        W38392   5.471   1.578  15.688  0.3475 -0.0373  0.0412
22924W        W38393  14.338   9.736  14.450 -0.0904  0.2246  0.2065
22925W        W38394  14.693   3.608  15.590 -0.1225  0.0824  0.1120
22926W        W38395   1.169   9.114  11.360  0.0246  0.0511  0.0298
22927W        W38396  10.850  14.793   0.413 -0.2164  0.0035 -0.2158
22928W        W38397   6.481   1.416   4.588 -0.2827 -0.1057  0.0448
22929W        W38398  15.503   1.990  14.521  0.3868  0.0533  0.1183
22930W        W38399   7.265   8.330  15.499  0.1750 -0.0264 -0.0723
22931W        W38400   4.343  15.687   0.232  0.3145  0.1390  0.0628
22932W        W38401  17.623   3.027  11.757  0.1664 -0.1401 -0.2028
22933W        W38402  11.965  14.598   0.731  0.0689 -0.0630  0.1265
22934W        W38403  11.250   8.613   2.774  0.2780 -0.0751 -0.0700
22935W        W38404  10.655   0.092  13.092 -0.0926 -0.1120  0.0580
22936W        W38405   7.203   3.997  10.880 -0.0648  0.3178 -0.0264
22937W        W38406  10.081  16.683   3.927  0.0991  0.0639 -0.1659
22938W        W38407  10.718  12.912   0.950  0.0721  0.1818 -0.4486
22939W        W38408  11.325   6.500   2.700  0.0647  0.0442  0.1247
22940W        W38409   9.514  14.845   3.807 -0.0177 -0.1535  0.0327
22941W        W38410   8.670  11.624   5.144  0.2767  0.2540 -0.2494
22942W        W38411  11.884   3.266  14.871  0.0909 -0.2880 -0.1575
22943W        W38412   9.370   4.656  12.896  0.1314 -0.1672  0.2281
22944W        W38413   2.936   5.877   5.407 -0.1271 -0.3344  0.0409
22945W        W38414   2.544  16.143  13.594  0.1493 -0.0718 -0.3048
22946W        W38415   0.358  14.103   4.173  0.1045  0.0835 -0.0058
22947W        W38416   9.750  10.121  13.008 -0.1143  0.0925  0.0335
22948W        W38417   7.113   5.159  11.051 -0.2510  0.1250  0.2857
22949W        W38418  15.912   5.190  13.784  0.0392  0.0043 -0.0838
22950W        W38419  16.618  13.702   4.151 -0.0638  0.0705  0.2745
22951W        W38420  16.972  10.991   3.020  0.2302 -0.0341  0.1826
22952W        W38421  12.194   4.465   1.096  0.0380 -0.2301 -0.0878
22953W        W38422  12.921  13.837   4.400  0.1959 -0.1870 -0.0545
22954W        W38423  13.612  11.766   5.615 -0.3910  0.1882  0.1678
22955W        W38424  10.960  15.534   4.774 -0.1093  0.2162 -0.0698
22956W        W38425   0.926  13.423   6.070  0.0059  0.0669 -0.4688
22957W        W38426   1.029   8.320  14.530 -0.2097 -0.0105  0.0652
22958W        W38427  16.441  12.390   4.741 -0.3072 -0.0248  0.1195
22959W        W38428  17.026  10.399   5.150 -0.0339 -0.1328  0.0373
22960W        W38429  14.244   5.439  11.477 -0.1928  0.0311  0.3207
22961W        W38430   1.580  15.258  10.932 -0.0757  0.3138 -0.0859
22962W        W38431   9.064  16.531  11.588 -0.1019 -0.1182 -0.3246
22963W        W38432   3.554  12.760   5.094 -0.0572 -0.0281  0.2648
22964W        W38433  10.255  14.667   0.421  0.2745  0.2998  0.1321
22965W        W38434  14.740  14.333   1.359 -0.2200  0.1331 -0.1084
22966W        W38435   1.823  11.641   1.193 -0.1410 -0.0484 -0.1161
22967W        W38436   7.312  18.349   3.625  0.2854  0.2141 -0.1221
22968W        W38437  10.069   9.171  10.682 -0.2740  0.3317 -0.0072
22969W        W38438   2.875   6.713  14.536 -0.3875 -0.1560  0.0227
22970W        W38439   2.639  16.796   4.145  0.1397 -0.0605  0.1490
22971W        W38440   8.793   1.102   5.958  0.0976 -0.1912 -0.0924
22972W        W38441  15.036  13.845   3.020  0.5984  0.2997 -0.0368
22973W        W38442   0.290   3.775  10.273 -0.1407 -0.1466  0.0649
22974W        W38443   8.424   9.584  10.625 -0.0611  0.1023  0.0623
22975W        W38444   1.816  15.786   4.228 -0.2217  0.2813  0.1835
22976W        W38445  14.700  12.103   0.263 -0.2190  0.0562  0.1652
22977W        W38446  15.693   9.893  14.676  0.2464  0.1450 -0.2360
22978W        W38447   5.870  18.177   6.139 -0.1371 -0.2396  0.1757
22979W        W38448  13.767   2.180   1.886 -0.2091 -0.0161 -0.1719
22980W        W38449   8.799   9.068  14.057 -0.0635  0.1249  0.2552
22981W        W38450   4.674   3.658   5.429  0.3051 -0.0286  0.3206
22982W        W38451  17.427   9.581  12.525  0.1123  0.1770  0.2137
22983W        W38452  16.249  17.840  13.524 -0.0496  0.4507  0.2379
22984W        W38453   6.384  13.187  12.877  0.0439 -0.3383 -0.1575
22985W        W38454   9.875   0.597   3.492  0.0789 -0.1480 -0.2716
22986W        W38455  14.552   6.212  11.951  0.1826 -0.0235  0.0080
22987W        W38456   6.712   4.490  14.554 -0.0587 -0.0778 -0.0755
22988W        W38457  15.410   7.552  15.330  0.0211  0.0857 -0.1501
22989W        W38458   6.674   9.911   4.729  0.1464  0.2532  0.2027
22990W        W38459   5.935   2.784   3.016  0.3066 -0.0909 -0.1586
22991W        W38460   4.369   8.429  15.410 -0.2366  0.1611 -0.1308
22992W        W38461  11.189   5.707  14.188 -0.4573  0.0595 -0.0392
22993W        W38462  10.524  18.157   1.936  0.1951  0.1309  0.1344
22994W        W38463  15.954  14.261   5.221 -0.0142 -0.1110  0.1831
22995W        W38464  18.392  15.604  13.131  0.2393  0.0867  0.0734
22996W        W38465   9.043  13.028   0.113 -0.0335 -0.0204 -0.0212
22997W        W38466  12.710   3.657   3.688 -0.0006  0.2375  0.0081
22998W        W38467   0.113   6.323   2.196  0.0239 -0.1505  0.2683
22999W        W38468   5.257   5.401  15.270 -0.2324  0.0806  0.0536
23000W        W38469   4.156   4.892  11.182 -0.0187 -0.1063  0.0394
23001W        W38470   1.625   9.076  11.524  0.3827 -0.0039 -0.1193
23002W        W38471  11.134  14.746   5.301 -0.2200 -0.1834  0.0926
23003W        W38472  12.997   8.512  15.863 -0.0723  0.2418  0.0856
23004W        W38473  17.001  18.047  14.650  0.0847  0.1306 -0.0104
23005W        W38474   9.758  15.890   0.481 -0.3608 -0.0118 -0.2477
23006W        W38475   7.020  12.506   0.889  0.0826 -0.1768 -0.2314
23007W        W38476   2.380  14.063  14.436 -0.1769  0.1145  0.0752
23008W        W38477   7.745  15.645  11.780  0.1265 -0.3575  0.0329
23009W        W38478   4.538  14.900  10.638  0.1481 -0.0043 -0.0764
23010W        W38479   6.092  15.492  13.114 -0.0040  0.2122  0.0942
23011W        W38480  11.046  11.478   4.430  0.0566  0.1014 -0.0002
23012W        W38481  11.384  13.021   5.128 -0.0605 -0.4162  0.1293
23013W        W38482  11.147   3.983  10.939  0.0175  0.2695  0.1267
23014W        W38483   2.307  13.537  13.337  0.0519 -0.0501 -0.0937
23015W        W38484  15.455   1.455   3.637 -0.1586 -0.0458  0.2033
23016W        W38485  13.348   4.657   4.813 -0.0037 -0.1100  0.1542
23017W        W38486   4.777  16.499   5.963 -0.0132  0.2253 -0.3145
23018W        W38487   6.806   6.234  10.868 -0.0698 -0.0035  0.4591
23019W        W38488  17.862   7.445  14.896 -0.1578 -0.0802 -0.0396
23020W        W38489  10.409   4.925  14.107  0.1452 -0.1617  0.0622
23021W        W38490  17.152   6.415  14.306  0.1913  0.2790  0.1199
23022W        W38491   2.393   4.590   1.057  0.0240  0.2741  0.1424
23023W        W38492   6.931  10.974  11.890  0.0721 -0.2761 -0.0805
23024W        W38493   9.106  13.877  11.651 -0.4078  0.1737  0.2259
23025W        W38494  15.997  14.410   4.676  0.1853  0.1047  0.0073
23026W        W38495   5.029   8.977  10.907  0.1759 -0.1871 -0.0391
23027W        W38496  11.361  18.471  13.863  0.1879 -0.1634 -0.0541
23028W        W38497  17.766   1.450   3.343 -0.3876  0.0554  0.2218
23029W        W38498   3.233   2.583   2.789  0.0683 -0.1071  0.2180
23030W        W38499   5.086   0.591   2.956 -0.3600  0.0916 -0.1561
23031W        W38500  14.792  13.365   3.725 -0.1572  0.0758 -0.0463
23032W        W38501   7.442   2.875  10.982 -0.2127  0.0859 -0.1720
23033W        W38502  16.332   5.095  13.024  0.1240 -0.0383  0.3140
23034W        W38503  10.253  12.585  13.216  0.3485  0.0600 -0.1498
23035W        W38504   6.407  12.443   3.955 -0.5077 -0.0406  0.3061
23036W        W38505   1.597   6.278   1.301  0.0755 -0.1322 -0.3612
23037W        W38506   7.213   6.568   3.823  0.3333 -0.2496  0.1631
23038W        W38507   4.212  13.468  13.391 -0.2175 -0.2342  0.2597
23039W        W38508   2.956  16.033  15.697  0.2624  0.2046  0.2367
23040W        W38509  10.513  14.996   0.687  0.1158  0.1239 -0.0869
23041W        W38510   9.611   7.582   3.913 -0.0420 -0.2577  0.0020
23042W        W38511   0.636   9.295  13.059  0.1464 -0.3993 -0.0520
23043W        W38512   5.016  10.175  14.212 -0.2084 -0.1345 -0.1841
23044W        W38513   7.324  18.349   2.745 -0.2091  0.2521  0.2847
23045W        W38514   5.202   5.277   3.356 -0.1698 -0.0963 -0.1200
23046W        W38515  16.529   4.768  14.657  0.1258  0.1983 -0.0005
23047W        W38516   0.361   4.145  12.931 -0.1338  0.2398 -0.1455
23048W        W38517   7.447   1.412   0.088  0.0806  0.0874  0.1284
23049W        W38518  13.014   6.052   2.497  0.0440 -0.3004 -0.1428
23050W        W38519  10.245  11.613   1.731  0.1854  0.3725  0.3820
23051W        W38520   5.820   1.779  14.804  0.0868 -0.2151  0.1531
23052W        W38521  14.513   3.644  12.732  0.1482  0.1018  0.0806
23053W        W38522  10.332  16.918   4.912 -0.0218  0.2056  0.0025
23054W        W38523   4.093  11.897   1.829  0.2129 -0.0768  0.0446
23055W        W38524  14.273   4.478   3.406  0.0258  0.1493 -0.0287
23056W        W38525  11.681  11.838   1.420 -0.0947 -0.2560 -0.0141
23057W        W38526  14.063  13.791   0.825 -0.0833  0.2797 -0.2155
23058W        W38527  12.693   4.370   9.744 -0.1732  0.0703  0.1928
23059W        W38528  18.130  15.226  11.735 -0.1124 -0.0920  0.0981
23060W        W38529  16.569  11.590   1.018 -0.0028  0.0555 -0.1318
23061W        W38530   4.162   9.306  15.463  0.2407  0.1432  0.1790
23062W        W38531   3.434   9.570  13.872 -0.1063  0.0938  0.0357
23063W        W38532   4.133  15.930  11.806 -0.0470 -0.0268  0.1146
23064W        W38533   2.660   9.264   2.583 -0.1382  0.2028  0.1129
23065W        W38534   2.725   6.038   3.854  0.0090  0.1271  0.1829
23066W        W38535   7.106  16.099  15.068  0.0618  0.0988 -0.5959
23067W        W38536   6.554   7.626  12.740 -0.0352 -0.0094 -0.0828
23068W        W38537  10.341   2.527  15.592 -0.0130  0.1733  0.1181
23069W        W38538  14.834  13.312  12.824 -0.0975  0.0136 -0.1574
23070W        W38539   3.434  13.657   6.129  0.0517  0.1440  0.0603
23071W        W38540   8.284  13.097   3.576  0.0061 -0.1194 -0.1213
23072W        W38541  12.561   6.663  10.947  0.1238 -0.2486  0.2116
23073W        W38542   1.506   6.208   4.586  0.0964  0.0580  0.0114
23074W        W38543  10.656   5.779  11.098  0.0915 -0.0660 -0.2712
23075W        W38544   8.414  14.162  14.296  0.2486  0.0805  0.0285
23076W        W38545   6.993  18.151   5.621  0.1438  0.0830  0.0905
23077W        W38546   5.489   4.028   3.856  0.0323  0.0357  0.0476
23078W        W38547   2.636  16.784  15.172 -0.2780 -0.0080 -0.3437
23079W        W38548   4.475  14.611  15.809 -0.0304 -0.1172  0.0167
23080W        W38549  11.150   1.587  12.468 -0.3998 -0.0378  0.2549
23081W        W38550   4.675   1.473   1.271  0.1461 -0.0803  0.2886
23082W        W38551   9.014  18.153   5.125 -0.1315  0.0841  0.1678
23083W        W38552   1.302  12.794  12.917 -0.1472  0.0207  0.2201
23084W        W38553  15.500   0.224  11.115  0.1379  0.0275 -0.2797
23085W        W38554  14.440  11.608   0.804  0.1068  0.1754 -0.2672
23086W        W38555   4.454   9.509   5.005  0.0430 -0.1312  0.0166
23087W        W38556  17.554  11.221   1.069  0.2467 -0.0877  0.0572
23088W        W38557   3.627  11.381  10.039 -0.1877 -0.0423 -0.3024
23089W        W38558  14.765   9.149  13.115  0.0911  0.0480  0.1555
23090W        W38559   7.794   9.970  11.989  0.0289 -0.1652 -0.0258
23091W        W38560   1.056  14.661   2.556 -0.3150 -0.0205  0.1468
23092W        W38561   4.337   6.838  12.307 -0.0252 -0.2222  0.1157
23093W        W38562  15.650   0.923  12.738  0.0707 -0.3807  0.0725
23094W        W38563   3.714   3.784   1.404  0.0824 -0.2756 -0.0195
23095W        W38564   2.112  15.345   5.492 -0.0417 -0.0233  0.1551
23096W        W38565   8.952  18.187  13.812  0.1344 -0.1878 -0.1594
23097W        W38566   6.795   4.663   0.413  0.3757  0.1887  0.2119
23098W        W38567   8.156  15.565  12.184  0.0058  0.0304  0.0101
23099W        W38568   3.982  17.789   4.086 -0.0031 -0.0650  0.0526
23100W        W38569  15.078   3.302   0.681  0.0439  0.1177  0.1030
23101W        W38570   4.749  10.574  14.558 -0.0904 -0.0415  0.1752
23102W        W38571   0.096   9.535  14.678  0.1698 -0.1150  0.1343
23103W        W38572   0.068   1.108  14.151  0.0650  0.1301 -0.1034
23104W        W38573  10.858  12.865   0.098 -0.3463 -0.0597  0.1359
23105W        W38574   8.726   9.299   3.028  0.1528 -0.0719  0.0506
23106W        W38575   2.082   4.418  13.440  0.0418  0.0731 -0.0211
23107W        W38576   7.050  14.906  11.535  0.0460  0.1234  0.5807
23108W        W38577   7.941   3.133  15.153  0.1050 -0.1357  0.3343
23109W        W38578   1.626  15.667  12.388  0.0208 -0.1686  0.1365
23110W        W38579   4.843   9.246  13.960  0.1242 -0.1307  0.1623
23111W        W38580   3.680   9.352   4.466  0.2057 -0.1437 -0.0123
23112W        W38581  11.458   3.519  15.677  0.0034  0.0375 -0.0041
23113W        W38582   6.872   4.987   0.884  0.1373 -0.4058 -0.1823
23114W        W38583   5.556  16.592   0.825 -0.2091  0.0713  0.1148
23115W        W38584   0.456   3.285   1.908  0.2070  0.2797 -0.2485
23116W        W38585   5.635  16.997   3.459  0.3584  0.0708 -0.0971
23117W        W38586   0.546  18.061   5.432  0.0163 -0.2754  0.0246
23118W        W38587  13.633  15.617   5.133 -0.0473  0.3111 -0.0354
23119W        W38588   0.944  11.752  13.308 -0.0868  0.3693 -0.2040
23120W        W38589  17.944   7.644  11.359 -0.0922 -0.1041  0.3925
23121W        W38590  11.421   1.997  12.115  0.2307  0.1531  0.0252
23122W        W38591   6.910   6.471   1.695  0.0358 -0.2554 -0.2190
23123W        W38592  11.421   9.822  14.980 -0.2660  0.1401  0.0752
23124W        W38593  12.821   6.248  13.898 -0.1152 -0.3596 -0.4801
23125W        W38594  14.835   2.143   1.958  0.1134 -0.0547  0.1821
23126W        W38595  12.586   0.795   2.622  0.3080  0.3472 -0.0020
23127W        W38596   7.473  15.081   0.423 -0.1612 -0.0540  0.0087
23128W        W38597   3.375   5.692   2.310 -0.1092  0.2632 -0.2368
23129W        W38598   3.430   4.012  12.874 -0.2042 -0.0532  0.0128
23130W        W38599  13.011   0.537  15.221 -0.1093 -0.1474  0.0237
23131W        W38600  13.382   1.120   5.466 -0.0183 -0.0264  0.1863
23132W        W38601  11.940  15.547   3.287 -0.2673 -0.0805 -0.0450
23133W        W38602   0.748  14.465  14.111  0.2323  0.0818 -0.0534
23134W        W38603   2.499  15.861  14.837  0.0624  0.0607  0.0483
23135W        W38604  13.998   1.971   1.504 -0.2724  0.0579 -0.3560
23136W        W38605   7.725   6.086   3.241  0.4393  0.2968 -0.3379
23137W        W38606   3.008   3.999  12.369 -0.1410 -0.2370  0.0203
23138W        W38607  10.111   9.857   0.166  0.3581  0.1537  0.0760
23139W        W38608   9.999  15.271   2.742  0.0204  0.0439 -0.0726
23140W        W38609   5.096  14.655   0.792  0.1150  0.3244 -0.0313
23141W        W38610   3.100   1.192   1.446  0.2099 -0.0932 -0.0110
23142W        W38611  10.784   1.961   3.250  0.0318  0.1949 -0.3130
23143W        W38612  14.949  10.504  12.193 -0.4367  0.0031 -0.2594
23144W        W38613   6.857  12.084   5.389 -0.2846 -0.0328 -0.1287
23145W        W38614   1.734   7.702   3.992 -0.4401  0.0130  0.2076
23146W        W38615  15.352  12.462  15.538  0.2846  0.2079 -0.1283
23147W        W38616   0.793   3.708   1.206 -0.1756  0.2363  0.1447
23148W        W38617  14.540  12.906   1.485 -0.0813  0.3167  0.1345
23149W        W38618  13.415   0.110   2.238  0.0380  0.0681  0.0665
23150W        W38619  18.425   6.978   1.639 -0.3042 -0.0909  0.1802
23151W        W38620  15.181   8.896  13.601  0.1545 -0.0240  0.2594
23152W        W38621  15.357  11.655  12.145  0.2734 -0.1060 -0.1231
23153W        W38622   3.266  17.742  10.796 -0.0873  0.1715  0.2337
23154W        W38623  12.792   1.203  13.354 -0.3186  0.1000  0.0441
23155W        W38624   1.006  17.036   4.044  0.1787  0.3786 -0.1878
23156W        W38625  17.404  11.143   1.591  0.2538  0.3039  0.1891
23157W        W38626   0.847  16.163   3.445 -0.2523  0.0054 -0.4063
23158W        W38627   0.466  12.962   3.311 -0.2881 -0.1487  0.1173
23159W        W38628   5.692   8.515  11.361 -0.0582 -0.1520 -0.1119
23160W        W38629   2.425  17.889   0.120  0.2204  0.0250  0.2055
23161W        W38630   3.518   9.981  14.990 -0.1869  0.1187 -0.2626
23162W        W38631   7.637   5.871  10.702 -0.1749  0.0041 -0.0015
23163W        W38632  13.676   7.984   5.458  0.3701  0.1877  0.0022
23164W        W38633   9.698   7.926  14.972  0.1126  0.2294  0.0882
23165W        W38634   6.519   4.643  12.787  0.0081 -0.1702 -0.0525
23166W        W38635  10.230   4.004  11.342 -0.2646 -0.0238  0.2060
23167W        W38636   3.032  12.922   3.792  0.0317  0.3847 -0.0080
23168W        W38637  14.091  16.652   0.668 -0.0446  0.0224 -0.2543
23169W        W38638   5.724   2.526   3.737  0.2383 -0.1171  0.1124
23170W        W38639   4.190   2.778   5.312  0.0859  0.0930 -0.1047
23171W        W38640   0.542   1.429   0.064 -0.1486  0.0666 -0.0911
23172W        W38641  11.815  13.813  13.048  0.0799 -0.0137 -0.0950
23173W        W38642   9.916   9.401  14.242 -0.2182  0.0640  0.0079
23174W        W38643  15.223   4.767  15.912  0.1991  0.0398  0.4259
23175W        W38644  17.548  11.381   4.151  0.0738  0.5460  0.0293
23176W        W38645   6.450  12.037  15.559 -0.0410  0.2684  0.0205
23177W        W38646   7.729   7.726   3.591  0.0822  0.2170 -0.1586
23178W        W38647   7.109   9.572   0.566  0.2042 -0.1504 -0.0263
23179W        W38648   2.754  12.845   1.676 -0.0906 -0.2209  0.0650
23180W        W38649   0.678  10.759  10.521  0.0611 -0.1710 -0.0679
23181W        W38650   7.077  10.006  11.914  0.3740 -0.3010 -0.0830
23182W        W38651  15.873   6.894   4.318  0.0149  0.2318  0.0748
23183W        W38652  10.778   8.744   3.139  0.2494  0.3996 -0.0481
23184W        W38653  11.173   5.075   1.928 -0.0418  0.1785 -0.0219
23185W        W38654  11.676  15.654  13.414 -0.0563  0.0244 -0.3306
23186W        W38655  17.320   2.432  12.197  0.1506 -0.2370 -0.1587
23187W        W38656  14.548   9.359   1.740 -0.2805  0.0333 -0.2090
23188W        W38657   0.830  15.611   4.671 -0.0032  0.2651 -0.2049
23189W        W38658   5.131  15.932  12.239 -0.0831 -0.0544  0.2625
23190W        W38659   4.640   4.009  13.510 -0.0799 -0.0969  0.0130
23191W        W38660  14.188   6.567   2.179  0.0438 -0.1182  0.0660
23192W        W38661   6.169  10.931   1.803  0.0015  0.0303  0.3080
23193W        W38662   7.247   0.811  14.024  0.1517  0.1682 -0.1441
23194W        W38663  15.753   0.375   5.041 -0.2778  0.1236  0.0726
23195W        W38664   9.457  12.604   5.333  0.0292  0.1305 -0.3573
23196W        W38665  14.236  10.751   0.399 -0.1324 -0.0699 -0.1321
23197W        W38666   1.469   1.484   3.153 -0.1114 -0.0221  0.1073
23198W        W38667   2.348  16.318  15.195  0.1208  0.0883  0.0007
23199W        W38668   5.716  11.016   0.410 -0.1120 -0.2666  0.0438
23200W        W38669   8.226   3.533  10.855  0.2970 -0.0850 -0.1185
23201W        W38670   7.815   4.897   9.910  0.2419 -0.1025 -0.2742
23202W        W38671  10.728  16.058   0.617 -0.0705 -0.1438  0.1675
23203W        W38672  15.790  15.890  15.009  0.1258 -0.0262  0.1221
23204W        W38673   3.186  11.191  11.784  0.2474  0.1993  0.2190
23205W        W38674   0.670  10.611  14.691  0.2826 -0.1056 -0.2954
23206W        W38675  11.310  15.831  12.899 -0.1118  0.1929 -0.0017
23207W        W38676  13.377  10.115  10.976 -0.0020 -0.2611  0.0512
23208W        W38677  13.066   1.539   2.409  0.0756  0.0581 -0.1749
23209W        W38678   3.013   4.099  14.229 -0.2278  0.2127  0.1347
23210W        W38679  18.077  15.763   2.457 -0.1480 -0.0592  0.2259
23211W        W38680   9.407   6.254  12.084  0.1607 -0.1069 -0.1870
23212W        W38681   1.903   0.771   0.144  0.2184  0.1200  0.3686
23213W        W38682  14.198  12.384   9.930  0.0386  0.0631 -0.0600
23214W        W38683  16.774   9.314  15.525 -0.0785  0.1904  0.0036
23215W        W38684   2.016   0.987  11.319 -0.0860  0.0230  0.2185
23216W        W38685  12.312  16.519  15.623 -0.0483 -0.0917 -0.1728
23217W        W38686  12.553   1.420   4.725  0.3783 -0.1030  0.0596
23218W        W38687   1.138   5.682   0.042 -0.0570  0.1436  0.0606
23219W        W38688   0.160  14.973  14.664  0.3168 -0.0616 -0.2066
23220W        W38689   1.143   0.778  13.554  0.1532  0.0797 -0.0835
23221W        W38690  11.754   6.797   0.315 -0.2771  0.0687 -0.0409
23222W        W38691   3.909   9.510   4.889  0.0245 -0.3548  0.2866
23223W        W38692  15.604  11.869  13.583  0.0881 -0.1732 -0.1038
23224W        W38693  14.930  12.160  15.690  0.2168 -0.2596  0.1388
23225W        W38694   9.188   7.669  14.292  0.2786  0.3295  0.1922
23226W        W38695  14.843   9.433   4.126 -0.0227  0.0871 -0.1674
23227W        W38696   0.822  12.736  14.718  0.3078  0.2356  0.2865
23228W        W38697   4.213  13.195   4.956  0.1295  0.0503 -0.1922
23229W        W38698  15.894   9.445   0.537  0.0033  0.2793  0.2096
23230W        W38699   3.282   5.099  15.163 -0.0740  0.0561  0.3104
23231W        W38700  10.127   7.657   4.040  0.2598 -0.0629  0.3471
23232W        W38701  17.982   8.681  11.416  0.1921 -0.1997  0.0831
23233W        W38702  16.141  13.456   0.180  0.0408  0.2848  0.1386
23234W        W38703   2.795   9.750  12.728 -0.0597  0.1453 -0.0708
23235W        W38704  17.913   9.653   1.672  0.3997  0.3028 -0.0336
23236W        W38705  14.126  16.098   3.125 -0.2285  0.1226 -0.2365
23237W        W38706   4.154   3.219  11.782  0.3081  0.2655 -0.3472
23238W        W38707   0.941  10.627  10.941  0.2008 -0.1256 -0.0406
23239W        W38708   1.509   2.858  12.052 -0.0252  0.1676  0.0132
23240W        W38709   9.833  13.576  15.812 -0.0009 -0.0983 -0.1387
23241W        W38710   0.304  11.090   3.633 -0.0339 -0.2657  0.0082
23242W        W38711   3.580   8.261  12.014 -0.1993  0.4583 -0.1018
23243W        W38712   9.538  11.155  14.296  0.1642  0.1915 -0.1956
23244W        W38713  15.091  10.053   3.636  0.2224 -0.0979  0.1258
23245W        W38714  12.958   0.281   1.151  0.0649 -0.0147 -0.3507
23246W        W38715  11.654   8.891   4.201 -0.4087  0.1196 -0.1884
23247W        W38716   1.115  18.012   5.009 -0.2990  0.2078 -0.0337
23248W        W38717  18.320   1.390   5.605  0.2453  0.3718 -0.5025
23249W        W38718  14.886  15.661  14.853 -0.2169 -0.1193 -0.0760
23250W        W38719   7.644   6.217   1.218 -0.0480  0.1297 -0.1290
23251W        W38720   7.640  13.759  11.058 -0.1390 -0.0537 -0.3012
23252W        W38721  18.343   9.722  10.630  0.2716 -0.1846 -0.1722
23253W        W38722  17.123   6.661   1.458  0.3101 -0.2036  0.1937
23254W        W38723   8.065   0.529   3.598  0.0136 -0.0693  0.0605
23255W        W38724  16.765   0.046   2.706 -0.1822 -0.0178  0.0249
23256W        W38725   1.598   2.329  14.865 -0.4210  0.1072 -0.0451
23257W        W38726   6.805  16.663  11.119 -0.2367 -0.0235 -0.0274
23258W        W38727   9.539   0.337  15.173  0.0975 -0.2614  0.1394
23259W        W38728   5.999  17.270   2.138 -0.1522  0.0271 -0.0621
23260W        W38729   6.022  16.981  11.835 -0.0479  0.0587 -0.0013
23261W        W38730  11.938   3.406  14.241 -0.2438  0.3775 -0.1573
23262W        W38731  16.204  16.453   3.455  0.2162  0.3520  0.1581
23263W        W38732  12.656  13.276   3.782  0.0038 -0.0421 -0.4909
23264W        W38733   3.768   0.788   0.832  0.0099  0.0018 -0.2486
23265W        W38734   4.080  14.776  12.476  0.5098  0.0167  0.1053
23266W        W38735  13.733   9.853   2.114 -0.0406  0.0564 -0.0384
23267W        W38736  17.750  14.504  12.910 -0.2855 -0.1292  0.1908
23268W        W38737  15.927  11.055   0.107 -0.1286  0.2522  0.0586
23269W        W38738   2.884   3.258   6.017 -0.2699  0.0069 -0.0923
23270W        W38739   7.395   9.740  12.423 -0.1362  0.0131  0.0468
23271W        W38740   7.868   5.378   2.456 -0.0743  0.0031 -0.2121
23272W        W38741  16.213   5.159   2.906 -0.0594 -0.0575  0.0002
23273W        W38742  14.665  15.619  12.989  0.3892  0.0006  0.0971
23274W        W38743  15.290  17.119  14.687 -0.0149  0.1113 -0.2560
23275W        W38744  16.073   4.432   4.862  0.4002  0.1883 -0.0269
23276W        W38745   5.621   3.815   4.269  0.1373 -0.1954  0.1913
23277W        W38746  14.837   3.928  13.094 -0.2956 -0.0254 -0.0641
23278W        W38747  17.611  16.048   4.669  0.2589  0.3944 -0.2789
23279W        W38748   1.202   3.732   2.573 -0.0203  0.1310  0.2572
23280W        W38749   2.638  16.107  14.373 -0.0544  0.0647 -0.1045
23281W        W38750  13.557  14.149   0.029 -0.0294 -0.1560  0.0751
23282W        W38751  13.917  13.240  15.393  0.0546  0.1340  0.2567
23283W        W38752   3.578  18.359   3.016  0.0394 -0.0906  0.1151
23284W        W38753   5.686  12.560  13.014 -0.4109 -0.2618 -0.0400
23285W        W38754   9.181   2.490   2.812 -0.1091  0.0353  0.0083
23286W        W38755   2.014   6.679  13.022  0.2620  0.2544 -0.0202
23287W        W38756  14.329   9.487   4.919  0.0029 -0.2346  0.0476
23288W        W38757   0.346   2.956  12.604  0.0490  0.2650 -0.0948
23289W        W38758  13.122   3.204   2.129 -0.2093  0.0661  0.0097
23290W        W38759   8.245   7.370  12.830  0.1044 -0.0191  0.1144
23291W        W38760  15.750   6.318  15.299  0.2159  0.0141  0.2728
23292W        W38761  13.029  16.638   3.278 -0.1593  0.0592 -0.1690
23293W        W38762  17.298  14.955   5.233 -0.2028 -0.1503 -0.0166
23294W        W38763   9.982  13.564  14.166  0.1128 -0.0147  0.0356
23295W        W38764  16.886  11.023   1.856  0.0720 -0.2042 -0.2531
23296W        W38765  14.743   5.316  14.307 -0.0252  0.0903 -0.0434
23297W        W38766  10.313   7.462  14.197 -0.0290 -0.2815 -0.0572
23298W        W38767   2.041   3.571   1.645 -0.1687 -0.3328  0.0182
23299W        W38768  17.720  16.596   2.502 -0.1761  0.0327 -0.1366
23300W        W38769  11.487  10.505   5.387  0.2191 -0.1280 -0.1728
23301W        W38770  15.833   5.800   1.852  0.0976  0.0907  0.1415
23302W        W38771   5.096   5.798   4.443  0.0766 -0.0141  0.1860
23303W        W38772  10.110  17.873   3.876  0.4704 -0.3000  0.1070
23304W        W38773   9.590   2.658   3.565  0.0598  0.5289  0.1049
23305W        W38774   6.447  17.366   0.978 -0.2320 -0.1335  0.0257
23306W        W38775   0.029  16.045   3.028 -0.3063 -0.0707  0.0978
23307W        W38776   6.462  15.163  15.451 -0.1329  0.0005 -0.2605
23308W        W38777   3.906  11.451  14.078  0.0511  0.0752  0.1244
23309W        W38778   7.841  13.065   3.789  0.1836 -0.1404 -0.1511
23310W        W38779  13.192   3.811  13.774 -0.3193  0.1277  0.0741
23311W        W38780  18.365   8.463  14.922 -0.0706  0.0736 -0.4556
23312W        W38781  16.732   9.342  13.295  0.1193  0.0185 -0.0207
23313W        W38782  13.649  15.539  12.511  0.2245 -0.3123  0.0402
23314W        W38783   4.072  15.166   4.211  0.0414  0.2017  0.0610
23315W        W38784  15.951  11.674  12.789 -0.0734 -0.1118  0.2377
23316W        W38785  18.317  14.762  12.010 -0.0013 -0.1020 -0.0673
23317W        W38786   2.041   5.442  10.972  0.1035  0.0712  0.0824
23318W        W38787  15.314  13.318   5.303  0.1406 -0.0788 -0.0253
23319W        W38788   3.725   3.025  12.852  0.0888 -0.1671 -0.1222
23320W        W38789   5.499   9.243  15.099  0.3724 -0.0047 -0.1904
23321W        W38790   1.071   5.569  15.179  0.1136  0.3798  0.0156
23322W        W38791   5.116  11.771   4.248 -0.0143  0.5241 -0.1043
23323W        W38792   4.726   2.623  15.522 -0.0378 -0.1419 -0.0208
23324W        W38793  18.434  14.137   0.205 -0.2651  0.1226 -0.1110
23325W        W38794   8.633   0.248  11.603  0.0286  0.0415 -0.1868
23326W        W38795  17.458  10.480   4.211 -0.1368  0.4096 -0.0640
23327W        W38796  15.049  11.900  14.875  0.0096 -0.1406 -0.1476
23328W        W38797   1.658  13.271   2.026  0.1333 -0.2573 -0.2093
23329W        W38798   3.619  10.795   5.024 -0.3149  0.1280 -0.1526
23330W        W38799  11.033   1.774   0.979  0.3288 -0.2892 -0.0364
23331W        W38800   9.468   4.783   4.110 -0.0031  0.0172 -0.0567
23332W        W38801   9.922  15.197  12.862  0.0077  0.0272  0.3000
23333W        W38802  10.758   0.416  13.920 -0.1500 -0.2064  0.1850
23334W        W38803  15.888  14.878  10.921  0.2176  0.0265  0.1917
23335W        W38804   0.416  16.780   1.274  0.1824 -0.1175 -0.0574
23336W        W38805   5.425  16.940   2.067  0.0784 -0.0152  0.1016
23337W        W38806   9.830   8.881   6.062 -0.1667  0.1687  0.1206
23338W        W38807   0.406   9.174  15.894 -0.0967  0.1564 -0.1204
23339W        W38808  15.605   0.725   2.903  0.2373  0.0480 -0.4292
23340W        W38809  16.716  13.203   5.164 -0.2021 -0.1540 -0.1362
23341W        W38810   3.964  10.494   2.329  0.0326 -0.2778 -0.1024
23342W        W38811  10.607   6.069   0.884  0.3510  0.2569 -0.2067
23343W        W38812   6.379   8.179  10.853  0.0884 -0.1480  0.2476
23344W        W38813   9.012   7.326   0.974 -0.0443  0.1753 -0.0002
23345W        W38814  11.269  15.611   0.359 -0.0024 -0.0137  0.1472
23346W        W38815  18.476   5.304  10.555  0.0864  0.1941 -0.2297
23347W        W38816   1.159   1.862   2.372 -0.2724  0.0492 -0.0924
23348W        W38817  13.615   2.940  11.005  0.0418 -0.1179 -0.1666
23349W        W38818  13.951   3.269  11.150  0.0481  0.4413  0.0006
23350W        W38819  10.084  11.639  14.939  0.0145  0.2538 -0.0869
23351W        W38820   3.231   1.437  11.420  0.2573  0.0442  0.1538
23352W        W38821   2.689  11.945   5.368 -0.1101 -0.0258  0.2403
23353W        W38822   1.942  10.730  14.286  0.2481 -0.1600  0.1626
23354W        W38823   9.854   5.705   3.704 -0.0922 -0.0635 -0.0823
23355W        W38824   7.003   7.616   3.098  0.1605 -0.2587 -0.1454
23356W        W38825  17.069  13.470  11.401 -0.2170 -0.0775 -0.1113
23357W        W38826   5.877  18.231  12.803 -0.3603  0.2245 -0.0532
23358W        W38827   0.071   2.416   2.491 -0.1837 -0.2195 -0.1546
23359W        W38828   2.724  13.476   2.489  0.0437 -0.0295 -0.0690
23360W        W38829   1.155  13.941   1.870  0.0804  0.0233 -0.1407
23361W        W38830  15.302  10.247  14.702 -0.4292 -0.0811 -0.0035
23362W        W38831   9.925  16.067  10.147 -0.2525 -0.0413 -0.5204
23363W        W38832  15.993  10.406  10.560  0.0412  0.3484 -0.1890
23364W        W38833   9.213   8.171  14.135  0.0527  0.1338 -0.0715
23365W        W38834   4.077   2.043  14.753 -0.0664 -0.0457  0.3858
23366W        W38835  16.654   3.556  13.748 -0.0213 -0.5483 -0.2314
23367W        W38836  17.916   8.811  12.327 -0.1053  0.0434  0.0392
23368W        W38837  16.651   0.136   4.492 -0.1106 -0.0320  0.0127
23369W        W38838  18.364   0.236  13.133  0.0398 -0.1576 -0.1265
23370W        W38839   3.173  12.558   2.925  0.2036  0.1380  0.2007
23371W        W38840  11.354   5.291  10.914  0.2253  0.3442  0.0170
23372W        W38841  15.817   5.836  11.261  0.1742 -0.0425  0.0981
23373W        W38842  17.089  14.949  11.536 -0.0342  0.1958 -0.1373
23374W        W38843   3.949  14.332  12.172 -0.0691 -0.3886 -0.0530
23375W        W38844   9.414  10.533   4.481 -0.1016  0.1692  0.1300
23376W        W38845  16.188   4.061   0.782 -0.0995 -0.2800 -0.0110
23377W        W38846  13.138   8.446   3.215 -0.2624  0.0216  0.0591
23378W        W38847  13.812  10.032  10.739 -0.0505  0.0568 -0.0749
23379W        W38848  13.971  16.372  11.710 -0.1279  0.2271  0.1781
23380W        W38849  13.572   4.666  12.440 -0.2914  0.4453 -0.0712
23381W        W38850  11.921   2.043  12.297  0.0085 -0.1208 -0.2425
23382W        W38851  13.859   9.383   0.796  0.3306 -0.1255 -0.3159
23383W        W38852   3.510  14.827  10.037 -0.1834  0.0855 -0.0657
23384W        W38853  13.917   6.725   1.725 -0.0082  0.2509 -0.0831
23385W        W38854  13.664  15.440   2.247 -0.1085  0.2837  0.2087
23386W        W38855  18.054   3.413   1.317  0.0475  0.1766 -0.1459
23387W        W38856  11.943   1.405  12.844 -0.0136 -0.1527 -0.0435
23388W        W38857   9.945   2.646   1.111  0.1547 -0.0459  0.0762
23389W        W38858  16.849   8.287  13.112  0.1827  0.0664  0.1233
23390W        W38859   5.819   4.562   2.603  0.0820  0.0199  0.2843
23391W        W38860   6.470  11.891  12.604  0.2741 -0.0427 -0.0665
23392W        W38861  14.031   1.197   2.118 -0.2118 -0.2313 -0.1049
23393W        W38862   1.015  11.837  12.442 -0.1747  0.2648  0.1866
23394W        W38863   0.984   3.475  15.695  0.1630  0.0252  0.1240
23395W        W38864   6.464   0.615  11.311  0.0055 -0.0471  0.0777
23396W        W38865  18.028  17.582   9.955 -0.1031  0.0161 -0.2095
23397W        W38866  15.281  15.231   1.271 -0.2594 -0.1968 -0.0005
23398W        W38867   1.520   8.505  14.665  0.1549 -0.1623  0.2003
23399W        W38868  10.502   5.063   4.990 -0.2988 -0.0945  0.0967
23400W        W38869   9.181  11.090   3.337 -0.1745 -0.1206 -0.4388
23401W        W38870   4.969   1.690   2.408  0.0541 -0.2660 -0.2909
23402W        W38871   7.510  12.372   0.787  0.5889 -0.2470 -0.3111
23403W        W38872   0.131   4.250   0.856  0.3596  0.0816  0.0743
23404W        W38873   6.299  16.096   5.443 -0.2326 -0.0838  0.1778
23405W        W38874  10.066   2.076  12.502  0.0202 -0.0828  0.1635
23406W        W38875   7.375   2.330   4.204  0.0015  0.1020  0.0985
23407W        W38876  16.875  10.588  14.583 -0.1702  0.1030  0.1369
23408W        W38877  15.692  16.168  11.497 -0.2162  0.1288 -0.0727
23409W        W38878   9.749  13.584   4.659  0.2841  0.0237  0.1000
23410W        W38879  11.682  17.461   1.832 -0.0231 -0.3132 -0.1249
23411W        W38880   0.211  11.950   0.379 -0.1201 -0.1041  0.3054
23412W        W38881  10.554   8.391  13.793 -0.1786  0.2901  0.2308
23413W        W38882   5.261  14.435   2.216  0.1519  0.2125  0.1690
23414W        W38883   4.946  11.695  12.428 -0.0536  0.2567 -0.1560
23415W        W38884   4.909   6.159  12.821 -0.1514 -0.1481  0.1169
23416W        W38885  11.646   5.633  11.206  0.3672  0.1375  0.0382
23417W        W38886  18.175  15.985  12.926 -0.0959  0.6250 -0.0431
23418W        W38887  18.080   5.718   1.557 -0.0497 -0.2807  0.2006
23419W        W38888   7.624   2.270   1.213 -0.0068  0.0848  0.2193
23420W        W38889  17.849  10.872   2.353  0.0181 -0.1622  0.0277
23421W        W38890  11.818  11.387  13.501  0.2876  0.2721  0.2273
23422W        W38891   3.756   3.601   5.725 -0.0311 -0.0624  0.0113
23423W        W38892  11.275  16.199   2.876  0.0875 -0.0116  0.2500
23424W        W38893  16.471  11.320   2.438 -0.2302  0.1896  0.2300
23425W        W38894  13.745  11.546  14.126 -0.1314 -0.2547  0.1534
23426W        W38895   0.169   6.073   1.052 -0.0605  0.1411  0.1438
23427W        W38896  12.314  10.009  13.515  0.0348 -0.2421  0.1527
23428W        W38897  15.719   2.855   3.161 -0.1154 -0.1583  0.0600
23429W        W38898  16.520   8.848  15.219 -0.1004 -0.2586  0.1166
23430W        W38899   5.371   7.945  10.330  0.2936  0.1168 -0.2915
23431W        W38900  11.496  15.492   4.329 -0.0356  0.0071 -0.0640
23432W        W38901   7.612   0.258   0.587 -0.1261  0.0670 -0.1561
23433W        W38902   2.140   1.559   0.928  0.0383 -0.1023  0.2709
23434W        W38903  12.051  14.992   3.409  0.2107 -0.0515  0.0525
23435W        W38904   9.808   8.936  14.584 -0.0447  0.1766  0.0488
23436W        W38905   7.458  10.407   0.754  0.2434 -0.0450 -0.3044
23437W        W38906   4.886   0.120   3.116 -0.0422 -0.1672  0.4159
23438W        W38907   0.848   4.602  10.021  0.3612  0.1930 -0.0200
23439W        W38908   2.765   3.404  14.753 -0.2713  0.1712 -0.4398
23440W        W38909  10.590   7.493   2.937  0.0064  0.2045  0.0153
23441W        W38910   7.995   4.746  12.667  0.1124 -0.1875  0.0152
23442W        W38911  11.846  13.496  12.183 -0.0137  0.0826 -0.3990
23443W        W38912   7.814  17.041   4.236  0.0933  0.1104 -0.1703
23444W        W38913  10.882   6.652  11.360  0.0812  0.2785  0.1919
23445W        W38914  17.375   9.455   2.303 -0.2038  0.1503 -0.3734
23446W        W38915  10.056  12.396   5.580  0.3116 -0.2911  0.0900
23447W        W38916   5.778  13.418   1.132 -0.1776 -0.3763  0.1675
23448W        W38917   4.823  14.056  11.708 -0.0043 -0.1175  0.1467
23449W        W38918  11.132  12.343  15.426  0.0247 -0.2409  0.1538
23450W        W38919   9.345   8.100  14.681  0.4078 -0.0206  0.0671
23451W        W38920  15.550   9.307   0.202 -0.2475 -0.2997 -0.2157
23452W        W38921   9.254  10.626   1.442 -0.0836  0.0361  0.0343
23453W        W38922  11.669  15.805   4.027  0.4109 -0.0528  0.2051
23454W        W38923  12.485  10.240   3.242  0.1520 -0.0169  0.2050
23455W        W38924   3.423   8.594   1.137  0.0727  0.2716 -0.1202
23456W        W38925   9.104  15.129  11.814 -0.0022 -0.0374 -0.0137
23457W        W38926   2.671  14.905  14.230  0.0043  0.0156  0.0105
23458W        W38927  13.232   1.658   9.960  0.0634  0.0445  0.2727
23459W        W38928   8.952   3.314   2.667  0.0198  0.2279 -0.1763
23460W        W38929   9.773  13.045  11.502  0.2855 -0.0092  0.0868
23461W        W38930   9.188   8.070  10.931  0.1442 -0.1162 -0.3662
23462W        W38931   5.447  14.092  14.617  0.3257 -0.1652  0.0322
23463W        W38932  16.065   0.177   3.268  0.1673  0.0203  0.1151
23464W        W38933   5.506   7.529   9.939  0.0425  0.3234  0.2576
23465W        W38934   3.911   5.352   1.617 -0.0726  0.4840 -0.0182
23466W        W38935   2.638  18.010   3.794 -0.1726  0.2445 -0.0054
23467W        W38936   0.245   7.290   0.855  0.3634 -0.1550 -0.0458
23468W        W38937   0.158   4.538  14.263 -0.0557 -0.2493 -0.2859
23469W        W38938   7.481  15.112  15.841  0.3029 -0.0339 -0.2109
23470W        W38939   9.635   6.326   2.009 -0.0983  0.0939  0.1899
23471W        W38940   3.609   3.300   0.528  0.1777 -0.2106  0.0765
23472W        W38941  16.728   5.378   2.131  0.1068 -0.1900 -0.0661
23473W        W38942  17.794   5.944   2.245 -0.2837  0.3586 -0.1531
23474W        W38943   1.906   5.492   3.461 -0.1554 -0.1632 -0.1444
23475W        W38944  17.360   4.648  10.492 -0.0794  0.0318 -0.2729
23476W        W38945  10.457  14.960   0.121 -0.1340 -0.1293  0.0600
23477W        W38946   3.094   3.483  12.561 -0.0981 -0.0145  0.1250
23478W        W38947   4.704   1.182  15.737 -0.2467 -0.1884 -0.0152
23479W        W38948   5.556  13.158  11.249  0.1036  0.0389 -0.1485
23480W        W38949   6.539  15.432   4.431 -0.0481 -0.0960  0.2100
23481W        W38950   3.210  12.684  14.112 -0.0488 -0.0190  0.3089
23482W        W38951  16.012   8.618   0.157 -0.3088  0.1412 -0.0245
23483W        W38952   7.871  16.610  15.343  0.0219  0.2783 -0.3112
23484W        W38953   6.513  15.393  14.938 -0.0083 -0.2362  0.0544
23485W        W38954   7.892   1.238  11.435  0.2060 -0.2134  0.1599
23486W        W38955   9.164   5.204  15.168  0.1076  0.2302 -0.3745
23487W        W38956   2.396  10.656  15.493 -0.3168  0.0388 -0.3036
23488W        W38957  16.078  17.160  15.550 -0.0994  0.1285  0.1505
23489W        W38958   2.669   2.105  11.694 -0.2302  0.0736 -0.0755
23490W        W38959   9.301   4.059  11.242  0.0195 -0.0207  0.1336
23491W        W38960  11.616   8.651   3.493  0.1398  0.1008  0.0246
23492W        W38961  12.500  12.369   5.103  0.4513 -0.2651 -0.1580
23493W        W38962   2.483  11.885  14.003  0.2429  0.1238 -0.0719
23494W        W38963   0.425   6.966  15.366  0.0487 -0.0472  0.0109
23495W        W38964   8.719  17.067   4.579 -0.0312  0.1508 -0.1539
23496W        W38965   9.696   1.923  12.103  0.1669  0.2492  0.1480
23497W        W38966  15.588   8.687   4.705  0.0216 -0.0656 -0.4473
23498W        W38967   7.119   6.755   2.242  0.0029 -0.0926  0.0640
23499W        W38968  17.307  11.065   2.657 -0.3055 -0.2175  0.0027
23500W        W38969   2.930   1.663  15.513  0.3257 -0.0690 -0.2707
23501W        W38970   6.494  10.351  14.630 -0.1590  0.0254 -0.1145
23502W        W38971   7.509  16.733  14.517  0.2514 -0.1300 -0.0110
23503W        W38972  10.216   0.524  15.827 -0.2964  0.0169 -0.1230
23504W        W38973  17.376  17.626   2.696 -0.0014 -0.1384 -0.0239
23505W        W38974  14.108  15.299  15.207 -0.3626  0.0091 -0.0272
23506W        W38975  16.683   0.091   1.323 -0.1857 -0.2818 -0.3030
23507W        W38976   0.772   3.808   1.681  0.3694  0.1568 -0.0587
23508W        W38977  12.373  10.702  15.441 -0.1719  0.2414  0.0813
23509W        W38978  10.156   5.731  11.287 -0.2596 -0.0500 -0.0385
23510W        W38979   7.332  12.833   0.684 -0.1005  0.2015 -0.2049
23511W        W38980  16.620  16.998  15.422 -0.0585  0.0927 -0.0589
23512W        W38981   9.510  12.628  12.194 -0.0257  0.1815  0.1873
23513W        W38982   1.577  10.611  14.978  0.2689  0.0173 -0.2387
23514W        W38983  14.438  16.518   5.689  0.4106  0.0885 -0.0762
23515W        W38984   4.211   7.973  13.658 -0.1349  0.0889  0.0538
23516W        W38985  14.908   5.231   2.447 -0.0953  0.3821  0.1486
23517W        W38986  13.471  12.230  11.368  0.0354 -0.1560 -0.1856
23518W        W38987  18.197   1.741   0.525 -0.0460  0.1845 -0.1726
23519W        W38988   5.513  17.849  12.556  0.2583 -0.3593  0.1864
23520W        W38989   8.956   4.611   5.567 -0.3436 -0.0123  0.1896
23521W        W38990   1.299  14.309   4.451 -0.0475  0.0896  0.3097
23522W        W38991  16.893   8.545   9.717 -0.0425 -0.2249  0.1029
23523W        W38992  15.404   6.811  15.800 -0.0791 -0.1235  0.2387
23524W        W38993   3.632  10.603  14.116  0.1471 -0.1885  0.2823
23525W        W38994  13.758   8.452  12.551  0.3350  0.3881 -0.1767
23526W        W38995   7.869   2.406   0.435 -0.1312 -0.2230  0.1132
23527W        W38996   7.822   5.445   5.107 -0.1161  0.1321  0.0119
23528W        W38997   7.415  13.457   5.420 -0.1501  0.1944  0.1388
23529W        W38998   4.474  10.912  11.885  0.0405  0.2414 -0.1053
23530W        W38999  12.135  17.138  15.863  0.0138 -0.0823  0.2950
23531W        W39000  12.072   4.689   1.912 -0.1442 -0.1103  0.1756
23532W        W39001   3.118  16.384   1.715 -0.1551 -0.1423  0.1808
23533W        W39002   5.655  18.306  14.594 -0.2750  0.0851 -0.0518
23534W        W39003  11.409  13.781   1.142  0.2058  0.0502  0.3014
23535W        W39004  11.278   9.858   3.773  0.0030  0.1178  0.1193
23536W        W39005   1.490  10.886  10.907  0.1467 -0.1602  0.0445
23537W        W39006  12.245  14.535  11.584 -0.0668 -0.4106  0.2978
23538W        W39007   9.043   9.661   4.007  0.1281 -0.4748  0.1969
23539W        W39008   7.527   7.234   1.483  0.0969 -0.2368  0.1057
23540W        W39009  12.220   4.246  15.337 -0.0351 -0.0899  0.0555
23541W        W39010  10.617  17.418   5.507  0.1855  0.0691 -0.1681
23542W        W39011  12.436   3.959   2.180  0.2249 -0.1449  0.3140
23543W        W39012   9.687   5.812   1.250 -0.0633  0.0105  0.5026
23544W        W39013   2.889   7.630  13.390 -0.0415 -0.0332 -0.2486
23545W        W39014   0.526   4.507   3.474 -0.1171  0.1821 -0.3104
23546W        W39015   6.913   2.743  13.248 -0.1609 -0.3513 -0.1325
23547W        W39016  15.279   9.654   1.131  0.1328  0.0081 -0.0466
23548W        W39017   7.339   1.893  14.817 -0.0463  0.1792  0.1074
23549W        W39018  10.510   4.331  15.466  0.2036  0.0478 -0.0738
23550W        W39019   9.508  10.720   0.944 -0.2216  0.1116  0.0805
23551W        W39020   3.137  16.398   1.153 -0.0397 -0.0081  0.0763
23552W        W39021   5.654  12.188  12.510  0.1136  0.3885 -0.0369
23553W        W39022  10.408   1.913   4.495 -0.0945 -0.2745 -0.4100
23554W        W39023  16.553  13.128   1.367  0.2048  0.0102  0.1510
23555W        W39024  10.907  17.130  13.863 -0.0778 -0.1407  0.0630
23556W        W39025  10.252   2.647   2.363  0.1446 -0.2770 -0.0282
23557W        W39026   6.425  13.655  14.215 -0.0100  0.1131 -0.1300
23558W        W39027   4.267  13.095  11.209  0.0405 -0.1366  0.0603
23559W        W39028   1.271  14.243   0.324  0.4190  0.2561  0.1249
23560W        W39029  11.394   8.230  13.444  0.1333  0.3966  0.0735
23561W        W39030   8.980   7.707  10.096  0.0435  0.1458  0.0618
23562W        W39031   3.411  12.487  15.881  0.3231 -0.0459  0.1214
23563W        W39032  13.843   6.800  12.941 -0.0407  0.0462  0.1029
23564W        W39033   3.817   0.032   4.571 -0.0644 -0.2737 -0.0733
23565W        W39034  18.241  11.970  12.739  0.1201  0.0060 -0.3518
23566W        W39035  14.975  11.442   0.897  0.0623 -0.0658  0.0050
23567W        W39036   0.989  12.790  12.477 -0.0966 -0.1384  0.0806
23568W        W39037  14.110   6.857   3.492  0.0289  0.0893 -0.0874
23569W        W39038  10.827   7.833  12.868  0.1384  0.0188 -0.0777
23570W        W39039   2.398  12.415  10.636 -0.1282 -0.0008  0.2768
23571W        W39040  16.777   1.089  13.404  0.4179 -0.3209  0.2607
23572W        W39041   4.600   2.063  14.705 -0.1483  0.1381  0.0175
23573W        W39042   9.556   6.213   2.927  0.3266  0.0484 -0.1033
23574W        W39043   6.685   0.837   3.720 -0.0878  0.2012 -0.2816
23575W        W39044  13.987   2.099  14.201 -0.0950  0.1679  0.1987
23576W        W39045  16.013  13.707   3.531 -0.1557 -0.2514 -0.2200
23577W        W39046   3.241  12.683   3.363  0.1656  0.1502 -0.0092
23578W        W39047  10.390   7.894  13.620 -0.2896 -0.1669  0.0975
23579W        W39048  15.344   6.563   5.737 -0.2393 -0.2392 -0.3363
23580W        W39049  13.623  15.460  13.039 -0.0834 -0.2881 -0.1265
23581W        W39050  15.327  15.507  11.700  0.0015 -0.0698  0.1773
23582W        W39051   1.373  12.039   5.292 -0.1226 -0.0761 -0.1501
23583W        W39052   9.345   1.504  13.928 -0.1413 -0.1254 -0.1372
23584W        W39053  11.569   8.280  14.771 -0.1531 -0.1184 -0.0620
23585W        W39054  13.935   2.295  11.357 -0.0220  0.0678 -0.0686
23586W        W39055   4.307   5.405   4.684  0.3350 -0.2772  0.0893
23587W        W39056  13.060  14.210   0.018  0.1947 -0.0617 -0.1547
23588W        W39057   9.008  15.641   1.100  0.2120 -0.2641 -0.0453
23589W        W39058  12.041  14.934   1.554 -0.0947 -0.1016 -0.0313
23590W        W39059  17.331  13.803  11.114 -0.4824 -0.0651 -0.2795
23591W        W39060  17.119   1.729  15.693 -0.1655  0.1979  0.2868
23592W        W39061  15.422   6.753   4.612  0.0170  0.4025  0.2395
23593W        W39062   1.456  16.732  14.197  0.0450  0.1001  0.1816
23594W        W39063  15.589   1.891   1.261  0.1270  0.0093  0.2860
23595W        W39064   1.151   9.609   2.856  0.2852 -0.0128  0.1568
23596W        W39065   5.643  12.688  12.406  0.0645  0.0095 -0.2120
23597W        W39066  11.945  12.109  11.651 -0.0874  0.0395 -0.1286
23598W        W39067  13.985   8.160   2.294  0.2834  0.0517  0.0152
23599W        W39068  14.062  15.370   1.906 -0.1795 -0.1036  0.3718
23600W        W39069  12.195   6.208   1.967  0.0720 -0.2830 -0.0852
23601W        W39070  10.670  18.305  15.408 -0.1131  0.1003 -0.0243
23602W        W39071   5.033   0.141  12.993 -0.0458 -0.0588  0.0338
23603W        W39072   6.081   9.497  12.273 -0.0371 -0.1917  0.3210
23604W        W39073  16.887   9.113   5.422  0.2675  0.3820  0.0340
23605W        W39074   1.539  12.153   0.495 -0.1757  0.2457 -0.0317
23606W        W39075   9.376  11.832   0.600  0.3803 -0.4701 -0.0224
23607W        W39076  12.679   1.394   3.180  0.1471 -0.1143 -0.0196
23608W        W39077   0.644   5.521  14.184  0.0663 -0.5481  0.0906
23609W        W39078  15.654   5.294   0.574  0.0680 -0.4698 -0.0433
23610W        W39079   8.714   5.393   2.942 -0.0062  0.1484  0.1203
23611W        W39080   0.763  17.481  14.064  0.2707  0.2215  0.1244
23612W        W39081  18.176   0.156   5.398  0.1247 -0.0982  0.2703
23613W        W39082  10.444  15.041  12.673 -0.1183  0.1232  0.1119
23614W        W39083   8.375   3.597  11.346  0.0474 -0.1196  0.2619
23615W        W39084   7.173  10.536  12.604  0.0098 -0.0844 -0.0755
23616W        W39085   1.248   8.826  13.831 -0.2261  0.0318 -0.1302
23617W        W39086  16.160  16.441   5.037  0.0212  0.2519  0.1902
23618W        W39087   3.774  11.581   1.226  0.2247 -0.2766  0.1573
23619W        W39088   3.965  14.695  10.120 -0.2499 -0.0463 -0.1313
23620W        W39089   4.882   2.420  11.665  0.0845 -0.3170  0.2230
23621W        W39090  14.154   6.098   0.778 -0.1561  0.2355 -0.1604
23622W        W39091  15.163  15.767   1.895  0.0110  0.2123 -0.2278
23623W        W39092  12.397   2.268  14.730 -0.3077 -0.2019  0.3279
23624W        W39093  10.413   6.604  11.556  0.0259 -0.3186 -0.3176
23625W        W39094  12.720  16.164   0.890 -0.1031  0.0990  0.1028
23626W        W39095   3.950  14.619  13.401  0.3485  0.1824 -0.4026
23627W        W39096   5.738   0.375  14.445  0.0772  0.1758 -0.0137
23628W        W39097  12.259  14.762  12.229 -0.1589 -0.0256  0.2218
23629W        W39098  10.119  17.095   0.077  0.0850 -0.1090  0.0696
23630W        W39099  11.342  12.079  14.899  0.2728 -0.0793 -0.0307
23631W        W39100   0.215   2.688  13.044 -0.0939 -0.2515  0.1873
23632W        W39101  16.600   3.190   1.569 -0.1248  0.2432 -0.0607
23633W        W39102   3.490   9.451   2.217  0.0987  0.3446  0.0575
23634W        W39103   2.604   3.739  14.462  0.1636  0.0087 -0.2542
23635W        W39104   1.945  15.203  12.342 -0.2665  0.0064  0.0882
23636W        W39105  12.711   1.149  12.498 -0.2518 -0.1970  0.0774
23637W        W39106  14.006  11.729  14.481 -0.1258  0.0707  0.2218
23638W        W39107   9.588   7.858  12.671 -0.0555 -0.0305  0.3095
23639W        W39108   2.461  16.601   0.543 -0.0752 -0.0357 -0.2541
23640W        W39109   8.950   7.620  12.492 -0.1156  0.0594 -0.1945
23641W        W39110   7.787  14.867   5.786 -0.4602 -0.5166  0.2678
23642W        W39111  16.442   1.120  14.545 -0.2464  0.0305 -0.4418
23643W        W39112  17.864  14.006  12.305 -0.0112 -0.2695 -0.0928
23644W        W39113  10.514   5.873  12.203 -0.1935  0.0606 -0.1184
23645W        W39114  14.275  14.384   2.802  0.0417  0.1970  0.0074
23646W        W39115   5.081  11.101   1.173  0.0216 -0.0897  0.0085
23647W        W39116  14.952  15.281  12.384 -0.0364  0.0143 -0.0778
23648W        W39117   7.761  15.492   4.600 -0.2939 -0.2156  0.0477
23649W        W39118   6.584  12.510   5.370  0.1390  0.0458 -0.1132
23650W        W39119  15.061   5.332  14.739 -0.0363 -0.0745 -0.4633
23651W        W39120  14.145  11.501   2.853  0.1420  0.4419  0.1527
23652W        W39121  12.686   9.026  12.596 -0.0472 -0.0834  0.2992
23653W        W39122   4.185  14.808  13.815  0.0204 -0.1863  0.0367
23654W        W39123   2.173  17.934  11.666 -0.1569  0.1250  0.2974
23655W        W39124  10.444   6.282  11.918 -0.0030 -0.2328  0.1599
23656W        W39125   3.375  17.290  14.197  0.1591 -0.2616 -0.2440
23657W        W39126   5.501   1.369  14.615  0.2463  0.4372 -0.1099
23658W        W39127   8.722   8.044   0.877  0.0493  0.4094  0.3020
23659W        W39128   6.567  11.975   0.194  0.1189  0.1233 -0.1233
23660W        W39129  18.368   1.108  12.825  0.1602 -0.1226  0.1645
23661W        W39130  16.940   5.270   4.220 -0.0692 -0.4243 -0.1280
23662W        W39131   0.644  12.654  12.148 -0.1190 -0.0124 -0.2809
23663W        W39132  16.190   2.007   5.128  0.3159  0.1760  0.0853
23664W        W39133  16.653  12.145  12.329  0.1658 -0.2457  0.0463
23665W        W39134  11.707   7.026   4.041 -0.1470 -0.0372  0.1662
23666W        W39135   8.791   4.033   0.035  0.1680 -0.1177 -0.2081
23667W        W39136  13.481  12.766  13.748 -0.1241 -0.0680  0.1171
23668W        W39137  15.643   7.531   3.955 -0.0544 -0.1930 -0.2722
23669W        W39138   1.248   3.607   3.532 -0.2993 -0.2398  0.1025
23670W        W39139  14.316   8.962   4.155 -0.1415 -0.1765 -0.1731
23671W        W39140   6.896   0.642  14.951 -0.2132 -0.0496 -0.0512
23672W        W39141  11.236  14.489  15.129  0.1355 -0.0675  0.0368
23673W        W39142  11.878  13.451   1.993  0.3938  0.1273 -0.2710
23674W        W39143   2.454  11.112  10.088 -0.2483 -0.0606  0.0470
23675W        W39144   1.623   2.773  12.525 -0.0233  0.0310  0.2473
23676W        W39145  16.892  17.457  12.462  0.2041 -0.1329 -0.3502
23677W        W39146   4.292   6.127  13.539  0.0829 -0.1278 -0.0014
23678W        W39147  14.806   4.674  15.604  0.2590  0.3026  0.0062
23679W        W39148  10.609   1.143  11.538  0.0837  0.2012  0.4572
23680W        W39149  13.152   3.047   3.557 -0.4006 -0.0023  0.1521
23681W        W39150  15.357   4.102   0.674 -0.0843 -0.1345  0.0858
23682W        W39151  11.460  15.153   4.679  0.1560  0.1247 -0.1255
23683W        W39152  18.325  17.087  14.751  0.2655 -0.1761 -0.3272
23684W        W39153   5.350  15.886  10.576  0.0914  0.2679  0.0390
23685W        W39154   8.750   6.008  15.545 -0.0039 -0.1990  0.0892
23686W        W39155  16.869  12.346   1.519 -0.1016 -0.2610 -0.0262
23687W        W39156   9.034   1.726  12.631  0.0136 -0.0027 -0.1710
23688W        W39157  13.882  10.573   0.134 -0.1566  0.0563  0.3358
23689W        W39158  14.591   5.687   3.982  0.1410  0.1809  0.2102
23690W        W39159   0.611  17.415   1.463 -0.0258  0.0797 -0.1065
23691W        W39160  16.623   5.390   2.774 -0.2849 -0.2630 -0.0476
23692W        W39161   8.749  16.227   1.752 -0.0036 -0.3399 -0.2783
23693W        W39162   8.780   5.272  14.654 -0.0318  0.1394 -0.0865
23694W        W39163   2.312   8.965   5.165 -0.0392 -0.0815  0.0741
23695W        W39164   5.323   6.511   5.898 -0.3075  0.1623  0.0932
23696W        W39165  17.528  16.784  12.636  0.3624 -0.0414 -0.0671
23697W        W39166   8.689  11.133  12.143  0.1809 -0.0165 -0.1188
23698W        W39167   0.839   5.061  12.212  0.0334  0.1552  0.0272
23699W        W39168   5.598   8.498   2.290 -0.0704  0.2641 -0.0563
23700W        W39169  10.934   2.975   1.638 -0.0596  0.2280 -0.2043
23701W        W39170   4.179  11.170   1.268  0.1263 -0.0227 -0.2091
23702W        W39171   6.884  17.977  15.270  0.0791  0.0798 -0.0358
23703W        W39172  11.101  16.424   1.959 -0.3108 -0.0058 -0.0253
23704W        W39173   5.537   1.793   4.974 -0.2415 -0.0434  0.2656
23705W        W39174  14.630  14.680   1.695 -0.1305  0.2280  0.0093
23706W        W39175   5.457  11.362  13.330 -0.3511  0.1895 -0.1576
23707W        W39176   8.419   4.665   1.254  0.0660 -0.1503  0.2548
23708W        W39177  12.450   4.687  12.656  0.1496  0.2701 -0.1480
23709W        W39178   3.409  16.696   4.179  0.2629  0.0966 -0.0149
23710W        W39179  10.062  15.919   5.103  0.1607  0.0887 -0.4322
23711W        W39180  18.017  10.959  12.270 -0.1194 -0.0388  0.0840
23712W        W39181  12.233   3.085  13.342  0.2445  0.0919 -0.1074
23713W        W39182  12.389  16.246   3.676 -0.0638 -0.2173 -0.1054
23714W        W39183   8.919   1.974   1.398  0.1978 -0.1632 -0.4013
23715W        W39184   6.056   6.257  15.573 -0.0693 -0.2828  0.2081
23716W        W39185  15.031  11.754   2.885  0.0590 -0.0528  0.0371
23717W        W39186   2.279   5.142  12.902 -0.1264 -0.2300  0.1073
23718W        W39187   5.708   5.709   3.030 -0.2911 -0.0634 -0.1494
23719W        W39188  11.316   4.844  15.657 -0.1333  0.0518 -0.0356
23720W        W39189  17.325  11.217   0.349  0.3256 -0.1257  0.1434
23721W        W39190   7.789  12.292   3.772  0.0632  0.0127 -0.0849
23722W        W39191  16.942  11.117   2.382  0.2321  0.1085 -0.0286
23723W        W39192   6.676   7.900  15.364 -0.1155  0.1771  0.3416
23724W        W39193   2.933  12.591  13.719  0.0967  0.1726  0.0893
23725W        W39194   5.680  10.533   0.750 -0.3638 -0.0359  0.2942
23726W        W39195  10.840  13.043  11.327 -0.0503  0.1215 -0.1802
23727W        W39196   3.185  18.424   2.176 -0.0978  0.0614  0.0138
23728W        W39197  16.868   4.701  12.319  0.2041  0.0683 -0.1183
23729W        W39198  11.946   1.608   2.329 -0.0124 -0.0268  0.1120
23730W        W39199  10.059   7.700  11.657  0.1905  0.1129 -0.2208
23731W        W39200   4.765  10.269  11.506 -0.0131  0.1643 -0.1113
23732W        W39201   9.691  12.997   2.455  0.0167 -0.1880  0.0994
23733W        W39202  10.156  16.567  13.570 -0.1742 -0.0410  0.1586
23734W        W39203   3.821   3.566  12.031  0.1371 -0.0043  0.0056
23735W        W39204  17.168  16.267   2.497 -0.4056 -0.2444 -0.2394
23736W        W39205   6.980  13.490   3.197  0.0567 -0.0936  0.0854
23737W        W39206  11.917   7.967  13.532  0.2109 -0.0188  0.2681
23738W        W39207   0.753  16.285  11.534 -0.1654 -0.0713 -0.1175
23739W        W39208  17.300   1.353  13.458  0.3339 -0.0897  0.4023
23740W        W39209   1.677  10.664   2.125 -0.1816  0.0798  0.0818
23741W        W39210   1.197   2.622   3.486  0.0975  0.0809  0.0341
23742W        W39211   4.625   7.657   1.732  0.1563 -0.3525  0.2116
23743W        W39212  17.064  11.229  14.152  0.2020  0.2113 -0.1838
23744W        W39213  18.197   2.271   2.110 -0.0593  0.1101  0.2490
23745W        W39214   1.413   0.366   3.660 -0.1367 -0.0946  0.0824
23746W        W39215  11.859  13.997  12.359  0.4581  0.1780 -0.3932
23747W        W39216  10.103   4.564  11.296 -0.1034 -0.4816  0.0782
23748W        W39217  14.389  15.433  13.971  0.0386 -0.1092  0.2752
23749W        W39218  14.939  10.341  11.616  0.1332 -0.2513 -0.0620
23750W        W39219  17.042  13.049   4.814 -0.1899  0.0925  0.2633
23751W        W39220   8.912   0.770   1.092  0.2499  0.0076 -0.2099
23752W        W39221   2.109  16.880   4.444  0.1043  0.0563 -0.2283
23753W        W39222   1.009   8.868  10.406 -0.2703 -0.1391 -0.0805
23754W        W39223   1.962   4.988   3.692  0.0055 -0.3179 -0.1391
23755W        W39224   1.465   4.982  14.445 -0.1590 -0.1854  0.1495
23756W        W39225   5.236   5.072   0.413  0.4819 -0.1869  0.0681
23757W        W39226  14.437  12.294  15.463 -0.4712 -0.4057 -0.0542
23758W        W39227   0.896  10.122   5.051 -0.2332  0.2970 -0.2161
23759W        W39228  15.006   3.297  14.977  0.1287 -0.1444 -0.2431
23760W        W39229  12.149   8.903   5.523 -0.1666  0.3562  0.0369
23761W        W39230   7.029  16.905  14.537 -0.2249  0.2310  0.0569
23762W        W39231   4.945   9.035  11.914 -0.0780 -0.0442  0.1683
23763W        W39232  10.826  13.124   0.547  0.1242  0.0735 -0.0297
23764W        W39233  13.654   3.306   1.959  0.1358 -0.0065 -0.0817
23765W        W39234   4.026   1.160  11.214  0.1132 -0.4424 -0.1847
23766W        W39235   6.398  15.486   1.192  0.0580 -0.0955  0.0248
23767W        W39236  17.723  16.642  15.328  0.1958 -0.1355  0.3575
23768W        W39237   7.726   4.893  12.248 -0.0114  0.3132  0.0515
23769W        W39238   0.091   5.900  13.457 -0.0369 -0.0158  0.0366
23770W        W39239   7.575  14.094   4.182  0.1602  0.1908  0.0951
23771W        W39240   8.739  10.434  12.244 -0.0663 -0.1021  0.2049
23772W        W39241  10.366   1.352  12.427 -0.1830 -0.0083 -0.1026
23773W        W39242   0.583  14.367  11.549  0.1896  0.3675  0.0328
23774W        W39243   6.167   6.659  14.975 -0.1061 -0.2715 -0.0340
23775W        W39244  15.048  12.142  13.038  0.0356  0.2754  0.0880
23776W        W39245  17.574   9.476  10.407  0.0667  0.1244 -0.1510
23777W        W39246   0.170   9.291   2.269 -0.2706 -0.0944 -0.0547
23778W        W39247   4.854   8.219   2.348 -0.0483 -0.3650  0.0354
23779W        W39248   9.091  10.415   5.426 -0.1287  0.1960 -0.0943
23780W        W39249   6.912   4.379  15.030 -0.2686  0.1247  0.1651
23781W        W39250   5.637   4.282  15.767 -0.1370 -0.2250 -0.3892
23782W        W39251   5.567   4.836   2.254 -0.0638  0.1826  0.0747
23783W        W39252   7.438   3.877   1.733 -0.2104 -0.1204 -0.2720
23784W        W39253  16.082   3.910  11.602 -0.0046 -0.1079 -0.3053
23785W        W39254   1.193  13.898   4.762 -0.2967  0.1817 -0.0285
23786W        W39255   0.500  15.653  10.257  0.1659  0.1386 -0.2116
23787W        W39256   5.103   9.095   1.525 -0.3515 -0.0091 -0.0248
23788W        W39257   2.330  12.925  13.208 -0.0321 -0.3170 -0.2918
23789W        W39258  11.133   7.037   1.837  0.3639  0.3590 -0.0510
23790W        W39259  11.326  14.770  14.399  0.2519 -0.2406  0.1586
23791W        W39260   1.408   7.683  15.902  0.1862  0.0717  0.1086
23792W        W39261  15.263   8.571  13.946  0.1239 -0.1877 -0.1688
23793W        W39262   0.032  12.002  12.281  0.0690  0.0891  0.4087
23794W        W39263  14.564   8.272  12.320  0.0470  0.2899 -0.1543
23795W        W39264   1.623   4.527   3.536  0.0066 -0.3757  0.3164
23796W        W39265   7.400   1.344   1.734 -0.2251 -0.1335  0.2005
23797W        W39266  14.631  17.353   1.419 -0.0590  0.2970 -0.1222
23798W        W39267   0.935   8.972  12.347  0.1110 -0.0875 -0.0078
23799W        W39268  15.960   1.836  12.624 -0.1216 -0.0880 -0.0530
23800W        W39269  16.380  10.405   5.859 -0.0905 -0.0478  0.0172
23801W        W39270  17.042  14.460   0.613  0.1012 -0.1323  0.0564
23802W        W39271   1.069  13.959   3.308 -0.2381 -0.3662 -0.3521
23803W        W39272   4.180  12.574  15.376  0.1362 -0.3007 -0.0537
23804W        W39273  17.503   4.264  15.072  0.2063  0.0617  0.0680
23805W        W39274   3.522  17.660   3.801  0.1600 -0.1477  0.2827
23806W        W39275  17.413  14.525   2.266 -0.4079 -0.3888 -0.1119
23807W        W39276   6.977  12.468   3.744  0.3078 -0.1595 -0.1683
23808W        W39277   9.259   5.096   3.593  0.1925  0.1063 -0.1216
23809W        W39278   3.234   2.839   0.550  0.1130  0.0711  0.3072
23810W        W39279   7.513   9.188   1.558  0.0433  0.0486 -0.1686
23811W        W39280   3.221   4.115  13.291  0.0622 -0.2567  0.0565
23812W        W39281   8.255  15.148   4.785 -0.2347  0.0317  0.1925
23813W        W39282   6.807   2.540   3.378  0.2238 -0.2874  0.1207
23814W        W39283   0.591   7.205   1.356  0.1019  0.0429  0.0524
23815W        W39284   1.775   9.608   0.169 -0.1026  0.0835  0.1945
23816W        W39285  13.029  14.030   1.737  0.1994 -0.1332  0.0024
23817W        W39286  11.100   7.972   2.220 -0.1628 -0.1919 -0.2478
23818W        W39287  13.715   4.513  11.637 -0.0388  0.1041 -0.3730
23819W        W39288   6.165  16.060  12.271  0.0190  0.0883 -0.0408
23820W        W39289   4.271   9.506  11.730 -0.0312 -0.0593 -0.0438
23821W        W39290   3.237   2.314   6.229 -0.0835  0.4363  0.0138
23822W        W39291   5.700   1.051   0.021  0.0796  0.2809  0.3368
23823W        W39292  14.548   6.749   5.167  0.1430  0.0042 -0.0093
23824W        W39293   7.763   0.367   5.410 -0.0011  0.2088  0.2614
23825W        W39294  17.291  10.584  15.428  0.0910 -0.0811 -0.3889
23826W        W39295  12.465   3.796   0.242 -0.1879 -0.1059 -0.0089
23827W        W39296   3.190   5.361  12.395 -0.0415  0.1030 -0.0375
23828W        W39297   2.150  16.858   2.829 -0.3097 -0.2099  0.2926
23829W        W39298  13.318  15.820  14.236  0.1294  0.0966  0.0169
23830W        W39299  16.315   3.227   4.437  0.2789  0.0915 -0.4042
23831W        W39300   7.906  14.329  13.254  0.1175 -0.0355 -0.0288
23832W        W39301  17.980   9.499  13.417 -0.1150  0.2273  0.0724
23833W        W39302   0.560  18.326  14.288 -0.1356  0.0892  0.3305
23834W        W39303  10.892   8.855  10.902 -0.2108 -0.0775  0.2041
23835W        W39304   1.195   2.807  13.753  0.2303  0.1295 -0.5041
23836W        W39305   0.850   8.000   0.715 -0.0538  0.0502  0.0804
23837W        W39306   6.544   9.480   3.425  0.0166  0.1326 -0.0776
23838W        W39307  15.333   3.555  11.514 -0.0347  0.4343  0.1855
23839W        W39308   7.850   4.769  15.164  0.0619 -0.3102 -0.2972
23840W        W39309  18.444  13.581   2.699  0.1422 -0.0188 -0.1742
23841W        W39310   3.102  12.978   9.826  0.1964  0.1595  0.0401
23842W        W39311  13.405   9.253   4.942  0.2077  0.2020 -0.0003
23843W        W39312   6.880   3.048   3.142  0.1184  0.0957 -0.0112
23844W        W39313   3.187   3.339  14.260 -0.2096 -0.0134 -0.0601
23845W        W39314  10.361  14.454   1.770  0.0688  0.0916  0.1228
23846W        W39315   3.284  15.779  13.045 -0.0998  0.1455 -0.0763
23847W        W39316   2.803  13.289  10.982 -0.2543 -0.3382 -0.0044
23848W        W39317   1.169  12.363  14.369  0.0392  0.1910  0.0359
23849W        W39318   4.006   5.871   2.908 -0.0344  0.1148  0.0913
23850W        W39319  17.033  13.109   3.835  0.1945 -0.2801  0.2196
23851W        W39320   9.216   4.522  13.571  0.1342 -0.1597  0.2635
23852W        W39321   3.438  16.417  15.599 -0.0982  0.0574 -0.0800
23853W        W39322  11.572   1.082   3.194 -0.1371  0.1270 -0.3903
23854W        W39323   1.429  11.522  12.472  0.0922  0.1431 -0.0242
23855W        W39324  12.971   4.737   2.232 -0.2460 -0.1181 -0.1556
23856W        W39325  16.844  15.185  14.065 -0.0352 -0.1113 -0.2637
23857W        W39326   3.920   6.129  12.340 -0.1564 -0.1557 -0.1144
23858W        W39327  10.322   3.588   2.651  0.0016 -0.4644  0.1681
23859W        W39328   9.380   7.374  15.688  0.0625 -0.0138 -0.3533
23860W        W39329  17.903  14.257  10.716 -0.1391  0.0786  0.2686
23861W        W39330   0.664   9.686   2.148  0.0622  0.1538 -0.0598
23862W        W39331  10.332   6.586   2.266 -0.3519  0.1569 -0.1265
23863W        W39332   2.356   5.318   0.781  0.0444 -0.1639  0.2414
23864W        W39333  13.521  12.964  12.652 -0.1009 -0.0402  0.0319
23865W        W39334  14.656  16.910   2.297  0.2416 -0.1429 -0.0823
23866W        W39335  14.355  17.363  12.374 -0.1519 -0.1706 -0.1404
23867W        W39336  14.592  15.557   1.839  0.0474  0.0969 -0.0720
23868W        W39337  14.225   3.081  14.227 -0.0198  0.0678 -0.0958
23869W        W39338   6.045   5.407   3.691 -0.2559  0.2298  0.3994
23870W        W39339   5.121   3.889   2.529  0.0701 -0.1592 -0.0841
23871W        W39340   7.967   2.416  10.803 -0.0980  0.0063 -0.1011
23872W        W39341  16.933   9.600  11.210  0.0052  0.2615  0.1905
23873W        W39342  15.462  10.881   4.400 -0.1038 -0.0432 -0.1635
23874W        W39343  17.319  10.691  14.234 -0.2024 -0.1370  0.0963
23875W        W39344   0.879   9.869   1.042 -0.0634  0.3123 -0.0425
23876W        W39345   3.060  15.018   2.729 -0.0402  0.1858 -0.1589
23877W        W39346  17.931  12.078  14.898  0.1951 -0.0499 -0.2838
23878W        W39347  17.611   7.352   2.799 -0.0087 -0.2619 -0.0530
23879W        W39348  14.997   0.039   4.113  0.2041  0.1371 -0.0303
23880W        W39349   3.193   3.447   0.212 -0.2350  0.0671  0.0082
23881W        W39350  17.036  11.815   3.608 -0.0341 -0.3215 -0.2405
23882W        W39351   7.565   4.773  15.613  0.0402  0.1055  0.2365
23883W        W39352   7.684   1.278   3.196  0.0755  0.1212 -0.4553
23884W        W39353   6.506   5.505  11.634  0.0290  0.1570 -0.1361
23885W        W39354   4.810  18.344  15.701 -0.1156 -0.0094 -0.0914
23886W        W39355  12.060  14.443  14.425  0.1123  0.0173 -0.0921
23887W        W39356   6.749   4.299  13.017  0.2610  0.4078 -0.0359
23888W        W39357   3.748  15.292   4.579  0.0289  0.1516 -0.1296
23889W        W39358   7.991  15.786   0.997  0.0901  0.0943  0.1970
23890W        W39359   6.121   5.486  12.351 -0.2380  0.1334 -0.0364
23891W        W39360  13.477  17.106  10.452  0.0458 -0.2245 -0.1184
23892W        W39361  13.509  14.484  12.466 -0.0497  0.0724  0.0090
23893W        W39362  15.406  11.528  14.489  0.0305 -0.1899 -0.0458
23894W        W39363   6.994  17.385  15.324  0.1739  0.1241 -0.0903
23895W        W39364   9.887  12.589  12.487 -0.2094  0.1034 -0.0478
23896W        W39365  14.288   1.066   5.454  0.2348  0.3048  0.0829
23897W        W39366  11.632   8.128  12.512  0.4861  0.1867 -0.2126
23898W        W39367   9.076  12.386   5.100  0.0677 -0.3216 -0.0056
23899W        W39368   7.366  14.937   2.222  0.1857 -0.2041 -0.0050
23900W        W39369  18.361  12.436   0.257  0.0235  0.2156 -0.2224
23901W        W39370   5.508  16.729  10.932 -0.2958 -0.0029 -0.0842
23902W        W39371   8.000  14.799  12.613  0.1094  0.2066 -0.1981
23903W        W39372  12.917   7.568   2.142 -0.0882  0.0910  0.1846
23904W        W39373   4.001  15.639  13.325  0.1744  0.1368 -0.2649
23905W        W39374   3.532   6.885   1.109 -0.1058  0.5333 -0.2982
23906W        W39375   7.465   5.909  11.238 -0.1119 -0.2516  0.0444
23907W        W39376   0.077  13.960   5.807  0.0897 -0.0988  0.0630
23908W        W39377   5.227  16.566   0.012 -0.0532 -0.3216 -0.2662
23909W        W39378   6.988  14.657  12.315 -0.0722  0.1677  0.0457
23910W        W39379   7.610   0.404   3.644  0.0172 -0.0502  0.1563
23911W        W39380  11.827   3.260   3.551 -0.2615 -0.0540  0.0900
23912W        W39381  15.951  13.962  14.134  0.2473 -0.2994  0.0255
23913W        W39382  13.755   5.113   1.193  0.2243  0.0144 -0.0107
23914W        W39383   6.622  15.532   2.065 -0.0051  0.0051 -0.0585
23915W        W39384  16.839  14.772   5.217  0.0100  0.1142  0.1124
23916W        W39385  16.632  10.575   0.438  0.0450 -0.0581 -0.0039
23917W        W39386  13.121   8.108   5.265 -0.0892  0.1355 -0.1581
23918W        W39387   1.030  10.361  13.332  0.1249 -0.1192  0.0401
23919W        W39388   5.495   6.650   2.570  0.1721 -0.0747 -0.0068
23920W        W39389  17.788  17.502   2.982 -0.1865  0.1061 -0.0258
23921W        W39390   0.465   2.197   4.380 -0.1224  0.1925  0.0987
23922W        W39391   1.664   2.701   3.265  0.1076  0.2762 -0.3893
23923W        W39392  16.531   3.676  13.312 -0.1189 -0.4184 -0.0757
23924W        W39393   9.056   1.193   4.230  0.1086 -0.0882 -0.0264
23925W        W39394   4.291  14.399   2.854 -0.3718 -0.0969 -0.4215
23926W        W39395  11.270  12.522  11.951  0.0447 -0.0834  0.2338
23927W        W39396   9.785  15.811  12.033 -0.0559  0.0458  0.1107
23928W        W39397  15.390   5.467  12.933 -0.2378 -0.1911 -0.1753
23929W        W39398   9.914  12.203  11.311 -0.0520 -0.0624  0.2269
23930W        W39399  13.994  15.906   4.859  0.2313 -0.0618 -0.1168
23931W        W39400   9.847  12.475   2.276 -0.1770  0.3389  0.0139
23932W        W39401   1.288   6.291   1.673  0.1479  0.0805 -0.1901
23933W        W39402   0.303  11.750   4.908 -0.1880  0.0082  0.0099
23934W        W39403   0.174   9.313   1.368  0.2896  0.2501 -0.5344
23935W        W39404  18.336   5.712   3.929 -0.0993  0.1513 -0.1310
23936W        W39405  12.258   2.031   2.228 -0.2037 -0.1972 -0.0394
23937W        W39406  13.856   9.969   2.760  0.0850 -0.1973  0.1644
23938W        W39407  13.898  16.326   0.278 -0.4496  0.3769 -0.2060
23939W        W39408   1.281   4.713  12.093  0.0244  0.1453 -0.2426
23940W        W39409   4.973  18.096  10.649  0.1444 -0.0019 -0.1142
23941W        W39410   7.176   3.352  13.207  0.2602  0.2645  0.0931
23942W        W39411  12.891   2.053  12.985 -0.2026 -0.0584  0.5611
23943W        W39412   2.739   9.536   0.160 -0.1180  0.2555  0.0525
23944W        W39413  11.013   6.390   0.621  0.0647  0.1588 -0.1618
23945W        W39414   9.994   5.842  10.791 -0.0804  0.0985  0.4546
23946W        W39415  14.384  10.775  14.395  0.0255 -0.3140 -0.0141
23947W        W39416   5.188   6.927   5.372 -0.3536 -0.0667 -0.0689
23948W        W39417  12.017  15.480  14.642 -0.0734 -0.0527 -0.0034
23949W        W39418   7.906  11.243   1.052 -0.1292 -0.4243  0.1336
23950W        W39419  12.396  18.139   5.422 -0.1148 -0.0307  0.0339
23951W        W39420  16.049   0.372  12.025  0.1126 -0.0352  0.3420
23952W        W39421   5.250  12.846  11.017  0.1863 -0.3288 -0.0041
23953W        W39422   6.834   7.460  15.387  0.1723  0.0136 -0.0751
23954W        W39423  17.235   8.493   0.572  0.0488 -0.3802  0.2217
23955W        W39424  17.118  11.516   4.503 -0.5852 -0.1461 -0.0370
23956W        W39425  18.195   7.281  12.164  0.0246 -0.0847  0.0465
23957W        W39426   1.924   3.205   5.356  0.0579 -0.1388  0.3949
23958W        W39427   4.454  15.719   0.959  0.1798 -0.1940  0.1512
23959W        W39428   8.828   4.554   2.879 -0.2497 -0.2365 -0.0304
23960W        W39429   9.714  16.319  13.845 -0.1279  0.0755  0.3888
23961W        W39430   1.778   0.584  14.103  0.2471  0.0345 -0.1647
23962W        W39431   8.821   9.168  13.435 -0.0841 -0.1899  0.2979
23963W        W39432  15.361   2.388   2.046  0.2114  0.2378  0.0786
23964W        W39433   6.295   5.903  15.871  0.3247 -0.0456 -0.2871
23965W        W39434  14.171   3.431  15.517 -0.0546 -0.2334 -0.0486
23966W        W39435   6.846  13.509   0.385  0.1909  0.1543 -0.1048
23967W        W39436  13.956  17.893   1.095 -0.1353  0.2016 -0.0746
23968W        W39437   3.456   0.879   3.736  0.0427 -0.2582 -0.1526
23969W        W39438  16.446  14.199  14.065 -0.0317 -0.1766  0.0127
23970W        W39439  16.027   9.618   1.549  0.2387 -0.2442 -0.3967
23971W        W39440   6.345  17.833   2.790  0.0208 -0.3695 -0.0326
23972W        W39441   1.503   9.489  11.192  0.1324 -0.0791  0.1644
23973W        W39442  12.948   1.847  10.997  0.0752 -0.0842 -0.1681
23974W        W39443   1.415   5.552   1.159  0.2515 -0.2429  0.3381
23975W        W39444   1.734  15.536  11.908 -0.1149  0.1227 -0.1032
23976W        W39445   9.993  17.311   2.189 -0.1944 -0.0229  0.1970
23977W        W39446   3.901   2.008   4.768  0.3485  0.0515 -0.0923
23978W        W39447  14.030   2.532   2.124  0.0179 -0.0348 -0.1200
23979W        W39448  11.703   4.886   2.853 -0.0731  0.1830  0.0197
23980W        W39449   0.778   3.500  11.147 -0.0447 -0.1257 -0.1189
23981W        W39450   6.759   3.273  13.518  0.0224 -0.0584 -0.0991
23982W        W39451   2.729   6.692   5.531 -0.0692  0.1907  0.2117
23983W        W39452  16.529   0.559   4.631 -0.2047 -0.1680  0.1242
23984W        W39453  14.293  13.239   9.649  0.0768 -0.0437 -0.0185
23985W        W39454   1.006  18.335  14.823 -0.3195  0.0728 -0.1613
23986W        W39455  16.223   7.684   0.367  0.1293 -0.1134  0.1293
23987W        W39456   2.654   4.075  11.606 -0.2309 -0.0465  0.2418
23988W        W39457   2.928  16.177  13.944 -0.1940 -0.1537 -0.2280
23989W        W39458   8.058  15.221   2.708  0.0814  0.4268 -0.1583
23990W        W39459   1.258   3.427   4.577 -0.0700 -0.2967 -0.1029
23991W        W39460  12.418   3.146   1.821  0.0763  0.1624 -0.0004
23992W        W39461  18.477   8.290  15.522 -0.3131  0.0777 -0.0292
23993W        W39462  15.291  12.007  15.345  0.4468 -0.1043  0.3487
23994W        W39463   6.844   1.102  14.737 -0.3455  0.1415  0.2393
23995W        W39464   3.513   1.699  10.098  0.1741 -0.2483  0.2266
23996W        W39465  17.224   4.744  12.638 -0.2769 -0.4012 -0.0685
23997W        W39466   1.826   1.281  12.909 -0.0546  0.0453 -0.1839
23998W        W39467   8.512  10.330  12.706  0.0221 -0.2074  0.3983
23999W        W39468  11.140   6.321  10.179  0.1135  0.2897 -0.2081
24000W        W39469  10.488  10.411   9.813  0.1431 -0.2139  0.1180
24001W        W39470  17.539   7.727  12.993  0.0315 -0.2677  0.3861
24002W        W39471   6.468  18.349  15.362  0.2849  0.1209 -0.1093
24003W        W39472  18.182   2.425   2.926  0.0657 -0.0462  0.0539
24004W        W39473   8.645  17.593   4.677  0.2482  0.1255  0.0507
24005W        W39474   2.452   1.936   4.892 -0.4820  0.0155  0.2564
24006W        W39475  10.990   7.289   2.674  0.0961 -0.0081  0.1339
24007W        W39476   1.066   0.360   4.701 -0.1007 -0.4734  0.2497
24008W        W39477   7.203  17.114  10.471  0.0449 -0.2342  0.1004
24009W        W39478   9.785  17.225   0.935 -0.1639 -0.0486  0.1296
24010W        W39479   2.416   6.916  12.177  0.0086  0.1702 -0.3472
24011W        W39480  13.713  15.599  15.193 -0.4238 -0.2100 -0.0968
24012W        W39481   3.133  15.900  12.003 -0.0020 -0.0019  0.0311
24013W        W39482   7.346   2.816   3.885 -0.1111  0.1272  0.0234
24014W        W39483  17.366  18.173   4.086  0.1083  0.1704 -0.0348
24015W        W39484  13.802   1.306  13.098 -0.2024 -0.2078  0.2299
24016W        W39485   4.341   9.192   4.638 -0.0931  0.1508 -0.0718
24017W        W39486  10.443   2.644   5.094 -0.0125  0.0938 -0.2284
24018W        W39487   5.025  13.766   3.677 -0.0393 -0.1296  0.1258
24019W        W39488  11.591  16.903   3.365  0.1220  0.0214  0.2809
24020W        W39489   9.001   6.679   1.561 -0.1084 -0.0306  0.0178
24021W        W39490  12.530  10.568   9.875  0.0956 -0.2927 -0.3778
24022W        W39491   4.738   4.439   2.228  0.1683 -0.1935  0.3268
24023W        W39492   8.358   8.570  11.271  0.0190 -0.3079  0.0730
24024W        W39493  12.711  12.823   5.227  0.0181  0.1637  0.1785
24025W        W39494  10.985  10.358   2.059  0.2350  0.2113 -0.0553
24026W        W39495   0.967   2.177  12.902  0.0591  0.2919  0.0291
24027W        W39496   4.482  13.896  13.289  0.0176 -0.1393 -0.0138
24028W        W39497  10.143  14.099  11.933 -0.0548 -0.0971  0.1264
24029W        W39498  10.890   9.732   5.495  0.0748  0.1066  0.3668
24030W        W39499   1.275   4.836   0.377  0.1592 -0.2935 -0.0621
24031W        W39500  15.654   6.689  12.777  0.0354  0.3416 -0.2307
24032W        W39501   7.341  15.776   2.526 -0.0826 -0.0285  0.0105
24033W        W39502   8.605  12.671  12.227  0.0686  0.4106  0.0361
24034W        W39503  14.207   1.191  15.347 -0.2372  0.0466  0.0141
24035W        W39504   2.149  13.935   0.335 -0.0455  0.0573 -0.3112
24036W        W39505   9.432  15.096  13.623  0.1780 -0.1449  0.0305
24037W        W39506   8.992   2.970  11.947 -0.0972 -0.0475 -0.3665
24038W        W39507  17.934  11.854  15.661  0.2074 -0.3645 -0.0915
24039W        W39508  12.681   9.384   3.268  0.0117 -0.4216 -0.0520
24040W        W39509   3.060   4.411   0.106  0.0861 -0.1533 -0.1331
24041W        W39510   3.027   8.286  13.339 -0.0164  0.1627  0.3455
24042W        W39511   7.405  13.248   2.506  0.3740 -0.0121  0.1235
24043W        W39512  16.917  18.152   1.611  0.2231  0.2665  0.3246
24044W        W39513  10.333  14.131   0.236  0.0607  0.2652  0.0893
24045W        W39514  17.862   0.511   3.529  0.3719 -0.1166  0.0745
24046W        W39515   4.567   0.497   1.024  0.0522  0.0521 -0.1500
24047W        W39516   3.203   9.328  14.358 -0.0711  0.0099  0.0166
24048W        W39517  16.953  12.064   0.248 -0.1690  0.1197  0.1859
24049W        W39518   1.936   3.460  13.601  0.2270 -0.0846 -0.2178
24050W        W39519  12.775  15.844   2.493  0.6162 -0.0706  0.0011
24051W        W39520  10.449   5.481   0.419 -0.0929  0.0287 -0.0266
24052W        W39521  11.399   5.712   3.891 -0.3269  0.1506 -0.0857
24053W        W39522  12.928  14.660  15.228 -0.0536 -0.2106  0.2463
24054W        W39523  14.054   1.900  13.693  0.3010  0.0594 -0.3646
24055W        W39524   9.615   5.028  15.568  0.0865  0.0595 -0.2599
24056W        W39525  12.163   8.641   0.709 -0.1542  0.1649  0.0115
24057W        W39526  15.061  17.080   0.314  0.1828  0.2193 -0.0230
24058W        W39527   5.600   0.475   0.941 -0.3528 -0.0625  0.0179
24059W        W39528   9.172   2.830  12.788  0.0054  0.2881  0.1133
24060W        W39529   3.600   3.675   0.226 -0.2211 -0.0715 -0.1999
24061W        W39530   3.097   5.411   1.476  0.0547 -0.0009 -0.0607
24062W        W39531  18.335  11.248  10.890 -0.2440 -0.0981 -0.1587
24063W        W39532   6.434  18.069   2.366 -0.0636  0.2334  0.1437
24064W        W39533  10.033  16.183   3.754 -0.0168 -0.0653 -0.0817
24065W        W39534   3.515   1.345  11.033  0.0670  0.1587  0.1267
24066W        W39535   0.662   8.713   9.559  0.1103 -0.2949 -0.1631
24067W        W39536  17.376   0.900  14.193  0.0627  0.0087  0.0659
24068W        W39537   0.065   0.777  13.317  0.0136  0.2078  0.1561
24069W        W39538   5.467   6.169  12.200 -0.0299  0.0485  0.1002
24070W        W39539   4.462  10.604   2.062  0.2918  0.1930 -0.1963
24071W        W39540   0.666   7.632  12.222  0.0468 -0.0736  0.4581
24072W        W39541   9.469   8.319  15.173  0.3595 -0.3466  0.1122
24073W        W39542   5.070   2.398  13.805  0.1194  0.3007 -0.1356
24074W        W39543  17.847  13.364  12.968  0.0586  0.0141 -0.1571
24075W        W39544  14.208  15.804   4.056 -0.1184 -0.2273  0.1720
24076W        W39545   8.661  13.658  11.777  0.3446  0.0181 -0.2316
24077W        W39546  18.172   6.161  13.254  0.2136 -0.3351  0.2160
24078W        W39547  13.831  10.500  13.772  0.0441  0.1863 -0.0954
24079W        W39548   9.870   9.841   3.914  0.2752  0.1847  0.0445
24080W        W39549  12.565  11.008   1.201 -0.0878 -0.2831 -0.0582
24081W        W39550   0.975  16.619  14.052  0.2073  0.0562  0.3172
24082W        W39551   5.701   0.135   1.707  0.0387  0.3302  0.1871
24083W        W39552   4.275   1.634  14.592  0.0271 -0.2173 -0.0395
24084W        W39553   0.315   3.428  11.305 -0.1669 -0.0782  0.0018
24085W        W39554  17.571  14.276  15.240  0.0974  0.0419  0.0276
24086W        W39555  10.211   2.432  15.079  0.3388  0.1566  0.0576
24087W        W39556   6.074  14.035   3.487  0.0703 -0.0459  0.1745
24088W        W39557   5.763  12.783   4.358  0.1124  0.0133 -0.1519
24089W        W39558  16.283  16.258   2.882 -0.3133 -0.3000  0.1012
24090W        W39559   0.277  17.430  13.875 -0.3621 -0.3121  0.0150
24091W        W39560   5.935  10.135   0.545  0.1031 -0.0227  0.0627
24092W        W39561  15.055   9.066   4.692 -0.1797 -0.4303 -0.4057
24093W        W39562  11.745  11.779  13.050  0.2760  0.0146  0.2305
24094W        W39563   1.321   3.535  13.287  0.0583  0.2424 -0.3044
24095W        W39564   6.052  15.147   5.883  0.1647 -0.0559 -0.0170
24096W        W39565  18.341   3.148   4.961  0.3126 -0.0582 -0.3201
24097W        W39566   2.158   9.518  15.287  0.3676  0.0413 -0.0256
24098W        W39567  12.332   9.041  11.179  0.1877  0.1520  0.2365
24099W        W39568   8.394  11.487  12.960 -0.0948  0.2374  0.0341
24100W        W39569   5.545  17.841  13.444  0.0105 -0.0749  0.1918
24101W        W39570   7.282   4.823  14.464 -0.1102 -0.0611  0.1490
24102W        W39571  14.082   4.692  14.488 -0.1193  0.0402  0.1692
24103W        W39572   5.375  10.402   4.415  0.0644  0.3564 -0.0772
24104W        W39573   9.596  12.556  11.576  0.0157  0.1371  0.0968
24105W        W39574  14.172   5.263  15.209 -0.0374 -0.1192 -0.3272
24106W        W39575   4.853   5.681   3.603  0.3807  0.1013 -0.0457
24107W        W39576  14.052  10.950   4.769 -0.2342 -0.1502  0.0991
24108W        W39577  11.120   7.120  13.485  0.2790 -0.0130 -0.2524
24109W        W39578  15.027  11.727   0.018  0.1141 -0.1107 -0.3139
24110W        W39579   0.842   1.505  13.133  0.0253 -0.1361 -0.1219
24111W        W39580   8.619  11.343   1.752 -0.0915 -0.3083 -0.0071
24112W        W39581   0.690   4.489   0.921  0.1263 -0.4402 -0.1692
24113W        W39582   9.787  11.134   5.633 -0.0009 -0.3054  0.1498
24114W        W39583   4.780  17.336   6.289  0.2841  0.1753 -0.0719
24115W        W39584  11.695   3.213   4.944  0.2096 -0.2105  0.0439
24116W        W39585  13.674  15.075  12.200  0.0590 -0.1541 -0.2303
24117W        W39586   2.378   3.849   2.578 -0.2381 -0.2978 -0.0316
24118W        W39587   0.130   6.727   3.702  0.2900 -0.2444  0.1742
24119W        W39588   7.145  14.602  11.125 -0.2724 -0.3053  0.1250
24120W        W39589   6.274   4.124   3.469  0.1114 -0.1832  0.3120
24121W        W39590   4.910   6.693   4.505 -0.0465  0.0549 -0.0242
24122W        W39591   9.217   6.788   0.324 -0.1471  0.2228 -0.1873
24123W        W39592   4.165   1.575   3.556 -0.0040 -0.0648 -0.2900
24124W        W39593   6.517  12.430  13.512 -0.1455  0.0482 -0.0827
24125W        W39594  16.239   0.423   0.389 -0.3057  0.0812 -0.1051
24126W        W39595   4.472  15.549  14.525 -0.2196 -0.4269 -0.2174
24127W        W39596  11.296  14.670  11.279 -0.0288 -0.0497 -0.3405
24128W        W39597   5.791   1.982   1.877  0.1805  0.0851  0.1826
24129W        W39598  13.120   3.119   5.721 -0.2211  0.0476  0.1557
24130W        W39599  13.577   3.202  14.116 -0.0166 -0.0587  0.2058
24131W        W39600   5.711  17.846  10.142 -0.2636 -0.0867 -0.0875
24132W        W39601   6.495  14.468   1.866  0.3122  0.3074 -0.1525
24133W        W39602  10.602   8.877  11.968 -0.2752  0.0515  0.0044
24134W        W39603  17.737   4.289  15.752  0.0429  0.3543  0.1050
24135W        W39604   4.903   7.236  12.844  0.0715  0.0423  0.3443
24136W        W39605  15.616   9.439  11.398  0.0352  0.1247  0.0407
24137W        W39606   9.711  10.577  12.738 -0.0515  0.0750  0.2012
24138W        W39607  15.368  18.205  10.650  0.1065  0.3019 -0.0630
24139W        W39608   0.667   1.677  15.554  0.2186  0.2547 -0.0573
24140W        W39609   0.118  12.510  12.283 -0.1448 -0.2777 -0.1036
24141W        W39610   1.768   9.289   6.174  0.1253  0.3855  0.0111
24142W        W39611  14.954  13.990  14.199 -0.0918 -0.3042 -0.1479
24143W        W39612  10.890  15.324   6.317  0.0305 -0.1058 -0.0804
24144W        W39613  11.834  10.321   0.477 -0.0160 -0.0110 -0.1416
24145W        W39614   2.685  15.202  13.752 -0.2313  0.1628  0.1986
24146W        W39615  17.100   6.449   1.962  0.1499  0.0613  0.0028
24147W        W39616  15.849   7.264   5.903 -0.2397 -0.1220 -0.5901
24148W        W39617  10.805   3.136  13.476 -0.0658 -0.2858 -0.0686
24149W        W39618  16.824  15.499  14.517 -0.0167 -0.0758  0.3042
24150W        W39619  12.518   6.264   3.197  0.0580 -0.0035  0.1725
24151W        W39620   1.489  10.402   5.659  0.1947 -0.0265 -0.2296
24152W        W39621  15.219  13.534   3.394  0.0421 -0.1517  0.2006
24153W        W39622  14.016   7.762   1.423  0.2058 -0.1557  0.0505
24154W        W39623  14.086  15.783   1.053  0.1473 -0.3064  0.1019
24155W        W39624  12.002  12.043   3.454 -0.0646  0.3103  0.1074
24156W        W39625  13.212  17.034  11.009  0.2493 -0.0739  0.4441
24157W        W39626  18.471  14.985  13.818  0.0974  0.0377  0.2042
24158W        W39627  13.806   4.800   4.614 -0.0391 -0.2476  0.1636
24159W        W39628  17.554  15.167   0.649 -0.0007  0.3889  0.2794
24160W        W39629  13.582  11.261  15.125 -0.0868  0.1041 -0.1250
24161W        W39630  10.488   8.145  13.118  0.0190  0.3511 -0.0892
24162W        W39631   0.493   0.689   0.621 -0.1104  0.2672 -0.3386
24163W        W39632  12.687   3.117  13.544  0.2463  0.1684 -0.1002
24164W        W39633  18.216  13.175  12.009 -0.0779 -0.2148 -0.0227
24165W        W39634  13.304   7.744  14.759 -0.0186  0.0029  0.0332
24166W        W39635   9.968  13.452   1.462  0.1187  0.0777  0.0086
24167W        W39636  17.871  12.169  14.016  0.3574 -0.1307  0.1900
24168W        W39637   9.899   6.282  13.493  0.1392 -0.0438  0.0921
24169W        W39638   8.697   0.913  15.240  0.2092  0.2988  0.0223
24170W        W39639  16.946   4.231   5.421  0.0955 -0.2322  0.0835
24171W        W39640  18.220  13.151   4.427 -0.0447 -0.0499  0.0001
24172W        W39641  14.704  17.614  12.065 -0.0440 -0.2722  0.1626
24173W        W39642  18.058  12.575  12.317  0.0858  0.2955  0.0576
24174W        W39643  13.342   0.716   5.170  0.0790  0.1563  0.1066
24175W        W39644   1.305   3.664   1.158  0.6528 -0.1282  0.2339
24176W        W39645   6.772  17.036  14.053  0.2175 -0.1167  0.0486
24177W        W39646   7.018   1.002   1.485  0.0496 -0.2704 -0.1503
24178W        W39647  13.161   9.101  12.498 -0.0107 -0.1382  0.1211
24179W        W39648  13.879  11.324  12.257  0.0048  0.0768  0.2343
24180W        W39649  17.259   8.456   3.247 -0.1116 -0.0906  0.3202
24181W        W39650   0.464   8.206   1.608 -0.2099  0.1142 -0.2237
24182W        W39651   5.874  16.655  14.110 -0.0985  0.3978 -0.1116
24183W        W39652  11.384  16.888  13.914 -0.0313 -0.1355 -0.0754
24184W        W39653  11.338   5.255   4.655 -0.1165  0.0606  0.1702
24185W        W39654   0.360   0.413   3.235 -0.1530 -0.0828  0.1647
24186W        W39655   2.332   7.771  12.636 -0.1194  0.0509 -0.0133
24187W        W39656  14.420  12.122   5.477 -0.0112  0.0238 -0.0672
24188W        W39657   4.915   2.939   5.317 -0.0842 -0.0834 -0.0888
24189W        W39658  17.142  12.388   1.895  0.1067  0.0015  0.1208
24190W        W39659  10.835   6.407   5.246  0.0871  0.0312 -0.1630
24191W        W39660  10.145  10.618  12.322 -0.0424  0.0436  0.2985
24192W        W39661   7.944  15.306  15.566  0.0955  0.2428  0.1791
24193W        W39662   9.173  18.054   0.530 -0.1462  0.0454  0.1590
24194W        W39663   8.906  15.230   3.253 -0.0269  0.0685  0.1229
24195W        W39664   8.350  13.379   2.241 -0.1214  0.0347  0.0386
24196W        W39665  15.642  17.819  12.439 -0.1071 -0.2257  0.0050
24197W        W39666   2.239  18.409   2.687 -0.2004  0.0271  0.1658
24198W        W39667  10.852   2.532   0.702  0.2738 -0.0008  0.5329
24199W        W39668  13.333  12.691  11.181  0.2171  0.0775  0.0920
24200W        W39669  16.682  10.058   2.136 -0.0696  0.2349  0.0627
24201W        W39670  13.382   9.023  14.780 -0.0795  0.3137  0.0563
24202W        W39671   8.415  15.351   3.213  0.0554  0.1232 -0.1459
24203W        W39672  17.657   5.415   5.160  0.0408 -0.1015  0.3745
24204W        W39673   4.814   7.509  15.813  0.1597 -0.0243 -0.2132
24205W        W39674   8.089   6.861  13.502  0.0749  0.0864 -0.2764
24206W        W39675  11.954   7.818  11.693 -0.3333  0.2710 -0.2172
24207W        W39676   3.684   3.149  10.556  0.1773  0.1225  0.2985
24208W        W39677  15.615  10.904   2.124 -0.5154  0.0593 -0.2825
24209W        W39678   4.268   5.391  12.658  0.2130  0.2148 -0.1168
24210W        W39679  15.124  17.273   2.618 -0.1256 -0.3421  0.2383
24211W        W39680   9.400  16.434  15.737  0.1066 -0.2871  0.3500
24212W        W39681  15.504   3.140  14.790 -0.2129 -0.1186  0.1257
24213W        W39682   3.797  18.117  14.258 -0.1871 -0.1820 -0.1344
24214W        W39683  15.700  15.552  12.910  0.2863 -0.0487  0.2799
24215W        W39684   1.693   2.172   0.220  0.2795 -0.1338 -0.2660
24216W        W39685   5.090   8.979   9.951  0.1046 -0.1243  0.1351
24217W        W39686  14.585  16.178  11.086 -0.0682 -0.0855 -0.0241
24218W        W39687  13.977   2.806  11.310  0.0410  0.0091  0.2418
24219W        W39688   3.992  14.647   0.282  0.0668  0.0995  0.0999
24220W        W39689   2.545  13.290   2.925 -0.3956 -0.1218 -0.1462
24221W        W39690   1.261   2.567   2.399 -0.2993  0.1125  0.0398
24222W        W39691  14.932  15.416   2.285  0.1967  0.1166  0.1478
24223W        W39692   8.622  11.914   3.917  0.1641  0.3573  0.4548
24224W        W39693  13.893  17.895   2.484 -0.0085 -0.2618 -0.2198
24225W        W39694  17.037   3.500   4.185  0.0999  0.0830 -0.0665
24226W        W39695  13.647  15.040   3.222  0.0110  0.2123 -0.0134
24227W        W39696  12.276  13.608  11.809  0.1806 -0.4271 -0.1019
24228W        W39697   3.327   2.294   2.361  0.2150 -0.0867 -0.1287
24229W        W39698  16.878  15.000   4.765 -0.1347  0.0189 -0.1406
24230W        W39699   6.803  12.072  11.213  0.0972 -0.0870 -0.1084
24231W        W39700  11.428   9.329  13.011  0.0925 -0.1263 -0.0082
24232W        W39701  14.716   3.507   1.692 -0.0067 -0.2395  0.2187
24233W        W39702  14.942   9.880   5.949 -0.4588 -0.2117  0.0862
24234W        W39703   3.263   8.136   3.925 -0.2289  0.1536  0.0408
24235W        W39704   3.474   8.923  14.505 -0.0438  0.3442  0.3490
24236W        W39705   6.715   8.201   0.389  0.1349  0.3792 -0.1656
24237W        W39706   2.444  12.940  15.296  0.0423  0.1561 -0.2318
24238W        W39707  15.041   6.724  14.448  0.0446 -0.0080 -0.1865
24239W        W39708   0.131   7.400   1.328 -0.2233  0.2487 -0.1684
24240W        W39709   8.075  16.923  13.387 -0.0027 -0.0670  0.1248
24241W        W39710  17.658  18.473  14.031  0.2101 -0.1252  0.1921
24242W        W39711  15.479  17.805  13.871  0.3417  0.1905 -0.3184
24243W        W39712   8.363   3.677  14.135  0.1509 -0.1110 -0.0263
24244W        W39713   8.112   9.788   0.132  0.0589  0.0731  0.0466
24245W        W39714   8.349   2.125  14.451 -0.2855  0.1372 -0.5257
24246W        W39715   6.126  17.725   1.394  0.2852  0.0817  0.1450
24247W        W39716  18.019   7.232  11.604  0.0718 -0.1246 -0.0782
24248W        W39717   8.848  14.914  15.200 -0.2531 -0.0591  0.2436
24249W        W39718  18.361  11.384   3.863 -0.0056  0.1118  0.0099
24250W        W39719   9.918  15.471  14.461 -0.0357 -0.0026 -0.0687
24251W        W39720  10.990  12.528  13.607  0.2886  0.3374  0.0209
24252W        W39721  15.787  12.391   3.054 -0.1862 -0.0416 -0.2314
24253W        W39722  11.501   4.930   0.215  0.2798  0.1397  0.0957
24254W        W39723   6.559   8.590  14.049 -0.0635 -0.0956  0.1377
24255W        W39724   7.814   9.584   2.222  0.0254  0.0916 -0.1132
24256W        W39725   8.097  15.729   0.051 -0.1781 -0.2023 -0.0528
24257W        W39726   1.927  18.450  12.927 -0.1094 -0.2803 -0.0169
24258W        W39727   8.620   7.901   1.663  0.5058 -0.1337 -0.0292
24259W        W39728   7.683   4.353  15.400  0.1148  0.0593  0.1602
24260W        W39729  14.657   6.410  14.193  0.3745  0.0658 -0.1887
24261W        W39730   5.628   9.761  10.595 -0.0365  0.2004 -0.2098
24262W        W39731  14.553  10.071  15.387  0.3280 -0.0470 -0.2750
24263W        W39732   0.165   1.883  12.577  0.2510  0.3278  0.1782
24264W        W39733  17.229  15.795   0.126 -0.0895  0.2453  0.4227
24265W        W39734   1.533   9.052   4.566  0.1129 -0.1586 -0.0025
24266W        W39735   8.070   3.088  15.754 -0.1384 -0.2503 -0.2820
24267W        W39736  14.688   6.185   4.087 -0.1541  0.1328 -0.1067
24268W        W39737   7.273   3.663   1.020 -0.0029 -0.1506  0.1301
24269W        W39738   7.233  18.424  14.020  0.0804 -0.3300  0.1037
24270W        W39739   7.277   3.517  15.314 -0.2752  0.2370 -0.0275
24271W        W39740  17.427   6.844   1.911  0.0887 -0.3442  0.0048
24272W        W39741   4.227   6.167   1.959  0.2450 -0.0661  0.2753
24273W        W39742   5.462  12.587   4.728 -0.1153 -0.0442 -0.1863
24274W        W39743   8.427   7.944   2.539  0.2393  0.5329 -0.0363
24275W        W39744  11.353   3.768   1.935  0.0573  0.1962  0.2639
24276W        W39745  16.404  13.485   0.602 -0.0176  0.1420 -0.1119
24277W        W39746   3.200   4.771  15.687 -0.2635  0.0580  0.0967
24278W        W39747   5.933   7.979  10.555  0.3883  0.1070  0.0915
24279W        W39748   3.629  12.145  11.524  0.0307  0.2164  0.0507
24280W        W39749  17.969   6.554   0.379 -0.0319  0.2284  0.1699
24281W        W39750   6.534   8.901   3.724 -0.3913  0.1082 -0.0464
24282W        W39751  12.455  16.781   2.084 -0.1023 -0.1352 -0.0690
24283W        W39752   1.085  16.515   3.193 -0.0537  0.0082  0.2091
24284W        W39753  17.493   3.223   3.480 -0.2892 -0.2053 -0.0784
24285W        W39754  18.300  12.537  15.682  0.2282 -0.3049  0.4054
24286W        W39755  18.380   5.328   4.255 -0.0503 -0.4384 -0.1234
24287W        W39756   4.009  12.018   2.382  0.1179 -0.0903  0.2698
24288W        W39757   0.272   8.023   5.394 -0.1551 -0.1035 -0.0357
24289W        W39758   5.790   5.148  11.086  0.0145  0.3223  0.1345
24290W        W39759   4.914   2.686   1.235  0.2479 -0.2331  0.3003
24291W        W39760  14.409   7.147   0.611  0.2498 -0.2499  0.2207
24292W        W39761  11.979  15.171  12.238 -0.2801  0.0217  0.3478
24293W        W39762  17.485   0.357  13.746  0.0664 -0.0789 -0.4534
24294W        W39763   9.107  13.262   1.118  0.2176 -0.0176 -0.0428
24295W        W39764   5.980   6.487  14.108 -0.0541  0.3155 -0.3033
24296W        W39765   2.639   9.247   3.094  0.0668 -0.1642 -0.0815
24297W        W39766  10.253   2.065  11.436  0.1062 -0.2902  0.1730
24298W        W39767   3.094  14.789   5.602 -0.2141 -0.2204  0.0431
24299W        W39768  18.319  10.408   0.377  0.1380  0.0370  0.0056
24300W        W39769   7.303   8.786  14.063  0.0460  0.0996  0.0406
24301W        W39770  17.008  12.847   4.372 -0.1133  0.2220 -0.2586
24302W        W39771  14.804  16.830   3.232 -0.2151  0.1387  0.1112
24303W        W39772  12.150  12.876   4.523 -0.0451 -0.2399  0.0947
24304W        W39773   8.036   6.315   0.946  0.0489 -0.1329  0.0610
24305W        W39774   9.931   8.540   4.737 -0.1185  0.1029 -0.0626
24306W        W39775   3.318  14.202  12.842 -0.0218  0.1150 -0.1473
24307W        W39776   9.383   3.316   2.415 -0.2878  0.0763 -0.3649
24308W        W39777   7.808   0.837   3.924  0.1664  0.0592  0.1426
24309W        W39778   5.304  17.233   1.684  0.1320  0.0556 -0.1419
24310W        W39779   9.101   7.608   1.719 -0.0563 -0.4036 -0.0226
24311W        W39780  16.388  18.228  10.896  0.0130 -0.1631 -0.0558
24312W        W39781  16.857   8.854  11.741 -0.2002 -0.1172  0.2852
24313W        W39782   0.700   2.604  13.887  0.1118  0.1359 -0.0956
24314W        W39783  14.753  14.754  14.964 -0.0051  0.3105 -0.3148
24315W        W39784  13.268  15.922   4.284  0.2203 -0.2165 -0.1074
24316W        W39785   5.445   5.310   1.000  0.0439  0.1353 -0.0730
24317W        W39786   3.958  10.355  11.554 -0.2992  0.2283 -0.2625
24318W        W39787   3.751   7.593  15.453  0.0442  0.1592 -0.1771
24319W        W39788   1.009  11.896   0.226 -0.4489  0.1750 -0.2476
24320W        W39789   4.116   9.560  11.272 -0.3543 -0.3711  0.2120
24321W        W39790  11.786   7.297  15.708  0.0696 -0.0382  0.0471
24322W        W39791  11.748  13.745  11.362  0.0165  0.1377 -0.1566
24323W        W39792   9.506   8.997   2.771  0.2177 -0.3544  0.0352
24324W        W39793  18.365   8.663  12.477  0.0178  0.0012  0.2721
24325W        W39794   5.330  16.366  12.390 -0.3608  0.1597  0.1219
24326W        W39795   8.446  16.541  13.407 -0.1437 -0.4071 -0.1315
24327W        W39796  12.145  11.695   0.691 -0.0219 -0.0580 -0.0579
24328W        W39797   4.792   7.750   6.259 -0.0316  0.0221  0.0751
24329W        W39798  16.515   8.885   5.035  0.2142  0.1039  0.3902
24330W        W39799   5.420  11.677   1.395 -0.1721  0.2612 -0.0354
24331W        W39800   3.157   6.948   1.889  0.4401 -0.3154  0.1509
24332W        W39801   1.945  13.748   3.927 -0.2321  0.0455 -0.1142
24333W        W39802  12.137  12.949  13.175  0.1283  0.0344  0.1301
24334W        W39803  11.135   4.753  12.987  0.0966 -0.0843  0.0499
24335W        W39804  16.878   2.159   4.503  0.1728 -0.1692  0.1038
24336W        W39805   1.648   1.509  12.116 -0.0261 -0.0000 -0.0798
24337W        W39806  16.621  13.745   2.874  0.2846 -0.2207  0.3702
24338W        W39807   8.284  11.157  12.563 -0.1119  0.3397  0.2573
24339W        W39808  15.424   7.851   2.686 -0.2159  0.0504 -0.1050
24340W        W39809   9.636  16.549   0.789  0.1720  0.1900 -0.2019
24341W        W39810   7.500  12.416  10.830 -0.3228 -0.1054  0.1714
24342W        W39811   1.385   4.276  11.469 -0.1374 -0.1160  0.0188
24343W        W39812  13.037  15.585  11.083 -0.0231  0.2434  0.0027
24344W        W39813   5.347  11.913   0.682 -0.0195 -0.0857 -0.1148
24345W        W39814   3.128   5.315   0.688 -0.2892 -0.0985 -0.1382
24346W        W39815   3.895   0.000   0.900  0.0434  0.1288  0.2233
24347W        W39816  13.430   3.374  11.068 -0.3463  0.2206 -0.0110
24348W        W39817   9.441   6.722  14.488 -0.2794  0.0390  0.1396
24349W        W39818  12.880   6.318  15.330 -0.0447 -0.1423 -0.0569
24350W        W39819  16.976  10.196   4.231  0.0980  0.0701  0.1747
24351W        W39820   8.149  11.975  14.031  0.1816  0.1575 -0.0899
24352W        W39821   1.585  10.572   4.707  0.0740 -0.1648  0.2117
24353W        W39822   0.329   0.398  11.820 -0.1778  0.1301  0.0549
24354W        W39823  16.777  15.440  15.825  0.2572 -0.2650 -0.1809
24355W        W39824   2.632   2.398  13.864 -0.1132 -0.2445 -0.1226
24356W        W39825  15.491   5.150  11.874  0.0705 -0.0242  0.0939
24357W        W39826   8.021   2.333   4.532  0.1542 -0.1020  0.3550
24358W        W39827  10.055  15.281  15.711  0.0883  0.4556  0.0326
24359W        W39828  11.561   5.271  15.593  0.0300  0.0401  0.0828
24360W        W39829  16.802   0.341   3.473  0.2698  0.2016 -0.1567
24361W        W39830  11.754   6.033  11.646 -0.0518 -0.0928  0.2125
24362W        W39831  16.710   8.763   3.084  0.2809  0.0816 -0.1530
24363W        W39832   5.409   9.767  15.094 -0.1443 -0.2688 -0.1514
24364W        W39833   6.513   1.047   1.131 -0.1428  0.0383 -0.2332
24365W        W39834   9.550   0.914  14.688  0.0742 -0.2375  0.1780
24366W        W39835  11.147  15.905   1.997  0.0175  0.0444 -0.1672
24367W        W39836  13.891   6.151   2.154 -0.0401  0.0140  0.1231
24368W        W39837  12.923  12.575  13.134 -0.1144 -0.1193 -0.1199
24369W        W39838  18.302  16.495   0.780  0.2315  0.0852  0.1886
24370W        W39839  11.539  13.472   2.348 -0.2722 -0.2031  0.1767
24371W        W39840   3.324   7.762   4.957  0.2024  0.1253  0.2423
24372W        W39841  16.956  13.571   3.554  0.1197 -0.1503  0.1259
24373W        W39842   4.802  15.401   2.478 -0.1541 -0.1650 -0.0074
24374W        W39843  12.944  11.230   4.364 -0.0186  0.0516  0.1909
24375W        W39844  15.682   1.322   1.872 -0.2014  0.0931  0.2790
24376W        W39845   4.730  17.041  10.363  0.1128 -0.3554  0.0293
24377W        W39846  14.231   0.113   1.049  0.2494  0.1151 -0.3652
24378W        W39847   6.241   7.414  15.372  0.0257 -0.0458  0.0487
24379W        W39848   1.332   9.919  11.358 -0.1622 -0.0946 -0.3848
24380W        W39849   6.692  18.295  13.278 -0.1041  0.2317 -0.1828
24381W        W39850   5.668   6.899  11.822 -0.4353 -0.0212 -0.1191
24382W        W39851   0.235   2.177   4.850  0.0180 -0.0252  0.1536
24383W        W39852   9.137  10.569   6.078  0.0441  0.1349  0.2615
24384W        W39853   0.278   1.105  12.359 -0.0133  0.2265  0.0576
24385W        W39854  18.233   4.031   3.455 -0.1150  0.6069  0.0405
24386W        W39855   3.902  15.298   3.731 -0.1250 -0.1380 -0.0875
24387W        W39856   5.726   6.848   4.950  0.1589  0.1981  0.0095
24388W        W39857  17.653   8.785   4.148  0.0389  0.0962  0.2442
24389W        W39858  10.198   3.904   5.778  0.1044 -0.1214  0.0913
24390W        W39859   9.079  16.786  12.614 -0.3770 -0.2044  0.0335
24391W        W39860   4.955  18.298  12.610  0.2157  0.0640 -0.1106
24392W        W39861  14.832   8.142  13.193  0.0565  0.1416 -0.0848
24393W        W39862   9.217   3.356  15.171 -0.2896 -0.0395 -0.2529
24394W        W39863   3.923  12.587  11.221 -0.2798 -0.0247 -0.0170
24395W        W39864   7.529  16.501  14.994 -0.3496  0.2411  0.0116
24396W        W39865  17.861   8.738  13.440  0.1184  0.1486  0.1711
24397W        W39866   7.202   4.923   2.916 -0.0562 -0.0422  0.0163
24398W        W39867  13.034  12.148   1.799 -0.1801  0.0868  0.0069
24399W        W39868  10.131   5.232  15.410 -0.1438 -0.0570  0.5003
24400W        W39869   8.897   7.915   2.762 -0.1921 -0.1046  0.0181
24401W        W39870  12.854   4.808  13.069  0.0638  0.2556  0.1712
24402W        W39871   2.835   1.749   1.719 -0.0285 -0.4505 -0.1064
24403W        W39872   8.758   8.586   0.728 -0.1125 -0.0717  0.0705
24404W        W39873   2.459  11.659  11.119 -0.1198  0.1178  0.3065
24405W        W39874   7.416   7.396  13.075  0.0107 -0.1871 -0.0705
24406W        W39875  17.490  10.987   3.703  0.1032 -0.0451 -0.4322
24407W        W39876  13.576  13.512  11.588  0.1127 -0.2282  0.0005
24408W        W39877   2.729  17.827  11.683 -0.1846  0.1957  0.3840
24409W        W39878  16.963  11.174  15.655  0.0976  0.0007 -0.0638
24410W        W39879   9.921   1.155  15.279 -0.1253  0.2936  0.0786
24411W        W39880   9.914   1.899   0.005  0.0180 -0.0073  0.0721
24412W        W39881   6.475   4.920  11.846 -0.0844  0.1938  0.1537
24413W        W39882  17.495  12.906  13.674  0.0463 -0.1368  0.1274
24414W        W39883  10.287   0.458  12.904 -0.0253 -0.4604 -0.1950
24415W        W39884   6.806   1.645   4.231  0.1815 -0.0252  0.0026
24416W        W39885   1.672   6.429   0.594  0.1203  0.0630 -0.3611
24417W        W39886  18.323  17.221   5.091  0.1587  0.1678  0.1403
24418W        W39887   9.834   9.489   1.566  0.1003 -0.2300 -0.0772
24419W        W39888  13.597   6.915  12.374  0.1894  0.3030 -0.0276
24420W        W39889  10.983   5.710  12.386  0.0285  0.0237  0.0939
24421W        W39890   8.985   5.461  11.077 -0.3392 -0.2625 -0.0295
24422W        W39891   1.755   8.735   2.001  0.0283 -0.2581 -0.1871
24423W        W39892   6.447  13.418   5.089  0.1040  0.2119 -0.1447
24424W        W39893   8.996   6.454   3.617 -0.1605  0.1063  0.0400
24425W        W39894   3.345  14.293   5.404  0.2198  0.1262 -0.4455
24426W        W39895   8.963   3.728  11.056  0.0102 -0.0523 -0.2468
24427W        W39896   3.305   1.626  14.785 -0.0400  0.0727  0.1934
24428W        W39897  12.987   4.289   4.959 -0.1062  0.0659  0.0642
24429W        W39898   6.336   7.868   5.432 -0.2711 -0.3573  0.1259
24430W        W39899  10.753   1.922  10.223  0.1054 -0.1568 -0.0611
24431W        W39900  16.208  12.079  10.735 -0.2886  0.1747 -0.0431
24432W        W39901  15.795   6.467  13.393 -0.1895 -0.0475 -0.0809
24433W        W39902  13.355  10.488   2.217  0.1077 -0.0070 -0.2277
24434W        W39903  10.972   4.464   2.465 -0.0516 -0.0624 -0.4807
24435W        W39904   2.013  14.816   4.637 -0.1094  0.1676 -0.1413
24436W        W39905   4.572  14.098  13.878  0.0894 -0.1952  0.0833
24437W        W39906   0.208   4.630  14.818 -0.0997  0.0005  0.4130
24438W        W39907  14.106  13.110   2.342 -0.0508 -0.1188  0.0231
24439W        W39908   9.936   6.666  14.328 -0.3320  0.0955 -0.2158
24440W        W39909   7.585   0.659   2.114  0.2868  0.0496 -0.0400
24441W        W39910   3.481  13.020   0.541  0.5019 -0.0186 -0.1837
24442W        W39911   2.292   9.443   0.416  0.0660 -0.3033  0.1410
24443W        W39912   1.518  17.510   1.436 -0.2124 -0.1622 -0.0366
24444W        W39913   6.916   0.299   0.933 -0.5243  0.0853  0.0867
24445W        W39914   8.930   0.464   0.136 -0.1336 -0.1725 -0.1815
24446W        W39915   2.438   8.215  12.405 -0.1545  0.0390 -0.1734
24447W        W39916   0.230  14.381  15.284 -0.1603 -0.2830 -0.3618
24448W        W39917   0.130  13.436  15.794  0.0356 -0.0377  0.0071
24449W        W39918  14.001  13.263   5.009 -0.1506 -0.1126  0.1687
24450W        W39919  13.050  13.538  11.730  0.0857 -0.1587  0.1470
24451W        W39920   3.273   8.089   3.405 -0.0661  0.1116 -0.3242
24452W        W39921   2.173  13.508  12.016 -0.0074  0.0207 -0.0652
24453W        W39922   8.087   6.261   4.645  0.2966  0.2401  0.0417
24454W        W39923  13.386   9.799  11.504  0.0955  0.0458  0.0250
24455W        W39924  15.436  15.943  10.184  0.2002 -0.0882  0.0202
24456W        W39925   8.752  10.483  14.412 -0.0385 -0.0405 -0.0172
24457W        W39926  11.478   4.029   0.632  0.0411  0.1982 -0.0835
24458W        W39927  17.324  18.461   1.916 -0.0100  0.1456  0.2515
24459W        W39928  10.938  12.935  13.963  0.0871 -0.0074  0.1268
24460W        W39929   3.952  15.241  14.072 -0.0503 -0.0705 -0.0420
24461W        W39930   8.480  14.279   2.336 -0.0554  0.0089 -0.0529
24462W        W39931  15.086   4.002  11.370  0.1039 -0.3215 -0.2265
24463W        W39932  11.522  14.795   4.983 -0.0361  0.4575 -0.0399
24464W        W39933  17.683  11.218  13.484  0.1885  0.1759 -0.0937
24465W        W39934   1.057   2.516  10.648 -0.1592  0.2153  0.1397
24466W        W39935   8.249  17.910  14.768  0.2187  0.1684  0.1643
24467W        W39936  13.880   8.927   1.028  0.2826  0.2540 -0.0828
24468W        W39937   9.921   9.234  14.980  0.2734 -0.0795  0.1283
24469W        W39938  13.827   7.293   4.889 -0.1914 -0.2737  0.0122
24470W        W39939  15.764  17.971  11.647 -0.1360 -0.1147 -0.1331
24471W        W39940  10.323  15.552   2.980 -0.0310 -0.0130 -0.0542
24472W        W39941   8.755   2.927  10.141 -0.1139  0.0109 -0.2192
24473W        W39942  10.088  17.728  11.939 -0.0541  0.1945 -0.3077
24474W        W39943   2.175  12.093  11.430  0.1149  0.1448 -0.2295
24475W        W39944   0.989   3.436   2.131  0.0160 -0.1981  0.0414
24476W        W39945   8.589  18.449  15.487 -0.1155  0.0802  0.2211
24477W        W39946  11.238   6.931   2.896  0.0631 -0.4342  0.0969
24478W        W39947  12.696   8.884   0.645 -0.2788  0.0919  0.1922
24479W        W39948   0.802   8.042  12.706  0.1611 -0.1784  0.0384
24480W        W39949   7.022  14.434   3.231 -0.0553  0.1503  0.0556
24481W        W39950   0.659   8.140   9.430  0.1452 -0.1781 -0.0314
24482W        W39951  17.380  14.855  15.758  0.0750  0.2807  0.1973
24483W        W39952  16.457   1.893   4.538  0.0396 -0.1729  0.1746
24484W        W39953   8.112   3.881  14.640  0.0497  0.0542  0.0676
24485W        W39954   4.187   7.848   1.778  0.0955  0.3078  0.0646
24486W        W39955  16.780  14.322   4.213 -0.0659  0.0014  0.2580
24487W        W39956   3.968   7.200   2.238 -0.0887  0.3825 -0.3684
24488W        W39957  14.047   0.055  12.946  0.0272  0.2244  0.0941
24489W        W39958   4.891  11.157   3.182  0.0921 -0.2654  0.0744
24490W        W39959   5.728   4.979   0.334  0.4497  0.1386 -0.0418
24491W        W39960   8.719  14.385   3.846  0.0715 -0.2335 -0.2818
24492W        W39961  10.321  10.140  14.120  0.4919  0.0729  0.2741
24493W        W39962   9.568   9.021   1.483  0.1415  0.1921  0.2330
24494W        W39963   8.082   3.707  13.201  0.0587 -0.0994 -0.0889
24495W        W39964   8.774   1.228  11.251  0.0471  0.0240 -0.1535
24496W        W39965   2.574  17.007   4.618 -0.1157 -0.0847  0.0691
24497W        W39966   8.800   4.789  14.936  0.0399 -0.0046  0.0279
24498W        W39967   2.685   5.202   1.676  0.3717  0.1973  0.2373
24499W        W39968   8.103   3.200  11.798  0.0500  0.0042 -0.1519
24500W        W39969   2.299   0.048  13.818 -0.3113  0.1818 -0.1439
24501W        W39970   2.871  18.223  11.868 -0.0618 -0.0817  0.1844
24502W        W39971   8.021   1.462   1.107 -0.0365  0.0006  0.0951
24503W        W39972  18.314   1.688  10.877 -0.1070  0.1094  0.1398
24504W        W39973  13.214  13.747  15.799 -0.2944  0.0319 -0.0586
24505W        W39974  18.173  17.248   4.214  0.1910 -0.1028  0.1415
24506W        W39975   2.264   7.875   1.941 -0.0089 -0.0354  0.1092
24507W        W39976   9.142  14.314   4.142 -0.1295 -0.0095  0.0506
24508W        W39977  17.392  16.367   4.177  0.1086 -0.0849  0.1194
24509W        W39978  16.902   0.927  14.378  0.0588 -0.2253  0.2965
24510W        W39979   8.284  15.198  11.167 -0.1044  0.1687 -0.0807
24511W        W39980   0.066  14.385   2.882  0.1008 -0.1891  0.1112
24512W        W39981   1.904   8.844   2.948 -0.3559 -0.2348  0.1694
24513W        W39982   1.003   8.637  11.198  0.1440 -0.1027  0.0219
24514W        W39983  18.256   6.182   5.340 -0.1728 -0.1392  0.1628
24515W        W39984  13.518   7.707  14.280 -0.2030 -0.0347 -0.1196
24516W        W39985   3.523  17.634   1.661  0.0705  0.0262 -0.2903
24517W        W39986  14.605   5.801  13.949  0.4059 -0.0400  0.0623
24518W        W39987  10.145  11.396  10.769  0.1202  0.2518  0.0708
24519W        W39988   5.445  18.316  15.762 -0.2955 -0.2253 -0.0941
24520W        W39989   8.883  12.086   5.946 -0.1834 -0.0216 -0.0353
24521W        W39990  17.861  12.233   3.050 -0.2335 -0.1724  0.2432
24522W        W39991   7.540   2.192  10.976 -0.0265 -0.1531 -0.0873
24523W        W39992  16.005  12.057  13.174  0.0185  0.1442  0.1418
24524W        W39993  14.577  13.524  15.008 -0.0383  0.3111  0.0382
24525W        W39994  14.042  10.112  14.051  0.0508 -0.0658 -0.1583
24526W        W39995  12.957  17.578   4.082  0.0092  0.0625 -0.1959
24527W        W39996  10.167  12.436   0.561 -0.0261  0.0862 -0.0114
24528W        W39997   3.715   1.519   1.177 -0.0337  0.2969  0.2916
24529W        W39998  11.320   5.302  15.119 -0.2092 -0.0187 -0.1719
24530W        W39999  15.477   7.026   3.277  0.1541  0.1739 -0.0765
24531W        W40000   1.847   1.130  12.425  0.2159  0.1796 -0.0923
24532W        W40001   7.280   5.331   5.301 -0.1917 -0.0701 -0.2183
24533W        W40002   4.089  14.575  10.640  0.1119 -0.1074  0.1073
24534W        W40003   5.347   7.686   4.091  0.1430  0.2735 -0.0309
24535W        W40004   5.504   1.093   5.546  0.0342 -0.0376  0.1583
24536W        W40005   5.616   5.615  11.038 -0.3145 -0.0401 -0.0563
24537W        W40006  10.244   2.424  12.970  0.0516 -0.2357  0.1684
24538W        W40007  15.309  17.123   3.455  0.2277 -0.1378 -0.0759
24539W        W40008  18.105   7.742   1.376 -0.1651  0.3710 -0.0462
24540W        W40009   9.263   1.140  11.154 -0.2577 -0.0132 -0.0969
24541W        W40010  13.071   1.869  14.157  0.0853  0.2151  0.1299
24542W        W40011  13.208  13.464   1.767 -0.0263  0.0666 -0.1878
24543W        W40012  17.144   6.448  12.051 -0.0453 -0.1741 -0.0181
24544W        W40013   6.558   7.966  11.314  0.0351  0.2743  0.1063
24545W        W40014   5.952  17.534   0.711  0.0546  0.2937  0.1955
24546W        W40015   8.995   3.007   3.842  0.3257  0.0273 -0.2085
24547W        W40016  11.672   4.830  13.763  0.2020 -0.2231  0.1419
24548W        W40017   3.393   8.978   4.276 -0.2175 -0.1333  0.0007
24549W        W40018   7.637   7.236   3.484  0.1565 -0.0660 -0.3372
24550W        W40019  12.770  16.816   1.557 -0.1287 -0.0334 -0.1244
24551W        W40020   6.324  15.925   2.579 -0.0206 -0.1852 -0.1825
24552W        W40021   1.742  11.950   4.874 -0.2068  0.0076  0.2461
24553W        W40022  10.322   5.628  14.772 -0.1437  0.2200  0.0983
24554W        W40023  14.318  10.972  13.054  0.2401 -0.3292 -0.0126
24555W        W40024  14.888   3.874  14.302 -0.2356 -0.0605  0.2171
24556W        W40025   4.038   0.829   3.101 -0.3157  0.0888 -0.2717
24557W        W40026  13.274   9.341  11.515 -0.0168  0.1729 -0.2500
24558W        W40027   2.362   2.950  10.683  0.1536  0.0567  0.1521
24559W        W40028  16.801  16.583   0.784  0.0471 -0.0806  0.3263
24560W        W40029   1.818   5.321   2.780  0.2467 -0.0780 -0.3782
24561W        W40030   0.313   4.584   4.896 -0.1280 -0.0633 -0.0723
24562W        W40031  10.085  15.497   5.415  0.0587 -0.0401  0.0276
24563W        W40032   2.735  10.148  12.402  0.1755 -0.1450 -0.0921
24564W        W40033   5.279   1.998   4.512 -0.0099 -0.0873  0.1460
24565W        W40034  13.477  13.382   4.244 -0.0510  0.3556 -0.2285
24566W        W40035  12.474   8.261  10.832 -0.1163 -0.0101 -0.0086
24567W        W40036   2.652   0.935  14.250 -0.2687 -0.2033  0.2303
24568W        W40037   6.560  18.202   4.149 -0.1104 -0.3513 -0.1076
24569W        W40038   6.198   9.989   4.578 -0.4996  0.0089 -0.0959
24570W        W40039   0.245   6.983  14.907  0.2571  0.1099 -0.0038
24571W        W40040  15.562   0.533  13.505 -0.0338  0.0076 -0.1882
24572W        W40041   9.874   9.390  11.646  0.2602 -0.0094 -0.0078
24573W        W40042   2.864  11.265   9.812  0.0269  0.1463 -0.0511
24574W        W40043  13.298  10.436  11.407  0.2194 -0.1338  0.1837
24575W        W40044  10.992  12.890  15.400 -0.1907  0.0615  0.2708
24576W        W40045  17.351   0.782  11.959  0.3760  0.0503 -0.0369
24577W        W40046   9.275   9.483   0.428  0.0579  0.1131  0.1315
24578W        W40047  18.293   8.017   1.009  0.3058 -0.1682  0.0825
24579W        W40048   9.399   3.109   1.884  0.0971 -0.2379  0.2562
24580W        W40049  17.009   0.327   4.768 -0.1086  0.4113  0.0255
24581W        W40050  10.098   9.453  13.172 -0.1188  0.1669  0.0326
24582W        W40051  16.505  11.937  15.130  0.1654  0.0859 -0.0372
24583W        W40052   0.991   1.147   4.051 -0.1478  0.2175  0.1877
24584W        W40053   2.209  15.888   4.479 -0.0013  0.2695  0.1255
24585W        W40054  17.144   8.319  13.792 -0.0488  0.0853  0.1637
24586W        W40055  16.086   9.465  11.597 -0.0299  0.0457  0.2993
24587W        W40056   7.862   1.823  12.932  0.2230  0.0581  0.2143
24588W        W40057   3.160  16.012  10.834 -0.2616  0.3249  0.0675
24589W        W40058   7.895   6.422  15.208  0.0518  0.0776 -0.2704
24590W        W40059  10.553   1.826  12.632  0.2048 -0.0798  0.0725
24591W        W40060  12.653  17.869  15.142  0.2533 -0.0077 -0.0785
24592W        W40061   7.187   3.697  14.835  0.0507  0.2249  0.2011
24593W        W40062   6.386  17.678  11.070 -0.0522 -0.0577  0.0253
24594W        W40063   4.569  13.703  14.277 -0.4254  0.3787 -0.3087
24595W        W40064  18.468  16.003   2.241 -0.1744 -0.0833 -0.0656
24596W        W40065  10.423   1.212   5.267 -0.0816  0.0642  0.0509
24597W        W40066  17.767  12.419  13.483  0.0720 -0.3419  0.2236
24598W        W40067   0.619   7.647   1.019  0.2338 -0.0117  0.0983
24599W        W40068   9.013   4.587   2.355 -0.2101  0.1622  0.0658
24600W        W40069   5.079   5.503   0.195  0.0644 -0.0359  0.2552
24601W        W40070   0.922   8.052   1.297 -0.0762 -0.2365 -0.0655
24602W        W40071  13.035  13.333  14.490  0.0187  0.4442 -0.1212
24603W        W40072   9.426   0.529  14.374 -0.3052  0.1120  0.3432
24604W        W40073  16.194   8.872   2.814 -0.1083 -0.0181 -0.0725
24605W        W40074  10.211   3.108   2.202  0.0849 -0.3256  0.1393
24606W        W40075   9.198  13.400  14.693  0.3246  0.2244 -0.0829
24607W        W40076   8.674  13.885   4.153  0.0235  0.4132  0.0120
24608W        W40077   6.815  12.676   1.371 -0.1155 -0.0791 -0.1577
24609W        W40078   8.137   5.121  12.061  0.0761  0.2146 -0.0135
24610W        W40079  13.186  18.389   4.572 -0.1876 -0.0616  0.0842
24611W        W40080  18.285   5.786   2.453  0.2128  0.2365  0.1369
24612W        W40081  12.947   9.489   5.089  0.0622  0.2100  0.3130
24613W        W40082  12.459  15.647  14.357 -0.1973  0.0477  0.0354
24614W        W40083  10.517   5.431   2.311 -0.1710  0.1813  0.0925
24615W        W40084   5.972  11.174  15.086  0.0578 -0.0548 -0.0833
24616W        W40085   7.774   6.078  12.959  0.1858  0.3079 -0.3096
24617W        W40086  16.981   8.284   0.997 -0.2954  0.1957  0.1223
24618W        W40087   1.950  18.154  14.946 -0.3158 -0.2099  0.1101
24619W        W40088   4.123   7.280  12.338 -0.0284  0.1094 -0.0374
24620W        W40089  18.429  11.994  14.912  0.1645 -0.3288 -0.0869
24621W        W40090   7.002   3.787   1.912  0.0958  0.1105 -0.3023
24622W        W40091   1.870  17.511  10.242  0.1019  0.0916  0.4470
24623W        W40092   8.380  17.753   3.892  0.0717  0.0932 -0.2520
24624W        W40093   2.022  12.671  14.952 -0.3978 -0.0110 -0.0477
24625W        W40094  14.392   3.598  12.240  0.1589  0.1989  0.0328
24626W        W40095   6.337   6.198   3.024 -0.0584  0.1019  0.1927
24627W        W40096  10.036  16.123  15.617 -0.4610 -0.0487 -0.1585
24628W        W40097  11.383   2.431   4.806  0.1041  0.4894 -0.0948
24629W        W40098   3.032  14.450   3.326 -0.1167 -0.1805  0.2589
24630W        W40099   5.605  15.886   4.471 -0.0637 -0.0417 -0.1250
24631W        W40100   1.914   6.064  12.039  0.1223 -0.1933  0.1239
24632W        W40101  17.348  13.652   0.496  0.1275 -0.2461 -0.0233
24633W        W40102   3.573  14.008   2.143 -0.1696  0.2557 -0.3137
24634W        W40103  14.277   0.612  15.293  0.3640  0.0754  0.2563
24635W        W40104  10.166   5.041   3.231 -0.1823 -0.0421 -0.0581
24636W        W40105   0.332   9.141  15.414 -0.2346  0.0733  0.1506
24637W        W40106   1.640  18.472   0.296 -0.0765 -0.4002  0.1394
24638W        W40107  15.073   4.845  11.631 -0.0083 -0.0715 -0.0234
24639W        W40108  18.004   3.301   4.620  0.0497  0.0367  0.0003
24640W        W40109   9.824   7.229   1.220 -0.1358  0.2450  0.2594
24641W        W40110   1.673   7.865  12.234  0.0070  0.1229 -0.1414
24642W        W40111  17.899   2.122   5.899  0.0275  0.0900 -0.0120
24643W        W40112  11.590  17.000   5.281 -0.1000 -0.1229  0.0300
24644W        W40113  15.962   0.557  15.884 -0.0349  0.4891  0.1326
24645W        W40114   3.937   3.068   1.326 -0.2819  0.0283  0.0098
24646W        W40115  10.590  11.547   0.438  0.1504  0.2663  0.1515
24647W        W40116   6.569   7.247  14.627  0.1103 -0.0453 -0.1052
24648W        W40117   3.287   0.803   3.255 -0.4330  0.1599 -0.1327
24649W        W40118   1.758  17.816   1.050 -0.0077  0.0651 -0.0653
24650W        W40119  16.304  10.503  13.252 -0.1837  0.2106  0.1291
24651W        W40120  13.729  14.279   5.076 -0.6144 -0.0054 -0.1940
24652W        W40121   7.625  15.176   5.048 -0.4366 -0.1386  0.1283
24653W        W40122   6.396   9.541  13.776 -0.0061  0.1585  0.1827
24654W        W40123   3.311   6.855   5.521  0.0366  0.0233 -0.0891
24655W        W40124   3.991  17.751   6.052 -0.0690  0.0886 -0.0623
24656W        W40125  10.640   8.812   1.375  0.3025  0.0998  0.0841
24657W        W40126  18.117   5.515   2.051  0.2940 -0.1736 -0.1291
24658W        W40127  15.994  12.875  10.979 -0.1036 -0.1839 -0.1504
24659W        W40128  12.499   5.676  10.874  0.3091 -0.2304  0.0740
24660W        W40129  13.640   1.498   5.248  0.3197  0.3501  0.0778
24661W        W40130  14.080   9.751  12.039 -0.2081  0.1409  0.0029
24662W        W40131  15.105  10.662  15.552 -0.1339 -0.1348 -0.0749
24663W        W40132   2.223   3.576   4.371 -0.1146 -0.0532 -0.3069
24664W        W40133  17.844  17.317   0.082 -0.2737 -0.1144 -0.2050
24665W        W40134   4.087  10.235   0.998  0.1801 -0.1006 -0.0509
24666W        W40135  16.259  15.890   4.831  0.0227  0.2797 -0.2906
24667W        W40136   4.879   1.502  14.003  0.3011 -0.0497 -0.0687
24668W        W40137  14.430   2.852   2.432  0.1477  0.2479 -0.1515
24669W        W40138   0.010  15.892  14.635  0.1406 -0.1449 -0.0744
24670W        W40139   6.981   9.143   1.424 -0.0056  0.0837  0.0137
24671W        W40140   9.143   4.082   1.519  0.0065 -0.2521 -0.2858
24672W        W40141   7.964   6.351  12.553  0.0829  0.0124  0.0275
24673W        W40142  16.495  18.241  14.526  0.2079 -0.1865 -0.0801
24674W        W40143  12.446  13.718   4.079  0.0709 -0.0713 -0.0293
24675W        W40144   2.083  18.194  13.532 -0.0081  0.2431 -0.0011
24676W        W40145   1.956   9.578  12.953 -0.2049 -0.0332  0.2779
24677W        W40146  11.196   4.194   1.724 -0.0256 -0.0638 -0.0409
24678W        W40147   3.135   6.560  14.953  0.1363 -0.0183 -0.0388
24679W        W40148  16.649  16.919  14.461 -0.2885  0.0551  0.0603
24680W        W40149   5.806   7.740  11.552  0.1958 -0.1347  0.0595
24681W        W40150  13.663   6.805   5.150 -0.0181 -0.2599 -0.1332
24682W        W40151   3.042   4.882   0.355  0.0629 -0.1627 -0.0112
24683W        W40152   5.885   6.234   0.113 -0.1752 -0.1674  0.0505
24684W        W40153   5.207   7.515  15.462 -0.0399 -0.0405  0.0260
24685W        W40154  17.283  15.416  13.908 -0.0116  0.0860 -0.1921
24686W        W40155  14.429   9.479  15.274 -0.0603  0.1260 -0.2320
24687W        W40156   4.396   3.991  13.941  0.1180  0.2421 -0.2082
24688W        W40157  16.728  10.466   5.533  0.1317 -0.0418  0.1452
24689W        W40158   6.129  12.854   4.055 -0.1178 -0.0832 -0.1197
24690W        W40159  12.724  14.425  13.329  0.1687 -0.1849 -0.2528
24691W        W40160   7.420   3.686   3.814 -0.1829 -0.2005 -0.3293
24692W        W40161  17.278  12.699   2.794  0.0344 -0.0666 -0.1500
24693W        W40162  18.016  14.487  12.323 -0.3061 -0.0914 -0.0883
24694W        W40163   4.342  17.685  13.483 -0.1731 -0.0570  0.0405
24695W        W40164  12.175   5.073   0.445  0.3567 -0.3653  0.2128
24696W        W40165  12.068   6.392  11.507 -0.1030 -0.1611 -0.1372
24697W        W40166  10.055  16.537   5.118  0.0999  0.3816  0.0620
24698W        W40167   1.099   7.685   2.649 -0.1502  0.2530  0.1226
24699W        W40168   4.510   6.332  10.181 -0.1043 -0.0382  0.3459
24700W        W40169   3.945  15.644   1.830  0.1095 -0.0337  0.1180
24701W        W40170   3.996   9.989  11.891 -0.2291 -0.2299  0.1529
24702W        W40171   6.964  12.661   5.022 -0.1886  0.0125  0.0884
24703W        W40172  14.122   4.391  13.081  0.0471  0.2343  0.0306
24704W        W40173   0.430   1.112  15.331 -0.0686 -0.0656  0.0573
24705W        W40174   1.194  17.621   5.334  0.1554 -0.0260  0.5257
24706W        W40175   1.735   4.236   3.117  0.1534 -0.1351  0.1176
24707W        W40176  15.824   0.446  10.641 -0.2786  0.2016  0.1009
24708W        W40177   3.043   9.974  14.716 -0.1051  0.1163 -0.1211
24709W        W40178   7.390   8.604   5.631  0.1608  0.2570  0.1619
24710W        W40179  13.102  14.136   3.253 -0.1784  0.1891 -0.0691
24711W        W40180   8.219   2.863  14.862 -0.1667 -0.0430 -0.1542
24712W        W40181   1.136   4.928   4.741  0.4401 -0.0145  0.1466
24713W        W40182  14.295  15.347   0.179  0.0725  0.0211 -0.0849
24714W        W40183  16.735   8.003  14.074 -0.1442  0.1188  0.0687
24715W        W40184   3.635  14.799   1.659  0.1591 -0.1274  0.2650
24716W        W40185   4.862   5.056   1.565 -0.1844 -0.1158  0.3008
24717W        W40186   9.543  12.114  12.815  0.2216  0.1052 -0.0028
24718W        W40187   6.594  16.292  12.487 -0.1657 -0.1494  0.0266
24719W        W40188   7.483  15.254  15.283 -0.1403  0.3349 -0.2253
24720W        W40189   2.698   1.895  13.818  0.1729  0.3706 -0.0290
24721W        W40190   7.831   3.850  10.847  0.2342  0.0312  0.1729
24722W        W40191   0.419  14.286   0.029  0.0278 -0.2809  0.3431
24723W        W40192  14.736   8.951   1.421 -0.0089  0.1370 -0.2540
24724W        W40193   7.753  17.937   1.716 -0.0389  0.0324 -0.0405
24725W        W40194  13.078   6.281  10.034  0.1557 -0.0577 -0.0822
24726W        W40195  14.580   5.572   2.574 -0.1464 -0.1577 -0.0776
24727W        W40196   4.154   3.677   4.466  0.1205  0.0678 -0.1932
24728W        W40197   9.182  12.482   1.391 -0.1183  0.0147  0.2656
24729W        W40198   6.067   1.341   5.475  0.1879  0.0529 -0.1879
24730W        W40199   2.989   6.858   1.010 -0.1071 -0.0303  0.0964
24731W        W40200   5.291   1.553  11.852 -0.4650 -0.2130 -0.1283
24732W        W40201   0.154  16.036  12.297 -0.0050  0.1309 -0.3150
24733W        W40202  14.816  17.163  14.365  0.6398  0.0986  0.0360
24734W        W40203  10.448   4.481   2.516 -0.0655 -0.1681  0.2156
24735W        W40204   6.128   6.846  12.024 -0.1482  0.2280  0.4002
24736W        W40205  11.106  11.732   6.076 -0.0300 -0.2520 -0.1045
24737W        W40206   9.308  15.716   0.431 -0.0874  0.1699 -0.0865
24738W        W40207   6.430  10.551   3.697  0.0879  0.1225  0.1440
24739W        W40208  12.910  15.487  14.146 -0.0791 -0.2130  0.3123
24740W        W40209   1.631   6.345  11.043 -0.0435  0.0433 -0.2128
24741W        W40210  16.743   0.168   0.337  0.0895  0.0811 -0.1788
24742W        W40211  14.121  16.823   5.364  0.0177  0.2672 -0.0766
24743W        W40212   1.212   8.908   0.979 -0.0449 -0.1896  0.1181
24744W        W40213  14.195   6.077  14.055  0.4622 -0.3657  0.0601
24745W        W40214  14.295  14.614   1.346 -0.0539  0.2015  0.0018
24746W        W40215  17.888  18.238  14.414  0.2689 -0.1076 -0.2813
24747W        W40216  17.659  11.433   2.670 -0.0588  0.0571 -0.0807
24748W        W40217  17.711   5.295  14.366 -0.0873 -0.0778  0.5072
24749W        W40218   5.916   9.528   3.612  0.3343 -0.0453  0.1261
24750W        W40219  10.592   0.179  14.600 -0.0817 -0.3488 -0.0004
24751W        W40220  12.955  10.852  15.076  0.2623  0.2312  0.2061
24752W        W40221   0.806   4.537  10.829  0.3488  0.1562  0.0255
24753W        W40222   1.411   5.419   3.655 -0.1498  0.2843  0.0399
24754W        W40223   0.191   4.283   5.294  0.0649 -0.0501  0.3843
24755W        W40224  13.130  14.653   3.169  0.1484 -0.3366  0.0931
24756W        W40225   4.997  12.223  13.156 -0.2494 -0.1977  0.1225
24757W        W40226  14.355   6.755  11.110 -0.4445  0.3755  0.2656
24758W        W40227   6.116   0.302   0.707  0.0912  0.1692 -0.1859
24759W        W40228   3.294   2.073   1.815 -0.0764 -0.2298  0.1564
24760W        W40229  16.133   1.912  13.920 -0.0103  0.0171 -0.3508
24761W        W40230   5.300  18.299  10.981  0.3457  0.2260  0.1387
24762W        W40231   7.736   7.432  10.652  0.4090 -0.1684  0.1617
24763W        W40232  16.690  17.783  13.271  0.1312  0.0059  0.1257
24764W        W40233  10.657  13.844  13.844  0.0171  0.0033  0.2145
24765W        W40234   5.542  17.905   0.623  0.0470 -0.0692  0.0450
24766W        W40235  15.559  15.289   4.658  0.2101 -0.1704  0.0354
24767W        W40236  11.439   6.999  11.981  0.1221  0.0926  0.1896
24768W        W40237  10.322   0.761   1.657  0.2234 -0.0365 -0.0062
24769W        W40238  15.595  11.376   4.461 -0.0627 -0.1741 -0.0712
24770W        W40239  17.809  15.561   0.864 -0.0357  0.0380 -0.2042
24771W        W40240   8.391   2.014  13.395 -0.0788 -0.3361 -0.2402
24772W        W40241  17.597   9.091  10.747 -0.1649  0.2306  0.0163
24773W        W40242   0.238   5.114   0.817 -0.2004  0.0173 -0.0642
24774W        W40243   0.114   1.503  13.553 -0.3561 -0.0677  0.0266
24775W        W40244  16.005   7.217   2.627  0.0205  0.0475 -0.1642
24776W        W40245  16.338   2.883  15.311  0.0605  0.2446  0.1904
24777W        W40246  17.730   0.598  11.732 -0.5602 -0.1595  0.2430
24778W        W40247  15.967   9.196  14.403 -0.1879  0.0544 -0.0163
24779W        W40248   7.096  12.332   2.482 -0.3011  0.3785 -0.2995
24780W        W40249   3.438   9.901  13.487 -0.0334  0.1003  0.1018
24781W        W40250   8.709   1.697  11.053 -0.0071  0.1314  0.0905
24782W        W40251  15.238   5.221  11.314 -0.1594 -0.1179  0.1509
24783W        W40252  10.011   5.694  12.854 -0.0856  0.2119 -0.4388
24784W        W40253  15.650  13.676   3.139  0.2575  0.2602  0.1991
24785W        W40254   7.551  15.648  15.765  0.2509 -0.0434 -0.1155
24786W        W40255   1.316   1.328   3.588 -0.3696  0.0728 -0.0304
24787W        W40256   6.027   2.254   3.166 -0.0235  0.1441 -0.2773
24788W        W40257   7.252   3.962  13.078 -0.0141  0.1486  0.2378
24789W        W40258  12.230  15.080  15.854  0.0246 -0.0034  0.0566
24790W        W40259   8.923  15.921  13.867  0.1350  0.2040 -0.2990
24791W        W40260  16.739   4.051   3.411 -0.0342  0.0352 -0.5095
24792W        W40261   4.006  16.838   4.938  0.0983  0.3048 -0.0116
24793W        W40262   5.176   9.923  12.389  0.2645  0.0646  0.0084
24794W        W40263  17.035  14.453   0.088  0.0287 -0.2551 -0.0049
24795W        W40264   4.020  15.939   1.443 -0.0214  0.0222 -0.2035
24796W        W40265   7.549   1.515   2.190  0.0133 -0.0050  0.0013
24797W        W40266  15.716   1.420  12.478 -0.1917  0.3540 -0.0060
24798W        W40267  14.278   3.961   2.532 -0.0584 -0.0828  0.0890
24799W        W40268  13.188   7.107   2.263  0.1688 -0.0566  0.0274
24800W        W40269  18.254   0.496  11.808 -0.3543  0.0914 -0.1553
24801W        W40270   0.416   2.272  12.849  0.0272 -0.0081  0.0103
24802W        W40271   3.033  15.681   2.474  0.0776 -0.3535 -0.1025
24803W        W40272   0.246  14.392  14.142 -0.1963 -0.1451 -0.0288
24804W        W40273   4.979  16.216   5.580 -0.1294 -0.1308 -0.1406
24805W        W40274  10.993   1.335   4.096 -0.0277 -0.5014  0.2642
24806W        W40275  12.162  14.626   4.381  0.1279  0.0542  0.1439
24807W        W40276  15.222  12.873  15.211 -0.0641  0.1602 -0.0898
24808W        W40277   8.803  12.994   3.805 -0.0406  0.1354  0.1167
24809W        W40278  13.814  18.374   4.570  0.0598  0.0686  0.0664
24810W        W40279   3.928  12.821   2.744  0.0815 -0.2247 -0.1289
24811W        W40280  14.592  11.922   4.155 -0.0793  0.2772  0.1473
24812W        W40281   1.966   3.118   1.505 -0.2057 -0.0693  0.0594
24813W        W40282   6.787  15.969   6.416  0.0377 -0.1285  0.0612
24814W        W40283  12.456   2.212   0.119  0.0397 -0.2792  0.0450
24815W        W40284   7.522  17.497  11.806 -0.1001 -0.0228 -0.1013
24816W        W40285  15.922   1.544   2.776  0.0351 -0.0134  0.0988
24817W        W40286  16.816   6.699   2.718  0.0192  0.1541 -0.1465
24818W        W40287  17.769   0.777   2.139 -0.0734  0.1892  0.0254
24819W        W40288  15.931   3.102  11.292  0.2113 -0.1996  0.1740
24820W        W40289  12.125   9.273  13.800  0.0118 -0.2175 -0.0167
24821W        W40290   0.256  14.387  10.692 -0.1194 -0.2029  0.1445
24822W        W40291  17.211   9.102  14.050 -0.1999 -0.2107 -0.2237
24823W        W40292   4.627   9.002   5.000 -0.0010 -0.0305 -0.0754
24824W        W40293   5.828   7.782   1.827 -0.0882 -0.0744 -0.1100
24825W        W40294   8.441   7.019  12.182  0.0394 -0.0729 -0.0156
24826W        W40295  16.828   7.514  11.906  0.1301  0.0434  0.3413
24827W        W40296   0.197  17.833   4.639  0.1119  0.2672  0.1166
24828W        W40297   6.618   5.778  10.978  0.2907  0.0216  0.1897
24829W        W40298   4.307   4.568  15.883 -0.5874 -0.3901  0.1691
24830W        W40299   2.925   7.958  12.028 -0.0042 -0.3364  0.0389
24831W        W40300  10.593  14.555  12.210 -0.1225  0.2214  0.0891
24832W        W40301   6.877   7.717   0.289  0.1054 -0.0117  0.3605
24833W        W40302   7.409  18.335  15.550  0.0418  0.0877 -0.0905
24834W        W40303   1.913  13.893  15.783  0.0276 -0.1512  0.2202
24835W        W40304   9.869  13.794  14.906  0.3434  0.1679 -0.1362
24836W        W40305  10.536   6.134   3.036  0.0586  0.0475 -0.2083
24837W        W40306   7.289  16.089   1.229 -0.2700 -0.0315  0.1083
24838W        W40307   7.175   7.468  10.464 -0.1773 -0.3168 -0.0900
24839W        W40308  14.490  15.284  11.477  0.0277 -0.1965  0.1811
24840W        W40309  12.450  17.947   2.925  0.2499 -0.0453  0.1110
24841W        W40310   0.261   1.182   2.688 -0.0273 -0.2314  0.1563
24842W        W40311  10.376  10.533  10.548  0.2525  0.0775 -0.3847
24843W        W40312  10.530  12.890   4.691 -0.3272 -0.0235  0.2449
24844W        W40313  16.486   1.482   1.369  0.0154  0.1667 -0.1323
24845W        W40314   9.867  16.588   0.130 -0.0146 -0.0823 -0.1221
24846W        W40315   1.750  15.334   2.688 -0.2220 -0.1225  0.1083
24847W        W40316   0.307   7.591  11.215  0.3214 -0.0309  0.0181
24848W        W40317   8.615   1.940   4.303  0.1970  0.0007 -0.0040
24849W        W40318  13.494   2.489  15.580  0.0615  0.1536  0.2447
24850W        W40319  10.652  16.823  13.168 -0.0766  0.1296 -0.2668
24851W        W40320  12.542   6.362  15.824 -0.0625 -0.3008  0.0713
24852W        W40321  17.993   2.988   1.706  0.0839 -0.1543  0.1768
24853W        W40322  14.819  16.065   4.932 -0.4080  0.0826 -0.2895
24854W        W40323  15.371  12.814   5.289  0.2536  0.1931 -0.0841
24855W        W40324   3.530   2.308   5.035 -0.0016  0.0980  0.0891
24856W        W40325   0.466   0.636  15.177 -0.0364 -0.0439  0.1645
24857W        W40326   8.493  15.051  14.764  0.1564 -0.0136 -0.1661
24858W        W40327  14.526  15.633   1.277 -0.0636  0.1492 -0.0366
24859W        W40328   3.780   8.706  11.818 -0.1570  0.0152 -0.1753
24860W        W40329   3.435  17.644   4.305  0.0115 -0.2677  0.0554
24861W        W40330  14.251  15.381   2.949  0.1373 -0.0546  0.1306
24862W        W40331   8.651   3.992  12.529 -0.2296  0.0001  0.1174
24863W        W40332   9.339   5.039  12.456  0.2284 -0.1769 -0.1994
24864W        W40333  14.739   7.934   0.728 -0.1221 -0.2891  0.1932
24865W        W40334   5.651  17.183  12.171  0.2529  0.1627 -0.3134
24866W        W40335  10.940  10.166   9.849 -0.0293  0.1780 -0.3210
24867W        W40336   5.558  12.813  11.991 -0.1468 -0.2355  0.3097
24868W        W40337   9.771  11.777   3.897  0.0679  0.1114  0.0679
24869W        W40338   9.529   8.287   3.341  0.0178 -0.1307 -0.3023
24870W        W40339   4.628   2.377   0.983  0.0352 -0.2193  0.1836
24871W        W40340   1.988  13.824  13.630  0.0753 -0.1293 -0.0297
24872W        W40341  13.834  17.702   3.676 -0.0301  0.3133  0.1689
24873W        W40342   4.998  12.787  11.805 -0.0991 -0.2063 -0.0651
24874W        W40343   4.116  10.736  15.063 -0.1285 -0.2123  0.1776
24875W        W40344   1.594  15.446   0.079 -0.3428 -0.0447  0.1874
24876W        W40345   2.840  10.011   5.487 -0.1379  0.1047 -0.1077
24877W        W40346  13.342  10.763   1.757 -0.0425 -0.0383  0.0992
24878W        W40347   2.264  13.152  14.840 -0.0790  0.3780  0.4053
24879W        W40348  12.977   3.593  14.308  0.1171  0.1098  0.0259
24880W        W40349   5.668  13.290  11.807  0.3563 -0.2832 -0.0957
24881W        W40350  12.237  12.547  15.606 -0.1147  0.0795  0.3050
24882W        W40351  16.106  13.463  10.431  0.1171  0.4817  0.3565
24883W        W40352  18.302  13.214   5.012 -0.0494 -0.0250  0.1120
24884W        W40353   9.888  14.258  15.214  0.0660  0.1417 -0.0530
24885W        W40354  12.264   6.392   4.898 -0.2639  0.3665  0.0271
24886W        W40355  13.982  16.412   4.791  0.2466 -0.1940 -0.1861
24887W        W40356  12.607   7.137  11.317 -0.0121 -0.1073 -0.1754
24888W        W40357   2.873  14.798   1.956 -0.1083  0.2159 -0.1409
24889W        W40358  13.246   4.661  10.916 -0.1166 -0.3049  0.1518
24890W        W40359  13.459  11.568  13.234  0.1584 -0.3156  0.1698
24891W        W40360   6.272  17.373   5.163 -0.1693 -0.0931 -0.0426
24892W        W40361   2.518   8.154  15.695 -0.0576 -0.2283  0.0384
24893W        W40362   0.128   4.563   2.032  0.0662  0.1457 -0.2704
24894W        W40363  12.111  14.780   5.480 -0.3711 -0.0079 -0.0491
24895W        W40364  16.893  10.312  10.062 -0.1569 -0.0551  0.1210
24896W        W40365   0.509   5.676   1.932 -0.1939  0.2043 -0.0280
24897W        W40366   6.109  17.613   4.800 -0.0503  0.2056 -0.0263
24898W        W40367   2.671   6.357   0.100 -0.0632 -0.0700 -0.0137
24899W        W40368   9.193  14.130   0.999 -0.0975 -0.1927  0.0600
24900W        W40369   0.317   3.087   3.828  0.2019 -0.0750  0.1212
24901W        W40370   2.269   6.183  15.500  0.1191  0.0901  0.2160
24902W        W40371  16.272  16.745   3.013 -0.0435  0.0801  0.1788
24903W        W40372   9.316   6.526   0.775  0.1134  0.0660 -0.1211
24904W        W40373  16.184  15.947   0.352 -0.0320 -0.0377  0.1682
24905W        W40374  17.765  16.126   1.144  0.0547 -0.1708 -0.1360
24906W        W40375  11.702   7.425   5.579 -0.0803  0.0556 -0.2142
24907W        W40376  14.112  14.908   2.831  0.2433 -0.1207  0.0013
24908W        W40377   9.881  10.988  13.834 -0.0282  0.3658  0.1585
24909W        W40378   7.919   1.856   2.368  0.0752  0.0996  0.1884
24910W        W40379   6.877   6.853   4.483  0.2421  0.0953 -0.0041
24911W        W40380   3.249  17.765   1.143  0.1086 -0.2947  0.1272
24912W        W40381   9.019   8.827   5.191 -0.0166 -0.1118 -0.0478
24913W        W40382   0.044  11.400  13.986  0.0293  0.2881  0.2248
24914W        W40383  16.450   8.966  13.984  0.0706  0.1690 -0.1298
24915W        W40384  13.674   6.641   2.154  0.0828 -0.0456  0.0733
24916W        W40385  11.049   3.528  13.639 -0.1501  0.0919  0.0274
24917W        W40386  10.963  16.424   4.003  0.4613  0.2719  0.5079
24918W        W40387  11.698  10.062   4.035 -0.2520  0.0241  0.2877
24919W        W40388   6.042  12.554  14.838 -0.0454  0.1601  0.1344
24920W        W40389  12.025   1.258  11.491 -0.1574 -0.0124  0.3084
24921W        W40390  12.775   6.759   5.545  0.3555 -0.1295  0.1854
24922W        W40391  16.162  10.221  12.901 -0.0032  0.2924  0.1764
24923W        W40392  12.576   9.325   0.435 -0.1273  0.1374  0.1168
24924W        W40393  11.261   9.509   1.125 -0.0180  0.0376 -0.0079
24925W        W40394   9.927   3.596   1.127  0.2969 -0.1775  0.3793
24926W        W40395   6.179   7.188   4.555 -0.1708  0.2481  0.1559
24927W        W40396   0.516   1.888  13.834  0.2912  0.0171 -0.2913
24928W        W40397  14.743   9.409  15.707  0.0933 -0.1464 -0.1878
24929W        W40398   9.478   6.852   3.691 -0.0148  0.2397 -0.2236
24930W        W40399  13.484   0.868   1.600 -0.0501  0.2159  0.0751
24931W        W40400   2.762   6.184   3.367 -0.2661  0.0764  0.3186
24932W        W40401  14.882   1.651   1.212 -0.3244 -0.3590 -0.0575
24933W        W40402   2.431   4.437  15.365 -0.0799 -0.3941  0.0836
24934W        W40403  11.626  14.547   4.563 -0.0192  0.1087 -0.0889
24935W        W40404   7.156   7.728  13.823  0.1502  0.2635 -0.0812
24936W        W40405   6.994   2.708   2.461  0.0405  0.0360 -0.0165
24937W        W40406  15.754  14.929  12.772  0.1320 -0.0011  0.1836
24938W        W40407   9.728   7.772   2.707  0.1556 -0.1711  0.0832
24939W        W40408  10.006  11.379  13.436 -0.0631  0.1266 -0.3033
24940W        W40409   9.432  13.307   1.557 -0.0189  0.0125  0.0689
24941W        W40410   1.978   7.305   2.628 -0.2214  0.2953 -0.3536
24942W        W40411   1.460  13.022  13.562 -0.1757  0.2024  0.2833
24943W        W40412   1.308  11.758   5.810 -0.3454  0.0932 -0.2542
24944W        W40413   4.693   8.927   3.655  0.4281 -0.2031 -0.1002
24945W        W40414  10.825   0.264  11.855 -0.3731  0.2470  0.1785
24946W        W40415   2.703   5.932  13.188  0.2691  0.0741 -0.1409
24947W        W40416  14.218  17.813  12.122 -0.0114  0.2379 -0.0325
24948W        W40417  11.641  16.420  12.598  0.2001 -0.2443  0.1574
24949W        W40418  12.108   3.867  14.220 -0.4204 -0.2358 -0.2221
24950W        W40419   6.151  15.732   3.292  0.1895 -0.2453 -0.3159
24951W        W40420  17.339  12.232   3.736  0.0631 -0.0237 -0.2441
24952W        W40421   8.365   4.284  13.379  0.1234  0.0842 -0.3670
24953W        W40422  10.114   2.032   4.976  0.0966  0.2578  0.2952
24954W        W40423   8.311  15.533  11.568 -0.0671  0.1546  0.0520
24955W        W40424   8.802  14.286  13.109  0.0354 -0.1016 -0.2508
24956W        W40425   1.321  13.635   2.257 -0.0119 -0.3515  0.2269
24957W        W40426  17.138  17.547  15.383  0.2137 -0.1701  0.1831
24958W        W40427  14.364   5.090   0.488  0.0121  0.0098  0.1876
24959W        W40428   3.014   2.713   1.588 -0.0091  0.0005  0.3203
24960W        W40429  15.155   7.180   4.662 -0.3772 -0.0480 -0.0421
24961W        W40430  14.118   6.504  12.008  0.1891 -0.2772  0.1339
24962W        W40431  13.224   3.536   3.705 -0.1396 -0.0327  0.1072
24963W        W40432  18.377  14.224   4.962  0.2252 -0.3994 -0.0851
24964W        W40433  11.440  14.301   4.970  0.0456 -0.0044  0.3855
24965W        W40434  11.709  14.754   1.151  0.0403  0.2426  0.0574
24966W        W40435  13.081   8.626  14.715  0.2463 -0.0036  0.0400
24967W        W40436   1.175  16.230  13.565  0.0873 -0.1071  0.1268
24968W        W40437   5.026   1.485  15.910 -0.0209 -0.1328 -0.0314
24969W        W40438   9.326   1.907   4.669  0.1849 -0.0973  0.2348
24970W        W40439  12.300  11.437  13.456 -0.0761 -0.3067  0.2777
24971W        W40440  13.268  17.830   0.476  0.0906  0.1679  0.3896
24972W        W40441  13.846   0.601   3.698  0.2286  0.1298  0.0582
24973W        W40442   9.893   6.130  12.039  0.0589  0.0134 -0.1121
24974W        W40443   8.176   2.037   1.943  0.2871  0.2045 -0.1963
24975W        W40444   6.789  16.039   1.198  0.1257  0.0858 -0.2878
24976W        W40445  12.072  11.888   2.273 -0.0531  0.0746  0.1875
24977W        W40446  18.171  17.543  14.866 -0.0726 -0.2768 -0.1765
24978W        W40447  17.495   4.747  15.064 -0.3137  0.1344 -0.3886
24979W        W40448  13.539   1.900   2.172  0.1944 -0.1155 -0.1079
24980W        W40449   7.045  16.920  11.593  0.1371  0.1977  0.1087
24981W        W40450  12.596   7.740  11.125 -0.0052  0.1418 -0.2890
24982W        W40451   5.799  12.256  13.908  0.0267 -0.2671 -0.1519
24983W        W40452  17.840   3.861  12.920  0.0106  0.0879 -0.0965
24984W        W40453  11.104  14.582   4.677 -0.2267 -0.1208 -0.1831
24985W        W40454  14.551  16.501  12.473  0.1813 -0.1027  0.0842
24986W        W40455  17.958   6.102  14.312 -0.1290 -0.0780  0.2539
24987W        W40456   6.718   8.284  11.676 -0.0531 -0.1892 -0.1711
24988W        W40457   0.460  11.619  13.204 -0.0764  0.1669 -0.4646
24989W        W40458   3.804   2.309   3.753 -0.1505  0.2169  0.3958
24990W        W40459   2.180   4.389   4.433 -0.0718  0.0665  0.0030
24991W        W40460   0.364   2.047   2.658 -0.1488 -0.0586 -0.0651
24992W        W40461   4.158  13.203  15.332 -0.1329  0.1159 -0.2472
24993W        W40462  17.484   7.466   3.333 -0.3692 -0.0301 -0.0329
24994W        W40463  11.380   4.143   2.223 -0.1852 -0.1070  0.0120
24995W        W40464   6.543  15.762  12.276 -0.0689  0.0075  0.1301
24996W        W40465   3.004   9.489  14.832  0.0504 -0.0683 -0.0733
24997W        W40466  10.009   3.194  14.272  0.1773 -0.0463  0.1079
24998W        W40467   5.208   4.522   0.712 -0.0591  0.1163  0.3010
24999W        W40468   6.089  18.284   1.906  0.0781 -0.1186  0.1494
25000W        W40469   0.248  16.850   4.731  0.0915 -0.0307  0.2920
25001W        W40470   8.050   2.000   0.810 -0.2357  0.2003  0.1298
25002W        W40471   7.874  13.379   0.112 -0.1926 -0.1622  0.0261
25003W        W40472   2.083  11.622  13.904 -0.0188  0.2047  0.0890
25004W        W40473  11.624  18.027  12.088  0.2175 -0.2966 -0.1070
25005W        W40474   6.221   2.149  14.118 -0.0242  0.2564 -0.1410
25006W        W40475  12.751  15.906   0.211 -0.0270  0.2152 -0.0661
25007W        W40476   0.151  15.885  11.638 -0.2067  0.2924  0.1332
25008W        W40477   7.117   5.113   1.386 -0.1398 -0.1698 -0.0893
25009W        W40478  17.115  16.864  13.358  0.0728 -0.0681  0.0670
25010W        W40479   1.855  11.971  10.124 -0.3162 -0.0622 -0.0646
25011W        W40480   8.752  12.670   4.413  0.1977 -0.0301 -0.0300
25012W        W40481   9.133   6.033   3.949 -0.2872 -0.1365 -0.1812
25013W        W40482   9.419  14.903  12.995 -0.1195 -0.1089 -0.1008
25014W        W40483  16.886   9.404   2.322 -0.3808  0.0380  0.1118
25015W        W40484   1.312   0.789   4.943  0.2386  0.0408 -0.0976
25016W        W40485  13.553   9.339   2.939 -0.0196  0.1813 -0.3604
25017W        W40486  15.685  14.661  12.288  0.0049  0.1830  0.0321
25018W        W40487  16.192  16.283  13.079 -0.2742  0.2141  0.2348
25019W        W40488  12.173   4.985   2.933 -0.0171  0.1963 -0.1222
25020W        W40489  16.890  17.031   4.752 -0.1338  0.2338  0.0796
25021W        W40490  14.678   1.297  15.031  0.0873  0.0073  0.0093
25022W        W40491  13.780   5.142   4.254  0.0426 -0.1374 -0.0718
25023W        W40492   5.346   7.865   5.709 -0.0447  0.1611 -0.0367
25024W        W40493   6.454  10.507   2.061 -0.1481 -0.1487  0.3418
25025W        W40494   5.017   1.111  13.415  0.0587  0.2023  0.0099
25026W        W40495  15.019  11.987   4.866  0.2882 -0.1171  0.0979
25027W        W40496  10.144  13.380   1.919 -0.1856 -0.1817 -0.1524
25028W        W40497  10.371   5.229  13.624  0.0294  0.0107  0.2294
25029W        W40498   6.686  10.971  15.231  0.0274 -0.1626 -0.0478
25030W        W40499  14.814  17.987   2.275 -0.0993 -0.1228 -0.1140
25031W        W40500  13.590   3.379  15.186  0.0022 -0.1102  0.0207
25032W        W40501  12.081   7.173   2.198  0.1128  0.0302  0.0527
25033W        W40502   7.453   6.878   2.583 -0.0963 -0.2349 -0.0336
25034W        W40503   5.159   1.593   3.014  0.1560  0.3091  0.0914
25035W        W40504  16.063   3.228   3.300  0.1068 -0.1591  0.2234
25036W        W40505   3.513  17.173   4.627 -0.0801 -0.1023 -0.3456
25037W        W40506  12.425  16.208  14.311  0.0056  0.3188 -0.1535
25038W        W40507   8.598  12.903  11.182  0.2435 -0.0680  0.1006
25039W        W40508   4.303  11.657  11.290 -0.0617 -0.1895 -0.2268
25040W        W40509   1.332   7.978   1.612  0.0199  0.0572 -0.1567
25041W        W40510  17.202   8.191  15.600  0.0332  0.0235 -0.0765
25042W        W40511  15.778   9.176  13.211  0.1552 -0.0157  0.0325
25043W        W40512   3.441   6.932  14.909  0.0283 -0.1250 -0.1231
25044W        W40513   7.625  16.575   2.629 -0.0746 -0.4078 -0.0149
25045W        W40514  15.456   5.480   2.081  0.2490  0.0990  0.0260
25046W        W40515  13.573   7.681  12.920 -0.0396  0.0012  0.2326
25047W        W40516  13.171  13.384  13.666 -0.0614  0.0193  0.3392
25048W        W40517  10.691   3.731   0.193 -0.0327  0.1538  0.0229
25049W        W40518   3.344   9.749   3.293  0.1230 -0.4298 -0.0910
25050W        W40519  10.071   2.379   3.446 -0.0348  0.1022  0.1747
25051W        W40520  14.802  17.990   1.467  0.1168  0.0981  0.0179
25052W        W40521   1.424  18.299   4.596 -0.0003 -0.3109 -0.0393
25053W        W40522  16.263   1.480  11.283 -0.0707  0.4767 -0.3802
25054W        W40523   9.713   7.235   2.770 -0.0497 -0.1181  0.0686
25055W        W40524  14.196  11.354  12.663 -0.1020 -0.0026 -0.1830
25056W        W40525   0.259   5.930  15.889  0.0646  0.0932 -0.0933
25057W        W40526  15.107   2.331   0.488  0.1231  0.1105 -0.0914
25058W        W40527   8.670   2.423  10.847  0.3312  0.1758  0.2214
25059W        W40528  12.687  16.450  13.864 -0.4287 -0.1776  0.1281
25060W        W40529  17.759   9.122  14.280  0.0520  0.2450 -0.0885
25061W        W40530  16.264  13.021   0.425  0.0225  0.2477 -0.0563
25062W        W40531   7.336  15.555  12.673  0.1506  0.0417 -0.0469
25063W        W40532   7.043   5.865  12.773 -0.0713  0.2458 -0.1567
25064W        W40533  15.781  17.439  15.905 -0.1442  0.1175 -0.0273
25065W        W40534  12.425   0.095  14.606  0.2840 -0.1099  0.2302
25066W        W40535  15.860   8.187   0.294 -0.2805  0.1255  0.1830
25067W        W40536  10.749  14.537   2.036 -0.0473  0.0182  0.0217
25068W        W40537   2.863   8.174  14.142 -0.2050  0.1703  0.0950
25069W        W40538  14.068   6.997  14.268 -0.1092  0.0927 -0.1510
25070W        W40539   2.778  13.638  13.079  0.1423 -0.0297  0.2314
25071W        W40540   3.675   2.043   0.043  0.0100 -0.0944  0.1483
25072W        W40541   7.251   8.068   4.815 -0.1778 -0.0120 -0.5019
25073W        W40542  10.480  12.440   0.924  0.0455  0.0747 -0.0136
25074W        W40543  12.027   7.630   1.947 -0.1978  0.1289 -0.2384
25075W        W40544   3.893   2.512   1.556 -0.2713 -0.1413 -0.3445
25076W        W40545   0.007   7.870  15.169 -0.0341  0.2774 -0.0481
25077W        W40546   9.700  17.990   1.410 -0.1667  0.0143 -0.1616
25078W        W40547   0.650  18.130   2.472  0.0188  0.5005 -0.0268
25079W        W40548   5.634  15.752  15.517 -0.0990  0.3743  0.1369
25080W        W40549  15.244   9.214  13.215 -0.0959 -0.0522 -0.0260
25081W        W40550  13.744  12.017  12.561 -0.0939 -0.3103  0.2841
25082W        W40551  12.754  12.234  12.125  0.3067  0.5943 -0.0553
25083W        W40552   8.645   1.921   0.551  0.0746  0.4184 -0.0928
25084W        W40553   1.395  13.025   4.950  0.0250 -0.0436 -0.1908
25085W        W40554  17.777   8.270   4.872 -0.2672  0.0644 -0.0493
25086W        W40555  16.861   0.956   0.386  0.4021  0.1001  0.0480
25087W        W40556   4.290   9.341  14.970  0.0754 -0.3003  0.0460
25088W        W40557  17.583   3.924   2.714 -0.1364 -0.0322  0.0225
25089W        W40558  13.585  13.861   5.267 -0.1751 -0.3195  0.0536
25090W        W40559  11.278   4.117   2.832  0.2881  0.1090 -0.0507
25091W        W40560   2.906   9.680   2.864  0.0758 -0.1538 -0.1029
25092W        W40561  16.780  12.575  14.403 -0.2342  0.0284 -0.2270
25093W        W40562  11.721  12.041   5.344  0.1199  0.3002 -0.2180
25094W        W40563   6.239  16.044  13.644 -0.2193  0.1560  0.0850
25095W        W40564  10.821   5.950  15.644 -0.0571  0.0079  0.0213
25096W        W40565  17.887  12.735  14.300 -0.1193  0.0551  0.4228
25097W        W40566   8.530  12.134   2.571  0.1860 -0.1703  0.1255
25098W        W40567   2.919  18.146  10.905  0.1134  0.2049  0.1020
25099W        W40568   4.793  13.626  12.948 -0.2611  0.1220  0.1877
25100W        W40569   1.077   5.301   3.322  0.3360  0.3165  0.0437
25101W        W40570  17.516  16.587   1.205 -0.1085  0.0163  0.1963
25102W        W40571   7.898   1.847  14.364 -0.1574 -0.1053  0.2091
25103W        W40572   0.335   6.049  14.864 -0.0550  0.2297 -0.1107
25104W        W40573   1.125   0.353   5.731 -0.1104  0.2370  0.1975
25105W        W40574   5.726   4.398  11.862 -0.0005 -0.0874  0.2893
25106W        W40575  18.275   2.725  15.033  0.1332 -0.2329  0.1203
25107W        W40576  10.054   7.942  14.011 -0.1966 -0.0181  0.2741
25108W        W40577  18.100  17.604  12.570  0.1658 -0.0803  0.1296
25109W        W40578  14.309   1.865   1.102 -0.0545 -0.1130  0.2834
25110W        W40579  15.601   3.040  12.625  0.1317  0.2549 -0.1053
25111W        W40580  11.028   0.004   5.420  0.0707  0.1588  0.1814
25112W        W40581  12.264  12.664   5.943 -0.0525 -0.3486 -0.0414
25113W        W40582   9.074   0.190  15.224  0.1754 -0.2950  0.2049
25114W        W40583   1.951  16.801  11.824 -0.1230  0.2611  0.1978
25115W        W40584  18.252  13.531  14.141 -0.0126 -0.0205 -0.1019
25116W        W40585  11.649   9.744  12.065  0.0482  0.0379 -0.0564
25117W        W40586  17.441   5.325   3.997 -0.2675 -0.0276 -0.2802
25118W        W40587   8.041   8.959  11.586  0.1700 -0.1700 -0.0252
25119W        W40588  15.517   5.288   1.626  0.4232 -0.1350 -0.0347
25120W        W40589   4.052  14.643  15.335  0.0478 -0.1502 -0.2640
25121W        W40590  11.993   4.849  14.120 -0.0970 -0.4633  0.0740
25122W        W40591   5.643   7.499  15.640 -0.0981 -0.2057 -0.1076
25123W        W40592   0.083   1.254   1.687 -0.0768  0.2158 -0.1644
25124W        W40593   5.349   5.765  14.786 -0.0608  0.2093 -0.1808
25125W        W40594   7.703  15.397  12.988 -0.2039  0.0131 -0.2180
25126W        W40595  16.785  10.238  10.850 -0.0747  0.0689 -0.0127
25127W        W40596  18.108   1.071   3.220  0.2447  0.0943  0.0318
25128W        W40597  12.527  10.297   2.750  0.0038 -0.1067 -0.2987
25129W        W40598   9.497  17.702   6.224  0.1856  0.2914 -0.1503
25130W        W40599  16.300   8.899  11.157 -0.0772  0.0439 -0.1092
25131W        W40600  18.136   9.575  11.953  0.0469 -0.0138  0.0593
25132W        W40601  13.547   3.086  11.515 -0.1069  0.0288  0.1689
25133W        W40602   0.168  10.425  14.859  0.0370 -0.0772  0.1812
25134W        W40603  15.464  12.901  14.701 -0.1199  0.0086 -0.0004
25135W        W40604   9.129   5.215   4.068  0.1636 -0.1275 -0.0696
25136W        W40605  16.243   2.652  11.369  0.0782  0.1972 -0.1212
25137W        W40606  10.581   8.390   0.780  0.1472 -0.0450  0.1251
25138W        W40607   9.026   3.691   5.136  0.0964 -0.1404 -0.1973
25139W        W40608   4.196  11.192   0.085  0.1624  0.1604  0.0326
25140W        W40609   1.343  16.454   1.054  0.0394  0.1224 -0.1325
25141W        W40610   3.226  14.941  11.775  0.3141  0.1790  0.0713
25142W        W40611  10.821   9.259  14.056  0.0390 -0.0361 -0.0529
25143W        W40612   1.182  11.327   2.691 -0.1161  0.2554  0.2498
25144W        W40613   4.802   7.260   1.405 -0.2704 -0.0611  0.2704
25145W        W40614  14.020   1.557  11.197 -0.0753  0.0493 -0.0217
25146W        W40615  16.564   5.637  14.363  0.0847  0.3928 -0.0523
25147W        W40616   1.202   6.435   0.399  0.2968 -0.0541 -0.0993
25148W        W40617  10.000   4.445   2.374  0.1708 -0.1790 -0.0531
25149W        W40618   5.928   9.776   5.395  0.1583 -0.0432  0.1826
25150W        W40619  15.979   6.544  14.523  0.0655 -0.1520  0.1963
25151W        W40620   0.435   8.782  12.013 -0.2819  0.0489 -0.2215
25152W        W40621   8.949   8.937   3.337  0.1294  0.0117  0.0214
25153W        W40622   3.406  10.198   4.185  0.2148 -0.2654 -0.1020
25154W        W40623  13.666   8.391   1.486 -0.1228 -0.2075 -0.0334
25155W        W40624   3.552   1.034   4.675 -0.0322 -0.4113 -0.2678
25156W        W40625  13.076   2.106   0.947 -0.1158 -0.0918  0.0797
25157W        W40626   5.234   2.524   3.140 -0.2456  0.0804  0.1573
25158W        W40627  12.014   4.633  13.328 -0.2264  0.0645  0.0072
25159W        W40628   1.103  18.383  14.266  0.1182  0.0291  0.0076
25160W        W40629  11.353   2.172  15.460 -0.2115  0.0561  0.0794
25161W        W40630  11.464   3.146  15.325 -0.0065  0.1000  0.3240
25162W        W40631   8.963   5.256  14.199 -0.1990  0.1451  0.2302
25163W        W40632  14.134  16.063  15.324 -0.1718 -0.2181 -0.0650
25164W        W40633   3.157  10.691   4.980  0.0109 -0.1423  0.1105
25165W        W40634  18.107  15.171  14.567  0.2935 -0.0022  0.0566
25166W        W40635  15.483   3.586   4.711 -0.1405  0.0847 -0.1035
25167W        W40636  15.270  12.646  11.489 -0.0856  0.0366 -0.0548
25168W        W40637  14.061   5.460   5.021 -0.3789 -0.1426  0.1046
25169W        W40638  11.781   4.463  15.423 -0.1824  0.2029 -0.2711
25170W        W40639  14.250  14.263   5.100 -0.0689 -0.1921 -0.0707
25171W        W40640   0.685   4.323  14.745  0.0349  0.0537  0.0211
25172W        W40641  13.691  16.986   0.734  0.0381 -0.0814 -0.2869
25173W        W40642   2.366  13.158   3.640 -0.2633  0.1902  0.0810
25174W        W40643   3.498   5.673   1.439 -0.0949  0.4851 -0.1629
25175W        W40644   8.459  15.231  15.382 -0.0696 -0.0889 -0.1418
25176W        W40645  16.340   7.547   2.518  0.1352 -0.2250  0.0266
25177W        W40646  14.872  13.346  12.282 -0.0377  0.2157 -0.2237
25178W        W40647   7.465   3.447  11.643 -0.0358 -0.2164  0.1635
25179W        W40648   1.058   4.469   3.615 -0.0546 -0.0089  0.1549
25180W        W40649   2.276   7.812  12.063  0.1333  0.0837  0.3191
25181W        W40650   4.110   0.764  10.937 -0.0865 -0.1442 -0.3908
25182W        W40651  18.252   0.947   4.460  0.0491  0.0592  0.1460
25183W        W40652  13.933  12.311  15.129  0.0434 -0.2400 -0.1378
25184W        W40653   1.436   4.747  14.948  0.3182  0.0792  0.0749
25185W        W40654   0.573  14.628   1.389  0.0068  0.1736 -0.2805
25186W        W40655   9.936   6.087  14.404 -0.2769  0.3219  0.1145
25187W        W40656   9.959  16.791   1.083  0.0400 -0.0943  0.1870
25188W        W40657   4.129  12.571   3.255 -0.0591 -0.2377 -0.1624
25189W        W40658   6.934   1.332  11.508  0.0483  0.0900 -0.0225
25190W        W40659  14.535  11.472  10.628 -0.2675  0.3500 -0.3843
25191W        W40660  11.576   9.863   1.320  0.1248  0.0203  0.0486
25192W        W40661  17.316   3.998   3.512 -0.1013 -0.0715 -0.0090
25193W        W40662   9.317   9.084   4.777  0.0152  0.2188  0.1930
25194W        W40663   3.586  14.294   1.664  0.2167  0.0378 -0.0865
25195W        W40664   2.254   8.149   1.524 -0.2330  0.2009  0.2048
25196W        W40665  14.928  17.699   1.067 -0.1696  0.0530  0.2165
25197W        W40666   2.621   0.077   5.699 -0.2122 -0.0178 -0.1084
25198W        W40667  16.549  13.530   1.058 -0.3500 -0.1595 -0.0025
25199W        W40668  16.118   1.192   5.190 -0.3898 -0.2933  0.0851
25200W        W40669  12.181   3.759  14.794 -0.1535 -0.1268 -0.0346
25201W        W40670  11.342  11.115   4.242  0.0983  0.2526  0.0484
25202W        W40671   2.388  13.976   1.527  0.1574  0.0253 -0.2063
25203W        W40672  16.462  16.327   0.118  0.1651 -0.2137 -0.4163
25204W        W40673   5.966  13.722   2.190  0.0904 -0.0112  0.0380
25205W        W40674   8.763  12.590   5.984 -0.0469 -0.0295 -0.2776
25206W        W40675   3.915  17.038   0.111 -0.0649 -0.0485  0.1461
25207W        W40676  17.103   0.528  15.025  0.0386  0.0533 -0.2482
25208W        W40677   9.458   7.549  14.708 -0.1182 -0.0505  0.0582
25209W        W40678  16.766  14.854   4.252 -0.1017 -0.2185 -0.3511
25210W        W40679   3.177   1.299   3.210 -0.3654  0.0327  0.0307
25211W        W40680   4.764  16.156   3.953  0.3182 -0.1110 -0.4182
25212W        W40681  18.412   2.575  13.564  0.0965 -0.0225  0.0865
25213W        W40682   3.907  10.342   4.982 -0.0743 -0.1730  0.0471
25214W        W40683   1.886  11.359   3.645 -0.0691 -0.2564  0.0045
25215W        W40684  18.465   2.697  14.195  0.0017 -0.0344 -0.1386
25216W        W40685  12.582  11.192   3.431 -0.1116 -0.0482 -0.1725
25217W        W40686  10.713   4.268  12.936 -0.0218 -0.1520 -0.0327
25218W        W40687   0.951   3.737   5.097  0.1325  0.0455 -0.2483
25219W        W40688  10.760  10.751   2.776 -0.1274 -0.0239  0.0967
25220W        W40689  12.329  13.879  15.226 -0.1572 -0.1499  0.4741
25221W        W40690  13.962  14.700  13.771 -0.1362  0.4409 -0.2172
25222W        W40691   9.808   7.118   3.956  0.4567  0.2082  0.0936
25223W        W40692  15.864  14.216   4.203  0.2470  0.1466 -0.1071
25224W        W40693  14.736   7.462  12.073  0.1201  0.1427 -0.0088
25225W        W40694  15.113  18.107   5.033 -0.0162 -0.2746  0.1253
25226W        W40695   6.119  13.203  13.286 -0.0072  0.2212  0.0162
25227W        W40696  14.605  15.632   2.642  0.1434  0.0806  0.3000
25228W        W40697   4.859  11.819   0.630 -0.0453 -0.1931  0.0339
25229W        W40698   0.480   9.819   1.267 -0.0462 -0.1734 -0.4040
25230W        W40699   8.811   6.604   0.480  0.0857  0.0232 -0.0731
25231W        W40700   6.548   2.057   3.396  0.0439  0.1133 -0.1198
25232W        W40701   8.765  17.454   4.228  0.2597  0.0648 -0.1710
25233W        W40702  15.650   3.078   3.719 -0.0808 -0.1725  0.0112
25234W        W40703  13.938   1.961   4.490  0.2218  0.1395  0.0944
25235W        W40704   4.936  15.557  11.958  0.1122 -0.0237 -0.0311
25236W        W40705   9.487  17.714  13.441 -0.1484 -0.1725  0.0598
25237W        W40706   0.893   9.573   3.304 -0.0677 -0.1744 -0.1019
25238W        W40707   0.176   9.028  13.867  0.4775 -0.1117  0.0925
25239W        W40708   5.260   6.997  14.135 -0.0935  0.0096  0.1222
25240W        W40709   0.953  16.731  15.300  0.1817 -0.1614  0.1615
25241W        W40710  16.635  11.181  12.430  0.0226 -0.2045 -0.1016
25242W        W40711   8.550   9.579   0.619 -0.0135 -0.0476 -0.0642
25243W        W40712   3.953  14.115  11.566 -0.1371 -0.0433 -0.0413
25244W        W40713  15.374  14.469  13.661  0.0654 -0.2016 -0.0024
25245W        W40714  14.812   9.471   4.810 -0.1954 -0.0846  0.2213
25246W        W40715  14.869  10.943   3.762  0.0535 -0.3943  0.0725
25247W        W40716  15.042   3.379   2.461 -0.0732  0.0431 -0.0960
25248W        W40717   8.240   0.920   1.732 -0.2350 -0.1944 -0.0006
25249W        W40718   1.673  12.437  14.643  0.2455 -0.1144 -0.0603
25250W        W40719  11.327   8.795   1.928  0.0910 -0.1955 -0.2001
25251W        W40720  13.744   0.541  14.564  0.1453  0.0675  0.1163
25252W        W40721   3.717   4.330  13.065  0.0431  0.1247  0.3691
25253W        W40722   5.383  11.934  14.143 -0.1508  0.3700  0.1627
25254W        W40723  10.041   6.593   5.270 -0.3113 -0.1965  0.0985
25255W        W40724  14.623  12.941  10.884 -0.0623  0.1487 -0.0156
25256W        W40725   1.739   6.121   5.004  0.1865 -0.1185  0.1485
25257W        W40726   2.103   0.962  13.388 -0.2495  0.0007  0.0679
25258W        W40727   9.268  16.219   1.750 -0.1968 -0.1198  0.0160
25259W        W40728   7.288   4.237   3.672 -0.4168 -0.1003 -0.1544
25260W        W40729  13.837   1.304  15.691  0.0837  0.1038 -0.1404
25261W        W40730  13.491   0.607  14.049 -0.1450 -0.3346 -0.3399
25262W        W40731  16.489   7.149   0.866  0.0757 -0.5484  0.1523
25263W        W40732  16.768  12.051   4.672  0.1863  0.1730 -0.2964
25264W        W40733  17.389  14.292  15.746 -0.1406  0.3429  0.0617
25265W        W40734  11.999  16.319  13.083  0.3161  0.2054 -0.1747
25266W        W40735   5.261   8.468   4.268 -0.1717 -0.0001  0.0762
25267W        W40736  18.160   0.744  14.794 -0.3871 -0.3927  0.0406
25268W        W40737   7.285   2.237  12.182 -0.0563  0.0328  0.0328
25269W        W40738   3.698  15.215   0.879  0.1823 -0.1598 -0.4075
25270W        W40739  11.810   2.261  11.802  0.3732 -0.1706 -0.2116
25271W        W40740  14.037   8.283   2.783 -0.0993 -0.0521  0.2745
25272W        W40741  16.725   4.320   0.689 -0.3479 -0.1152  0.1544
25273W        W40742  15.821  10.736  10.117 -0.2022  0.2398  0.2148
25274W        W40743  10.837  12.438  12.562  0.0476  0.0421 -0.0906
25275W        W40744   3.744  13.709  13.418 -0.3032 -0.0956  0.0880
25276W        W40745   5.313   5.024   1.794  0.0001 -0.2758  0.2030
25277W        W40746   9.846   3.671  14.497 -0.1071  0.1217  0.1483
25278W        W40747   8.584   3.742   2.618 -0.4300 -0.2959  0.0322
25279W        W40748   3.245   9.837  14.279 -0.2412  0.1391  0.3264
25280W        W40749  14.290  18.108  13.516  0.1363 -0.0638  0.3912
25281W        W40750   6.214  15.175  11.371 -0.3826 -0.1908  0.2696
25282W        W40751   4.440  16.889   3.314  0.3021  0.0060  0.1868
25283W        W40752  18.161   8.105   1.712  0.1857 -0.0177  0.5149
25284W        W40753  16.059  10.227   0.691  0.1573 -0.2111  0.3665
25285W        W40754   7.982  17.478   0.097 -0.0556 -0.1145 -0.4207
25286W        W40755   5.837   5.133  12.634  0.1531  0.1617  0.2594
25287W        W40756   2.813  11.779  14.543 -0.1552  0.0796 -0.3134
25288W        W40757  12.998   0.959   1.359  0.1308  0.0470 -0.1223
25289W        W40758  13.341  12.194   4.959 -0.1419  0.1830 -0.3826
25290W        W40759   7.290  14.154   1.896 -0.1249 -0.4459  0.3208
25291W        W40760  16.442   5.695   4.701 -0.0269  0.0127  0.1466
25292W        W40761   9.163  17.980   4.568  0.0108  0.1821  0.1914
25293W        W40762  15.889  17.633  14.688 -0.3363  0.6461 -0.0589
25294W        W40763  17.704  17.370  14.638 -0.2413 -0.1351  0.2316
25295W        W40764   8.543  12.341   5.380 -0.0511  0.3061 -0.0637
25296W        W40765  14.089  14.503  15.731 -0.2715 -0.2926 -0.1834
25297W        W40766  12.050   9.173   1.844  0.1365 -0.0631  0.0811
25298W        W40767  15.738   4.134  14.085 -0.3425 -0.0987 -0.1589
25299W        W40768   4.247   4.166   2.301  0.3353 -0.0462 -0.1247
25300W        W40769   9.539   2.393   4.147 -0.0729  0.0927 -0.2516
25301W        W40770   0.887   0.334  15.069  0.3191 -0.1687 -0.2002
25302W        W40771  16.783   4.499   9.563 -0.0038 -0.1059  0.1154
25303W        W40772   6.176  14.317   5.830 -0.4003  0.0637 -0.1798
25304W        W40773  13.541   4.255  11.246 -0.1096 -0.0771 -0.1981
25305W        W40774   4.606   1.026   5.149  0.0060  0.4315  0.1473
25306W        W40775   3.200   4.936   1.648 -0.3050  0.0905 -0.2269
25307W        W40776  11.751   6.820   5.367  0.1239 -0.0164  0.1755
25308W        W40777   6.991   5.587   1.185  0.1196 -0.0465  0.1277
25309W        W40778  13.525   0.850  13.087  0.0747  0.1001  0.0824
25310W        W40779   4.238   8.888  15.208 -0.3625 -0.0481 -0.1662
25311W        W40780   6.702  14.617  11.834  0.1197  0.2562 -0.1393
25312W        W40781  14.109  15.677  15.635 -0.0373  0.2677 -0.5577
25313W        W40782  10.860  15.309  15.343  0.0168  0.2317 -0.1778
25314W        W40783  12.575   8.121  11.520 -0.2054  0.1036 -0.1220
25315W        W40784   2.127  10.525   1.987 -0.5152 -0.0097  0.0282
25316W        W40785   2.356  11.850  13.544  0.0862 -0.1109  0.1069
25317W        W40786   1.644  15.075   3.206 -0.0204 -0.0767 -0.1495
25318W        W40787  11.209   4.421   0.319 -0.0471 -0.0133 -0.1647
25319W        W40788   7.284  16.846   0.127 -0.0738 -0.0113  0.1371
25320W        W40789   1.170  10.682   0.636 -0.1379  0.0099 -0.2649
25321W        W40790  16.547   3.106  13.277 -0.1050  0.1940 -0.0334
25322W        W40791   1.537  14.404   2.641 -0.2154  0.0333  0.3409
25323W        W40792  17.875   6.819   2.309 -0.0751 -0.0646 -0.1730
25324W        W40793  15.845  11.760  14.623  0.2003 -0.1921  0.2059
25325W        W40794   0.650   0.594   4.327 -0.1035  0.1450  0.1098
25326W        W40795  14.761   7.697  14.614  0.0033 -0.3789  0.0903
25327W        W40796  13.310  10.920   0.756  0.0108  0.2131  0.2259
25328W        W40797  16.162   8.823  10.357 -0.1523 -0.1863  0.0082
25329W        W40798   0.875   9.075  14.015  0.0132  0.0150 -0.0242
25330W        W40799  13.847   0.443   2.276  0.0054  0.2138 -0.0974
25331W        W40800   5.751  17.274  15.835  0.3303 -0.1675 -0.1513
25332W        W40801  15.614   8.235  12.154 -0.0322 -0.2479  0.0227
25333W        W40802   4.146   0.538  11.397 -0.0575 -0.5177 -0.1601
25334W        W40803   3.385  17.161   6.224 -0.1231  0.0718  0.1492
25335W        W40804  16.318   1.076   4.724 -0.0164 -0.1872  0.0535
25336W        W40805   5.739   4.192   4.722  0.1093 -0.2502 -0.1642
25337W        W40806   8.202   0.454  11.338  0.1394 -0.0049 -0.0421
25338W        W40807  13.710  10.188   3.595 -0.0975  0.0735  0.0232
25339W        W40808   9.524   1.264  13.529  0.0224  0.0274  0.1027
25340W        W40809  17.225   5.108  14.384  0.0386  0.2010  0.2169
25341W        W40810  15.474   3.349  15.228  0.3365 -0.2691 -0.1508
25342W        W40811   4.056   0.302   3.663  0.0163 -0.5429 -0.0913
25343W        W40812   4.418  13.016   1.564  0.2175 -0.2217 -0.0486
25344W        W40813  16.139   9.310  15.408  0.3795  0.1425  0.0207
25345W        W40814   9.139  11.840  12.981 -0.0797  0.0783 -0.0617
25346W        W40815  13.281   3.092  13.175 -0.0447  0.2243 -0.2311
25347W        W40816   2.550   3.174  15.909  0.1922 -0.2655 -0.2079
25348W        W40817   2.677   0.624   2.139 -0.2326  0.3627 -0.1156
25349W        W40818  14.278   5.062   4.416 -0.3807 -0.1358 -0.4024
25350W        W40819   9.264   1.756   3.190  0.0348  0.2579 -0.1937
25351W        W40820   3.359   4.222   4.202  0.1897  0.0394 -0.0621
25352W        W40821  16.526   5.442  11.638 -0.2930  0.0428  0.4103
25353W        W40822   1.280   2.501   5.001 -0.2743 -0.2838  0.0029
25354W        W40823   7.242  13.849   0.861  0.0652  0.0090  0.1837
25355W        W40824   6.209   0.335  15.335 -0.1529  0.1598 -0.1344
25356W        W40825  11.364  16.990   2.487 -0.0987 -0.2358  0.1224
25357W        W40826   7.892   8.211   1.200  0.0089  0.1708 -0.1010
25358W        W40827   4.722  17.782  12.835  0.1490 -0.1939  0.1502
25359W        W40828  13.509   0.619  10.685 -0.1038  0.0032  0.0092
25360W        W40829  11.614   2.410   3.196 -0.1367  0.3712 -0.1551
25361W        W40830   5.404   4.842   3.474 -0.0829 -0.1236  0.1946
25362W        W40831   3.554  15.546  13.469 -0.0963 -0.3232 -0.1125
25363W        W40832  13.457   9.859   1.307 -0.0671 -0.0407 -0.4936
25364W        W40833   0.115  13.456   0.432 -0.3407 -0.1123  0.0067
25365W        W40834   2.374   8.634  12.014  0.0700  0.0284 -0.4493
25366W        W40835  16.295   2.611   0.397 -0.1125 -0.0637  0.2340
25367W        W40836   8.377  14.336  10.504  0.0622  0.0766 -0.0520
25368W        W40837   3.272   3.705   1.774 -0.2244  0.2497  0.0025
25369W        W40838  12.465   6.025  12.208  0.3150 -0.1116 -0.2885
25370W        W40839  17.350   1.518  15.318  0.0206 -0.0220  0.0871
25371W        W40840   4.719  16.440   1.954  0.0510  0.0933  0.2957
25372W        W40841   1.082  13.736   1.436 -0.4018 -0.0008 -0.1054
25373W        W40842  11.322  11.820   5.610 -0.3550  0.0387  0.1651
25374W        W40843   3.559   6.352   0.355  0.0325 -0.3138  0.0512
25375W        W40844   8.404  16.605   6.347 -0.1187  0.0519  0.1216
25376W        W40845  16.365  14.167  14.594  0.1165 -0.0915  0.2101
25377W        W40846   7.064   5.375  15.343  0.3276 -0.3503 -0.0437
25378W        W40847  15.596   2.328   1.079  0.0108 -0.1587 -0.0362
25379W        W40848  15.399   2.423   3.230 -0.0811  0.0312 -0.2414
25380W        W40849  14.001  16.958   5.843 -0.0880 -0.0382 -0.0852
25381W        W40850  18.024  15.687  14.954  0.2985 -0.0464 -0.2062
25382W        W40851  15.029  13.103  13.299  0.1637 -0.0386 -0.1165
25383W        W40852   0.882   0.323  13.369 -0.0760 -0.0047 -0.1964
25384W        W40853  11.650   9.314   2.641 -0.1742  0.2043  0.0051
25385W        W40854   1.958  14.836   1.220 -0.0662  0.1725 -0.2019
25386W        W40855   2.248  17.414   2.303  0.0816  0.0348  0.2590
25387W        W40856  11.774   7.879   3.012  0.3982 -0.4913 -0.2702
25388W        W40857  12.137   4.203   2.579 -0.0050  0.1563 -0.0834
25389W        W40858   2.484   4.180   3.407 -0.1558  0.0460 -0.0745
25390W        W40859  10.312   3.556  10.984  0.3608  0.0696 -0.1115
25391W        W40860   1.148  10.902  11.376 -0.1783  0.2323  0.0470
25392W        W40861   7.891   3.562  11.355  0.1187  0.2337 -0.0242
25393W        W40862  14.075  10.636   1.617 -0.1608  0.2614  0.1529
25394W        W40863   1.275  11.939  15.469 -0.0966 -0.1783 -0.5506
25395W        W40864  16.581  11.234  13.312  0.2047 -0.0925  0.1008
25396W        W40865  13.888  10.493   2.815  0.1252  0.4150  0.1288
25397W        W40866   8.995  16.594   3.056  0.1559  0.0967 -0.1145
25398W        W40867   3.986  13.006   0.790  0.2094 -0.1098  0.0190
25399W        W40868  10.674   3.287   3.002 -0.2172 -0.1271  0.0550
25400W        W40869  11.852   4.732   1.370  0.1318 -0.1478  0.0074
25401W        W40870   5.389  16.523  13.872 -0.2931 -0.0639 -0.2607
25402W        W40871   3.046   5.442  14.860 -0.1722  0.0661 -0.1976
25403W        W40872  17.860  14.144   0.258  0.0365 -0.2579 -0.2307
25404W        W40873  12.325   7.994  13.197 -0.0829  0.0655 -0.0478
25405W        W40874   8.429   2.458  15.206  0.1900  0.1419 -0.1902
25406W        W40875  13.897  16.005  12.224 -0.0055  0.0813 -0.0212
25407W        W40876  10.618  10.291   3.068 -0.1475  0.2577 -0.1802
25408W        W40877  11.771   5.769  14.461  0.0514 -0.0783 -0.1882
25409W        W40878  15.688   1.384   4.074 -0.4511  0.1008  0.2815
25410W        W40879   9.457  15.332   1.353  0.0127 -0.1870  0.0947
25411W        W40880   4.896  17.697   0.217 -0.1106  0.0389 -0.3920
25412W        W40881  12.590  10.276   5.447  0.1048 -0.3014 -0.1309
25413W        W40882  10.245   3.800  13.474 -0.0178  0.1217  0.0309
25414W        W40883   0.180   8.864   4.219 -0.0404  0.2449 -0.1223
25415W        W40884   5.287  14.427  10.457 -0.0910  0.0142  0.2133
25416W        W40885   0.372  13.566  11.609  0.0675 -0.1569 -0.1242
25417W        W40886   4.607   2.320  11.298 -0.1337 -0.0425  0.0369
25418W        W40887   2.178   9.877   1.311  0.2063  0.4166  0.0299
25419W        W40888  10.163   7.939   0.718  0.0660 -0.0203  0.0613
25420W        W40889  13.103   1.396  12.269 -0.3841 -0.1651  0.2765
25421W        W40890   0.348   4.017  15.552 -0.0784 -0.0225 -0.0140
25422W        W40891  16.446  12.592  12.426  0.1323  0.1110 -0.0362
25423W        W40892   2.789   6.853   3.855  0.0128 -0.3559 -0.0451
25424W        W40893  12.688  12.785   3.364 -0.2912  0.1387  0.0220
25425W        W40894   9.763   6.793   2.152 -0.0005  0.0686 -0.1450
25426W        W40895   3.110   5.620   3.819  0.0862 -0.2775 -0.2449
25427W        W40896  11.879  15.460  15.669  0.1816  0.2510 -0.0079
25428W        W40897   5.306   2.641  12.605  0.1771  0.1653  0.0673
25429W        W40898  14.556  11.848  15.758  0.2675 -0.0914 -0.1202
25430W        W40899   2.828  16.422   5.114 -0.0264 -0.0411  0.2135
25431W        W40900  11.367   6.498  14.804  0.0496  0.5802 -0.0647
25432W        W40901   8.438   5.646  12.615 -0.0430 -0.0258  0.1583
25433W        W40902   1.441   7.767  10.871  0.0450 -0.1522  0.1204
25434W        W40903  11.283  11.969   2.128  0.0781 -0.1846 -0.1984
25435W        W40904   7.367   2.149  14.033 -0.0427 -0.1541 -0.2773
25436W        W40905   4.633  11.795   3.048  0.1733  0.2348 -0.1302
25437W        W40906   0.690   1.621  10.354  0.1202  0.0056 -0.0885
25438W        W40907   9.996  10.434   1.038 -0.1402  0.0961  0.0086
25439W        W40908   9.361  10.249  11.225  0.1730 -0.2461 -0.1877
25440W        W40909  18.362   2.737   2.047  0.1264  0.0866 -0.2546
25441W        W40910  12.318   1.092   3.013 -0.1891  0.4762 -0.0356
25442W        W40911   7.029   4.401   0.061 -0.1359 -0.0229  0.0178
25443W        W40912  17.215   9.160   3.934  0.1374  0.1568 -0.1364
25444W        W40913  15.330  16.648   1.798  0.1299 -0.0063 -0.2696
25445W        W40914  12.989  13.380   4.204  0.1119  0.1299  0.2334
25446W        W40915   8.899  12.594  15.069  0.0715 -0.0159  0.2616
25447W        W40916  16.070  16.575   4.087  0.3162 -0.2736  0.2724
25448W        W40917  15.314   2.024  13.242  0.0472 -0.0004 -0.0932
25449W        W40918  18.241  10.366  14.599  0.1217 -0.1198  0.0032
25450W        W40919  17.856   3.375   0.279 -0.1908  0.1208  0.1357
25451W        W40920   5.801  10.630   5.170  0.3264  0.0427 -0.3357
25452W        W40921   4.072  17.645  12.648 -0.0327 -0.1644  0.0122
25453W        W40922  11.605   2.410  12.617  0.1549  0.0768  0.0009
25454W        W40923   3.311   8.906  12.041 -0.1839  0.1443 -0.2086
25455W        W40924  17.855   0.912   0.404 -0.3052  0.0250 -0.2097
25456W        W40925   2.006   6.805  14.243  0.0113  0.0291  0.0539
25457W        W40926  13.862  13.520  10.681  0.1500  0.3104  0.0142
25458W        W40927  11.721   2.714  13.033  0.2509  0.0581  0.0403
25459W        W40928  15.000  14.272   0.101 -0.2316 -0.0581 -0.0735
25460W        W40929  15.491   1.254   2.728  0.3820 -0.1110 -0.3392
25461W        W40930   4.767  12.412   5.252  0.1095 -0.3135 -0.2322
25462W        W40931  11.632   5.846   3.100 -0.1174 -0.1399 -0.0700
25463W        W40932   7.525   5.633  14.003 -0.1422 -0.2838  0.2120
25464W        W40933  13.037   3.991  11.481 -0.0760  0.0934 -0.0008
25465W        W40934   7.238   9.624  12.855 -0.1590  0.2743  0.0448
25466W        W40935   7.208   1.805  12.344  0.1607 -0.3387 -0.0191
25467W        W40936  11.603  15.623  14.877  0.1139 -0.2785  0.0159
25468W        W40937  11.240   0.505  13.907 -0.1812 -0.0105 -0.2791
25469W        W40938   2.613  14.484  14.585 -0.1149  0.1827  0.0460
25470W        W40939   2.953   2.545   2.081 -0.3997  0.2412 -0.2095
25471W        W40940   4.636   2.801  12.571 -0.1074 -0.0457  0.0669
25472W        W40941   9.941  12.263  12.059  0.1556 -0.0525 -0.0174
25473W        W40942   5.702   8.706   1.209  0.3331  0.3110  0.1507
25474W        W40943   8.585  12.436  10.061 -0.0221  0.0642 -0.2202
25475W        W40944   0.914   9.537  11.162 -0.3628  0.0092  0.3145
25476W        W40945  10.711   4.653  13.335 -0.1518 -0.1699 -0.1377
25477W        W40946   9.610  16.100  15.220 -0.2353  0.0031  0.1027
25478W        W40947  16.995  11.104   4.809  0.3235  0.0998 -0.0144
25479W        W40948  13.416  16.395  14.184  0.2431 -0.1880  0.1649
25480W        W40949  17.646  14.806   1.879  0.0490 -0.0333  0.0853
25481W        W40950   7.888  13.074  12.030  0.1176  0.0598  0.1300
25482W        W40951   2.252   5.209  10.178 -0.0607  0.0200 -0.0745
25483W        W40952  15.633  15.725  14.545  0.1618  0.0465  0.0007
25484W        W40953   7.313   3.455  12.749  0.0361  0.3620 -0.2916
25485W        W40954  11.818  17.361  14.938  0.2953  0.0253 -0.1744
25486W        W40955  12.166  16.611  13.483  0.1280  0.4530 -0.0510
25487W        W40956  17.543   5.522  12.059 -0.2576  0.1909  0.0626
25488W        W40957  10.883   1.858   2.193  0.2360  0.1505  0.1205
25489W        W40958  18.101   9.979   2.756 -0.1274  0.0595  0.1435
25490W        W40959   8.912   4.821  11.895  0.1433 -0.1346  0.1380
25491W        W40960  16.475  13.129  10.933  0.2932 -0.1201  0.0557
25492W        W40961   2.552   0.946  11.376 -0.0710  0.0404  0.0487
25493W        W40962  17.490   4.867   5.140  0.0224  0.0350  0.1554
25494W        W40963   1.685  17.217   2.233  0.2340 -0.1550  0.0671
25495W        W40964   7.936   4.243  12.523  0.0198 -0.0759  0.0059
25496W        W40965  11.418  11.304   4.751 -0.1017  0.0221  0.0866
25497W        W40966   0.850  12.037  14.608  0.0376 -0.0101 -0.0305
25498W        W40967  16.836   8.717   1.232  0.0073  0.4088  0.0177
25499W        W40968   5.703   9.123   0.033  0.0451 -0.0770 -0.1298
25500W        W40969  11.193  13.180   3.286  0.1543 -0.2776  0.0132
25501W        W40970  14.369   4.605   2.935  0.2399 -0.2146 -0.0391
25502W        W40971  13.253  17.158   2.480  0.2746  0.1576  0.1077
25503W        W40972   3.640   7.443  12.500 -0.0937  0.0319 -0.2185
25504W        W40973   2.697  15.069  12.956 -0.0293 -0.0135 -0.1014
25505W        W40974  11.137   3.208  11.544 -0.1445  0.0096 -0.0264
25506W        W40975   2.243   8.158   4.241  0.3097 -0.1154 -0.1692
25507W        W40976   4.402   1.158  14.301 -0.3277 -0.1884  0.2161
25508W        W40977   5.559  11.164   1.317 -0.3313  0.3204  0.1620
25509W        W40978   8.183   4.967  15.534  0.1609  0.2355 -0.3368
25510W        W40979   0.631   3.026  15.681 -0.2885  0.0622 -0.0695
25511W        W40980  17.626   3.978   4.172  0.2635 -0.1738  0.4229
25512W        W40981  14.622  11.637   3.137  0.2174  0.2381 -0.3018
25513W        W40982   7.415   1.021  14.816  0.1319 -0.0039 -0.0429
25514W        W40983  15.894   9.830  12.198  0.0818  0.0912  0.2659
25515W        W40984  17.098   4.575   4.888  0.0040 -0.0585 -0.3190
25516W        W40985  16.401   9.789  15.673  0.1934 -0.1915  0.0300
25517W        W40986  16.205   7.291   3.771  0.1380  0.2855  0.4500
25518W        W40987  11.296   4.456  15.182  0.0452  0.0393 -0.2931
25519W        W40988  12.774   0.471  12.844  0.0950 -0.0079  0.0565
25520W        W40989   3.253  17.988  11.769 -0.0859  0.2168 -0.0565
25521W        W40990   8.822  13.047   2.265  0.0848  0.0990 -0.1434
25522W        W40991   8.885   5.731   0.817  0.2622 -0.0781 -0.0662
25523W        W40992  12.328   7.589  12.224 -0.0676 -0.0502  0.0104
25524W        W40993  10.754  10.412  10.234 -0.1018  0.0171 -0.2765
25525W        W40994  10.284  17.327  12.258  0.0717  0.0742  0.2519
25526W        W40995   4.597   9.596   4.509 -0.0202  0.2637 -0.3050
25527W        W40996  12.273  13.172  11.022 -0.0902  0.1465 -0.3418
25528W        W40997   4.462   7.306  14.486 -0.0427 -0.1207 -0.2035
25529W        W40998  12.263   1.944   5.622  0.1547 -0.0960 -0.3110
25530W        W40999  15.480   2.007   0.619 -0.1390 -0.2600 -0.2122
25531W        W41000  12.726  13.206   2.504 -0.1272 -0.0742 -0.3749
25532W        W41001  10.303  17.367  10.964 -0.0010  0.0662  0.0260
25533W        W41002  10.834  17.835  13.743 -0.1158 -0.0102  0.2497
25534W        W41003  16.311   5.711  10.746 -0.0845  0.0589 -0.0683
25535W        W41004  12.533  12.366   1.628  0.0484  0.0979 -0.3350
25536W        W41005  14.591  16.387   3.959 -0.0658 -0.2185 -0.2212
25537W        W41006   6.677  11.475   1.528  0.1995 -0.0373  0.1485
25538W        W41007  17.557  13.921   5.349  0.1325 -0.0367 -0.1167
25539W        W41008  12.102   3.005  15.356 -0.0326  0.1653 -0.1129
25540W        W41009  15.346   0.495   3.336  0.0501 -0.0553 -0.1872
25541W        W41010  16.812  17.620   5.572 -0.0795  0.2119 -0.1129
25542W        W41011  12.287  11.779  13.087  0.1030  0.0751 -0.3154
25543W        W41012  18.210  13.831   6.148 -0.0741  0.0191 -0.1435
25544W        W41013  14.255   8.962   5.631  0.1771 -0.2834 -0.0071
25545W        W41014  13.450   5.337  10.364 -0.0851  0.0966 -0.1683
25546W        W41015  14.869   2.394  15.891 -0.6799 -0.0965 -0.1630
25547W        W41016   8.009   0.683   0.486 -0.1332 -0.0807  0.0332
25548W        W41017  10.658   7.365   1.943  0.1553 -0.0688  0.0080
25549W        W41018  16.631  13.065   0.811 -0.0663  0.1820 -0.4174
25550W        W41019  16.777   9.332  11.886 -0.0575 -0.3494 -0.2409
25551W        W41020  13.863  12.019   2.487  0.2002  0.2365 -0.0413
25552W        W41021   6.760   4.909   2.612  0.0082 -0.1417  0.1913
25553W        W41022   8.490   3.740  13.551  0.1216 -0.0247  0.2278
25554W        W41023   0.198   5.192  11.484  0.2276  0.1304 -0.1222
25555W        W41024   9.829   4.444   4.496  0.2924 -0.0753 -0.2330
25556W        W41025   9.532  16.154   3.882 -0.0697 -0.1140  0.0746
25557W        W41026   2.463   3.775  12.411  0.3387 -0.0659 -0.1260
25558W        W41027   7.142   0.391   3.711 -0.0612  0.0652 -0.0288
25559W        W41028  13.004   1.695  11.478 -0.0810  0.0357  0.0943
25560W        W41029   2.822   5.187  10.503 -0.1693  0.0655  0.0311
25561W        W41030   7.351  12.349  11.768  0.0019 -0.1263 -0.1522
25562W        W41031   4.957   6.100  14.726  0.4968 -0.1512 -0.0641
25563W        W41032  14.569  12.008  13.224  0.1284  0.1521  0.1986
25564W        W41033   0.596  14.724  15.612 -0.0667 -0.1369  0.0811
25565W        W41034  11.795   4.343   4.091  0.3835  0.0375 -0.0884
25566W        W41035  13.710  16.927   2.493 -0.7293  0.1274 -0.2710
25567W        W41036  14.928  18.464  15.783  0.3102  0.2336 -0.0833
25568W        W41037  15.552   7.402   1.842  0.1705 -0.3582 -0.0380
25569W        W41038  10.814  12.768   3.289 -0.0001  0.0691 -0.0403
25570W        W41039   3.764  17.835  13.063  0.0397  0.1868  0.0649
25571W        W41040   4.974  16.788  11.741 -0.0603 -0.2112  0.1067
25572W        W41041   4.422   0.051  12.842  0.1190 -0.0864  0.1509
25573W        W41042  14.003   0.128   3.625  0.2078 -0.3508 -0.1085
25574W        W41043  17.109   0.492  14.514  0.1307 -0.0898  0.1011
25575W        W41044   1.718  15.022  11.736 -0.0373 -0.3508 -0.2083
25576W        W41045  13.335  15.417   0.537 -0.4801  0.1226 -0.2023
25577W        W41046  15.322   5.753  13.523  0.0412 -0.1531  0.2127
25578W        W41047  12.352   4.823   3.683  0.1204  0.3171  0.0597
25579W        W41048  10.333   1.794  12.144 -0.4135 -0.1165 -0.2093
25580W        W41049  12.583   1.692   2.353 -0.1944  0.1467 -0.1798
25581W        W41050   9.737  14.803   2.840 -0.1486 -0.0021  0.2067
25582W        W41051  13.828  15.226  13.876 -0.4590 -0.0360 -0.0440
25583W        W41052   9.975   9.660  12.083 -0.1323  0.1678  0.1392
25584W        W41053  18.071   9.081  13.771  0.0816  0.3648 -0.2008
25585W        W41054  17.089   7.116  11.429 -0.0771 -0.2052  0.2914
25586W        W41055   4.539  17.355   1.877  0.1949 -0.0287  0.0416
25587W        W41056  14.897  17.240  11.536  0.0827  0.2278 -0.3218
25588W        W41057   3.918  10.345   4.218  0.1721  0.0295  0.0340
25589W        W41058  16.837   9.416  14.301 -0.0238  0.0816 -0.2779
25590W        W41059   6.222   5.049   3.173 -0.0118 -0.0727  0.0314
25591W        W41060   1.607   6.342   6.012  0.0225  0.1407  0.2760
25592W        W41061   5.641   0.444  13.852 -0.3019  0.0921  0.0300
25593W        W41062  14.707   7.303  12.548 -0.0434 -0.0861  0.2482
25594W        W41063  16.229  17.801   0.483 -0.0184 -0.1003  0.0944
25595W        W41064   8.833  12.666   0.499 -0.1824  0.3173 -0.0383
25596W        W41065  11.285   4.603   2.929  0.0153 -0.1345  0.0513
25597W        W41066  17.139  17.084   1.943 -0.3421 -0.0579  0.0201
25598W        W41067  15.173   5.932   3.228 -0.0345  0.1573 -0.1956
25599W        W41068   4.406  16.910   3.987  0.1365  0.0282  0.1053
25600W        W41069  16.499   3.329  15.539  0.3282  0.0375 -0.2079
25601W        W41070  14.075  15.200  12.834  0.0152  0.0092  0.0443
25602W        W41071   7.849  11.290   2.756  0.2270  0.1240  0.1566
25603W        W41072   9.965   1.467   5.202 -0.3112  0.2336 -0.1220
25604W        W41073  13.769  14.564   5.639 -0.2501  0.2113  0.2653
25605W        W41074   9.769  10.041  10.956 -0.1362 -0.0534  0.3226
25606W        W41075  14.752   7.936  10.752  0.0794 -0.2817  0.1160
25607W        W41076   2.805   9.541   4.053 -0.1279 -0.1878 -0.3537
25608W        W41077  11.427  13.179   1.890  0.0618 -0.3201  0.4253
25609W        W41078   5.837   7.473   4.277  0.0161  0.0204 -0.0707
25610W        W41079  17.193  15.433   3.569  0.0662 -0.3843  0.2365
25611W        W41080  12.432   2.273  13.431  0.1714 -0.2911 -0.0191
25612W        W41081   8.652  13.801  15.902  0.1490 -0.1615 -0.0624
25613W        W41082  12.331  13.767  10.418 -0.0941  0.1394 -0.0414
25614W        W41083  16.931   3.167  13.876 -0.1061 -0.0929 -0.3591
25615W        W41084   9.105   7.602   0.575 -0.1943  0.0169  0.1518
25616W        W41085   0.289   3.125   4.619 -0.3252 -0.1346  0.0240
25617W        W41086   9.005   7.892  13.296  0.0263 -0.1622  0.0019
25618W        W41087   0.559   6.817  12.620 -0.1744  0.2168  0.2192
25619W        W41088   9.677   5.398  12.605  0.0272  0.0953 -0.3494
25620W        W41089   5.565  14.922  13.161  0.0681  0.0002  0.0849
25621W        W41090  12.879   3.332   1.635 -0.0627  0.2020  0.0732
25622W        W41091   9.029   4.571   1.681  0.0292  0.0226  0.0417
25623W        W41092   7.254   4.352   0.484 -0.0726  0.0239  0.0624
25624W        W41093  13.511  13.029   0.849  0.1299  0.4968 -0.1336
25625W        W41094  12.408  13.158   0.466 -0.2077  0.1887 -0.1392
25626W        W41095  15.501  12.019   4.661 -0.0581 -0.3965  0.2508
25627W        W41096  10.043   1.216   0.460  0.0320  0.0495  0.0188
25628W        W41097   1.304  10.372  11.131 -0.0286 -0.0579 -0.1994
25629W        W41098  13.231   1.247   2.833 -0.1538  0.3213  0.1143
25630W        W41099   8.121   7.257   0.673 -0.1292  0.4432  0.1055
25631W        W41100  16.095   7.251  11.678  0.0271 -0.0776  0.1869
25632W        W41101   1.452  18.013   1.473  0.0798 -0.0445 -0.2445
25633W        W41102  11.632  16.621   5.583  0.2017 -0.3891 -0.1072
25634W        W41103  13.621  11.762  11.397  0.0945  0.3207 -0.3231
25635W        W41104  14.125  17.053  11.069  0.1584  0.0278  0.0995
25636W        W41105   1.915  10.334  12.590  0.2374  0.1421  0.0919
25637W        W41106  15.053   1.765   4.506  0.3123  0.0377 -0.0261
25638W        W41107  14.387   9.193  14.525  0.2497 -0.3420  0.1942
25639W        W41108   5.322  13.264  14.613  0.1940 -0.2516  0.0474
25640W        W41109   4.756   4.064  14.260  0.0787 -0.2173 -0.1243
25641W        W41110   5.220  18.204  13.380  0.2684  0.2257 -0.0216
25642W        W41111   6.951   9.957   3.378 -0.0123  0.0667 -0.2107
25643W        W41112  14.814  15.887   2.229  0.0414 -0.0141 -0.0861
25644W        W41113   8.994  13.529   3.939 -0.1906 -0.2152  0.2570
25645W        W41114   7.112  13.031   5.540  0.1460  0.0601  0.2473
25646W        W41115   8.197   1.293   5.205  0.1692 -0.0956  0.0980
25647W        W41116   1.302  15.774   4.531  0.1381  0.1434  0.2431
25648W        W41117  17.385  16.580   2.901 -0.3511  0.0158 -0.1551
25649W        W41118   6.284  18.069  13.051  0.1400  0.2479  0.0158
25650W        W41119  15.385  16.392  14.976  0.0300  0.4198 -0.2711
25651W        W41120   5.470   7.341  13.759  0.0895 -0.1139 -0.0856
25652W        W41121   5.395  10.202  10.852 -0.1843 -0.0801  0.1247
25653W        W41122   1.830  16.084  14.221 -0.0114 -0.0171 -0.0965
25654W        W41123   3.288   8.885  11.044  0.0635 -0.3868  0.1186
25655W        W41124   8.895  10.251  11.101  0.0694  0.0241 -0.1001
25656W        W41125  12.256  11.080  11.030  0.0740  0.0248  0.1331
25657W        W41126   4.260  10.001   1.973 -0.1690  0.1353 -0.0233
25658W        W41127  12.694  15.463   2.072 -0.1044  0.0815  0.4374
25659W        W41128  11.895  12.499   3.695 -0.0802 -0.3657 -0.0858
25660W        W41129  10.496   8.406   3.452 -0.3416 -0.0711 -0.3212
25661W        W41130   3.526  16.396  10.700 -0.2768  0.0011 -0.2876
25662W        W41131  15.299   3.237  10.565 -0.1354 -0.3429  0.0066
25663W        W41132  17.382   0.798   4.512 -0.2029 -0.1323 -0.0935
25664W        W41133  17.012  12.368   2.484 -0.2283  0.1395 -0.0556
25665W        W41134   1.129   6.303   4.278 -0.5210 -0.3406 -0.3018
25666W        W41135   9.641  15.703  14.935 -0.2374  0.0314 -0.3789
25667W        W41136  15.406   1.467  10.718  0.1267 -0.2349  0.1331
25668W        W41137  11.726  15.141   0.099  0.1932  0.0896  0.1093
25669W        W41138  15.096   5.071   3.954  0.0632 -0.0768  0.0611
25670W        W41139  14.753   2.351  13.666 -0.1696 -0.1039  0.0559
25671W        W41140   8.567   7.328   5.596 -0.0021  0.1924 -0.0236
25672W        W41141   7.057   4.558  11.210 -0.4219  0.0146  0.1597
25673W        W41142  13.539   2.940  15.437  0.0766  0.3691 -0.3670
25674W        W41143  13.843   5.884   5.404 -0.0744 -0.1115 -0.3114
25675W        W41144  16.138   8.638  13.643  0.1251  0.1756  0.1887
25676W        W41145  17.390  10.330  10.767 -0.1993  0.1491 -0.1865
25677W        W41146  10.937  17.992  14.995  0.1762  0.3118 -0.0019
25678W        W41147  10.258   7.029  15.415  0.0576  0.2413 -0.0514
25679W        W41148   9.386   0.050   1.252 -0.2251 -0.1433 -0.0751
25680W        W41149   5.405  10.259   2.128  0.1423  0.1917 -0.3542
25681W        W41150   5.126   6.568  14.349  0.1992  0.0801  0.3793
25682W        W41151   9.508  14.123   4.431  0.0284 -0.1944 -0.1071
25683W        W41152  13.801  17.848   1.634 -0.2451  0.2204  0.0460
25684W        W41153  10.223   3.900  11.925 -0.0945 -0.2409  0.0831
25685W        W41154   9.106  17.460  11.621  0.0455  0.0334  0.1144
25686W        W41155   4.799   8.995   3.179  0.1835 -0.0246 -0.2716
25687W        W41156   4.279   7.101   3.621  0.3185 -0.1390  0.0414
25688W        W41157  14.083   4.560  13.614 -0.0915 -0.1351  0.0103
25689W        W41158  12.561  14.429  14.721 -0.4190  0.1846  0.0142
25690W        W41159  17.774  10.915   4.221 -0.0178 -0.2761  0.0889
25691W        W41160  12.968   7.591  13.720  0.3177 -0.0342  0.0112
25692W        W41161   7.990  18.147  13.818  0.1440 -0.0833  0.0183
25693W        W41162   1.644   5.107   3.350  0.0920 -0.0413 -0.1394
25694W        W41163   4.178   0.721   3.957  0.0690  0.3526  0.2299
25695W        W41164  13.261  10.831   4.270 -0.0808 -0.3050  0.3134
25696W        W41165  10.801  16.410   1.399  0.0022  0.2826  0.0989
25697W        W41166   4.789  11.082   1.936  0.1589 -0.0811  0.1199
25698W        W41167   7.144   3.535   0.502 -0.0860 -0.0100  0.5579
25699W        W41168  16.080  11.586   6.042  0.2023  0.4210  0.0577
25700W        W41169   3.563   9.447   0.982 -0.1879  0.0520  0.0396
25701W        W41170   9.099   2.162  12.294  0.2585 -0.1672  0.0227
25702W        W41171  11.605  11.608  12.081  0.1127  0.1799  0.3436
25703W        W41172  16.392  14.171   3.214  0.0404  0.1450 -0.0975
25704W        W41173  17.066  15.499   5.938 -0.1778 -0.2754 -0.0807
25705W        W41174   5.703   8.752  15.077 -0.0780 -0.0521  0.0612
25706W        W41175   2.018   6.445   2.778 -0.0934 -0.1127 -0.0800
25707W        W41176   0.398   4.062  13.800  0.1485 -0.1095 -0.0795
25708W        W41177  12.936   1.206  11.247 -0.0580 -0.1518 -0.3108
25709W        W41178   0.482  16.151  11.913  0.3396 -0.2314 -0.0941
25710W        W41179  12.372   1.218   0.227 -0.0658  0.1806 -0.3685
25711W        W41180   0.812   6.419   5.352 -0.1212 -0.2494 -0.0247
25712W        W41181   2.333   9.529  12.557 -0.1029 -0.1523 -0.1404
25713W        W41182   2.660   6.497   0.894  0.2255  0.6675 -0.1020
25714W        W41183   0.823   4.101  10.600 -0.0365  0.1600  0.1269
25715W        W41184  13.339   1.519   1.189 -0.3622 -0.2820  0.0840
25716W        W41185  13.852  17.603  11.829  0.1070  0.0020 -0.1083
25717W        W41186   3.052  17.003   4.456  0.0148  0.4575  0.0198
25718W        W41187   9.942   4.244   3.733 -0.1632 -0.0490  0.1224
25719W        W41188   6.302  11.963  10.361  0.1979 -0.1765  0.0382
25720W        W41189  10.931   6.916  11.875 -0.1769  0.0611  0.1210
25721W        W41190  15.218  13.324   1.215  0.2507  0.0845  0.1305
25722W        W41191   1.664   7.383  15.049  0.1246  0.3314 -0.0740
25723W        W41192   2.160   1.931   5.350  0.1076 -0.0058  0.0109
25724W        W41193   5.063   3.315   2.825  0.1103 -0.2599  0.2760
25725W        W41194   2.539   1.258  11.871  0.0506  0.0313  0.0368
25726W        W41195  15.107   6.827   1.302 -0.2258  0.0209  0.2002
25727W        W41196  17.822   2.468   1.178 -0.4744  0.2316 -0.1171
25728W        W41197   3.671   9.708  11.597 -0.2089  0.0791 -0.2100
25729W        W41198  10.485   9.231  13.469  0.4648  0.2243  0.1057
25730W        W41199   9.732   4.519   0.561  0.0006  0.0919 -0.2040
25731W        W41200  10.932  11.239   3.258 -0.1460  0.3094 -0.0109
25732W        W41201  17.907   3.734  11.513 -0.1646 -0.3149  0.1814
25733W        W41202  13.502   3.742   4.339  0.1897  0.1862 -0.1371
25734W        W41203   5.828   0.308   2.605  0.0556  0.1792 -0.2601
25735W        W41204  17.506   3.613  13.397 -0.2568 -0.0896  0.2568
25736W        W41205   1.444  13.800   2.801  0.1733 -0.2005 -0.0726
25737W        W41206   3.846  12.358   4.880 -0.1662 -0.0779  0.1025
25738W        W41207   1.807  15.677  13.316 -0.0502  0.0696 -0.0536
25739W        W41208  10.308   2.197   1.677 -0.1407  0.0749  0.1368
25740W        W41209   4.093  16.542  14.776  0.0525  0.0505 -0.3287
25741W        W41210  18.327   6.292   0.751 -0.1824 -0.1825  0.0589
25742W        W41211   3.453   1.163   0.909  0.0623  0.0255  0.3494
25743W        W41212  17.054   1.635  14.007  0.0299  0.1834  0.2129
25744W        W41213   0.297  14.022   5.185 -0.1594  0.2384  0.1235
25745W        W41214   3.847   2.627  15.808  0.0155  0.2185 -0.1495
25746W        W41215  14.677  15.200   4.982 -0.0848 -0.2550 -0.0018
25747W        W41216  12.295  17.173  14.221  0.1441 -0.0802  0.2513
25748W        W41217  11.717  15.552  12.467 -0.1911  0.1699 -0.0591
25749W        W41218  11.643  16.328  15.683 -0.3375 -0.2715  0.0475
25750W        W41219  10.656   7.056  13.793  0.0696 -0.0647 -0.0041
25751W        W41220  12.792  10.803   1.720  0.0097 -0.1900  0.3741
25752W        W41221  17.831   2.059   0.839 -0.2589  0.1609 -0.2531
25753W        W41222   8.050  17.149  13.948 -0.0486  0.2795  0.3108
25754W        W41223  17.852  14.201   5.045 -0.0786 -0.1434  0.0997
25755W        W41224   5.734  11.105  12.390 -0.0865  0.3700 -0.0822
25756W        W41225   1.266  11.547  10.562  0.2697  0.0376 -0.2019
25757W        W41226   2.200  13.590   5.418  0.1890 -0.1797  0.1012
25758W        W41227   1.763  14.833   2.729 -0.2159 -0.1090 -0.1579
25759W        W41228   4.711   4.191   2.663  0.0008 -0.1683  0.3437
25760W        W41229  11.220  12.702   2.964 -0.1935 -0.0157 -0.2160
25761W        W41230   6.607   5.235   3.573 -0.1424  0.2433  0.0275
25762W        W41231  15.084  16.116   0.628 -0.2292  0.1602  0.0180
25763W        W41232  11.892  12.281  12.727 -0.2032  0.4344  0.1645
25764W        W41233  12.770  11.737  13.320  0.1446 -0.0767 -0.2449
25765W        W41234   1.938   5.994   4.342  0.0701  0.2029 -0.0909
25766W        W41235   0.727  15.798  11.550 -0.1674  0.1184  0.0354
25767W        W41236   5.551   9.031   0.487  0.0013 -0.0730 -0.0665
25768W        W41237  10.244  11.998   4.633 -0.1764  0.1547 -0.0117
25769W        W41238   6.424  13.647  10.774 -0.3018  0.2255  0.0334
25770W        W41239   8.554  17.510  14.589  0.2446  0.1853 -0.0128
25771W        W41240   1.175   7.815   0.427 -0.1515  0.0877 -0.0299
25772W        W41241  11.561  13.532  14.985  0.0587 -0.0844  0.1269
25773W        W41242  12.415   5.466   2.462 -0.1719 -0.2745  0.1415
25774W        W41243   8.092   9.065   2.250 -0.0747 -0.0459  0.1733
25775W        W41244   8.013  12.173   1.271 -0.1583 -0.0538 -0.1120
25776W        W41245   9.289   4.069  15.657  0.1166 -0.2290  0.0893
25777W        W41246   3.218   2.356  12.591  0.4518  0.2110  0.1035
25778W        W41247  12.112   8.238  12.272 -0.1206 -0.0705  0.1183
25779W        W41248   6.269   9.122   2.597 -0.0253 -0.0658 -0.2650
25780W        W41249   7.650  12.659  14.337 -0.0178  0.0479  0.2479
25781W        W41250  16.142   1.349   0.912  0.1654  0.2273 -0.1409
25782W        W41251   6.949  12.052  11.686 -0.1760  0.1186  0.1023
25783W        W41252   0.857   4.241  13.538  0.0224  0.0464 -0.1450
25784W        W41253  15.131  11.815   3.884  0.0670  0.1993  0.4376
25785W        W41254  16.075  14.577   3.432  0.0108 -0.1963 -0.4210
25786W        W41255  13.336   8.657   1.746  0.0928 -0.1577 -0.1261
25787W        W41256  12.135   1.202   1.306 -0.0434 -0.1192  0.1661
25788W        W41257  15.267   1.556  14.303 -0.0231  0.3320 -0.3224
25789W        W41258   2.934   0.662  13.118 -0.0224 -0.1606  0.2271
25790W        W41259  12.396  16.877   4.417  0.0028  0.0930  0.0678
25791W        W41260  17.134   1.186  11.744 -0.0081  0.2011 -0.2514
25792W        W41261   3.498   2.767  12.379 -0.1747  0.0772 -0.3495
25793W        W41262   9.356  11.015   4.754  0.0286 -0.2318 -0.2036
25794W        W41263  18.218  16.911  15.353  0.1740  0.2573  0.0257
25795W        W41264  11.735   4.292   3.546  0.0249  0.2509 -0.1041
25796W        W41265   3.420  15.675   4.370 -0.0797  0.6161 -0.1681
25797W        W41266  15.440   4.845   0.767 -0.1134  0.0459 -0.0013
25798W        W41267  14.399  13.658   1.230 -0.0444  0.1204  0.0138
25799W        W41268  11.584   0.287   5.708 -0.0457 -0.0215 -0.0143
25800W        W41269  16.556  16.926   1.266  0.0087  0.2305  0.0808
25801W        W41270   6.003  13.034   0.828 -0.1436 -0.0427  0.3387
25802W        W41271   0.523   1.988  15.181 -0.3578  0.0041  0.0074
25803W        W41272   7.154  13.726  13.685 -0.1407 -0.3772  0.0503
25804W        W41273   8.382  14.380  13.354  0.1944  0.1955 -0.0180
25805W        W41274   4.820   9.938   2.611 -0.2018  0.0269 -0.1753
25806W        W41275  15.182  10.290  14.190  0.1272  0.1112  0.1415
25807W        W41276   3.703  13.882  12.921  0.0961  0.1718 -0.2640
25808W        W41277   3.252  15.094   2.294  0.1013  0.1767  0.5064
25809W        W41278   2.408  11.943  14.803 -0.2775 -0.0473  0.2098
25810W        W41279  10.860   9.388  11.793 -0.1277  0.2032 -0.1338
25811W        W41280  12.383   4.997  13.168  0.3195  0.4463  0.1011
25812W        W41281  13.418  14.596   0.214 -0.0137  0.1806 -0.0488
25813W        W41282   7.095  15.661   0.938 -0.0880  0.0991 -0.1601
25814W        W41283  13.184  11.813  13.693  0.2581 -0.0951 -0.3493
25815W        W41284  10.372  11.760  15.406 -0.5617 -0.3941  0.2284
25816W        W41285  12.064  15.383   0.371  0.1553  0.0203  0.1450
25817W        W41286  17.430   3.315   4.495 -0.0047  0.0420  0.1756
25818W        W41287   2.526  16.144   4.772 -0.2673  0.0464 -0.2970
25819W        W41288   2.677   4.741   1.956 -0.4429 -0.1858  0.0364
25820W        W41289  18.379   8.367   1.327  0.4665  0.0854 -0.3800
25821W        W41290   8.715  10.845  12.509  0.2530  0.3483 -0.1118
25822W        W41291   2.983   4.230  13.765  0.3527  0.1223  0.0185
25823W        W41292  15.045   6.709  12.201 -0.0205  0.0303 -0.0271
25824W        W41293   2.882   1.259  12.305  0.0569 -0.0755 -0.0112
25825W        W41294   7.570  10.274  15.205 -0.1589 -0.0236  0.1313
25826W        W41295   8.418  14.428   1.558 -0.0571  0.0421  0.1791
25827W        W41296   7.605   5.899  12.226 -0.0509 -0.1649 -0.1952
25828W        W41297  11.389  12.644   1.051  0.2478  0.0156  0.0663
25829W        W41298   6.116   6.694  12.536 -0.0444  0.0671  0.1572
25830W        W41299  18.162   1.828  15.430  0.1928 -0.0540 -0.1209
25831W        W41300   5.604   6.735  14.405 -0.4253 -0.2272  0.0252
25832W        W41301   5.017   9.365  11.222  0.1161  0.1280 -0.1639
25833W        W41302  12.638   4.857  10.760  0.2331  0.3544  0.0971
25834W        W41303  12.007   1.445  15.893  0.0374 -0.4479 -0.0412
25835W        W41304   4.327  11.648   2.639 -0.0117 -0.1661 -0.1550
25836W        W41305  14.246   9.159  10.582  0.0964  0.2266 -0.2486
25837W        W41306  12.429   3.137   1.024 -0.1250  0.1160  0.1035
25838W        W41307  17.824  17.249   5.198 -0.3293  0.1126 -0.0462
25839W        W41308   2.128   2.616   1.456 -0.3117 -0.0827 -0.1500
25840W        W41309  11.585  15.962   1.053  0.0742  0.1583 -0.1488
25841W        W41310   9.029  13.102   0.632  0.1235  0.1027 -0.1207
25842W        W41311   9.854  12.008   2.559  0.1100 -0.0115  0.0440
25843W        W41312   4.478   3.297  14.915 -0.3929  0.0618  0.0105
25844W        W41313   1.390   5.397   2.453  0.2851  0.1196 -0.1586
25845W        W41314   2.868  13.488  14.060 -0.0121 -0.0759 -0.2018
25846W        W41315   1.232   9.806   1.400 -0.0109 -0.1864  0.0341
25847W        W41316   9.312   0.728  15.100 -0.3078 -0.2989  0.3979
25848W        W41317  17.315   1.503   0.175 -0.1078 -0.0964  0.2263
25849W        W41318  18.310   6.464  12.369 -0.0367  0.0623  0.1703
25850W        W41319   7.570   2.764   0.627  0.2059  0.1884  0.0130
25851W        W41320   2.366  16.129  11.433 -0.2312  0.0981 -0.1863
25852W        W41321   1.679  15.071   1.787 -0.0481 -0.0500 -0.0428
25853W        W41322   7.202  17.663   2.316  0.0953  0.0778  0.0242
25854W        W41323  12.743   3.567  10.327 -0.1488 -0.0767  0.0521
25855W        W41324   2.056   0.936   3.166 -0.1141  0.2525 -0.0920
25856W        W41325  17.224   3.013  10.772  0.3596  0.0685 -0.1094
25857W        W41326  11.929   4.590  11.941 -0.1239  0.4527 -0.0611
25858W        W41327   7.193   6.390   2.600  0.1029  0.1527 -0.2718
25859W        W41328   7.740   8.951  15.849 -0.0128  0.0030 -0.0892
25860W        W41329   3.477  15.719   1.686  0.3434 -0.0328  0.0529
25861W        W41330  15.812   6.872   2.961  0.0706 -0.0837 -0.0394
25862W        W41331  11.015   5.075  11.536 -0.1507 -0.1348  0.0138
25863W        W41332   2.193   0.252  14.318  0.1186 -0.1853 -0.1743
25864W        W41333  16.133  13.276  11.767 -0.2645 -0.2182 -0.1441
25865W        W41334  13.051  11.363  13.015 -0.3059 -0.1713  0.1455
25866W        W41335   8.710  13.744  11.252  0.1183 -0.0383  0.5223
25867W        W41336   5.737   1.805   4.389 -0.2433  0.2279  0.1467
25868W        W41337  17.209   7.907  14.247  0.1544 -0.0129 -0.0775
25869W        W41338  13.949   8.133  14.286  0.0272 -0.0550 -0.2414
25870W        W41339  15.459   5.478   5.897 -0.1811 -0.0408 -0.0640
25871W        W41340  17.281  15.316   2.855  0.1590 -0.2669 -0.1637
25872W        W41341  10.068  14.588  13.383  0.0133 -0.2635 -0.0936
25873W        W41342   6.918   2.693   4.107  0.1185  0.1871  0.0360
25874W        W41343  12.885   9.730  10.313  0.2058  0.0213 -0.1751
25875W        W41344   9.187   8.171   3.042  0.1067  0.1695 -0.0653
25876W        W41345   0.604   7.241   2.404  0.2115 -0.2807 -0.2186
25877W        W41346  13.595   4.543   0.459  0.2632  0.0973  0.2995
25878W        W41347  17.268   2.953  12.158  0.0164  0.0613 -0.0299
25879W        W41348   5.368  16.191   3.097  0.1714 -0.1300 -0.1836
25880W        W41349   5.809   5.972   1.186  0.0253 -0.0199  0.1109
25881W        W41350   3.925  16.869   4.022  0.0194  0.0702  0.4160
25882W        W41351  16.016  17.185   2.810  0.0998 -0.3442  0.0261
25883W        W41352  11.883  10.095  14.874 -0.1274 -0.2589  0.0003
25884W        W41353  14.607   2.046   1.500 -0.0877  0.1299 -0.0246
25885W        W41354  12.312   1.947  11.916  0.0974 -0.1519 -0.0071
25886W        W41355  11.095   0.589   4.386  0.1837  0.0030 -0.2996
25887W        W41356  12.247   1.087  12.432 -0.1551 -0.1702 -0.0632
25888W        W41357   7.838  16.387  11.388 -0.3737  0.1520  0.1149
25889W        W41358  17.179   4.062   0.457 -0.1540 -0.0587 -0.0865
25890W        W41359   2.686   9.165   1.674  0.1098 -0.0736  0.0659
25891W        W41360   0.422  14.386   1.886 -0.0070 -0.2347 -0.0570
25892W        W41361   9.812   7.183  11.181  0.2164  0.0527 -0.0406
25893W        W41362  16.351   4.579   3.957  0.1137  0.1085 -0.0619
25894W        W41363  10.013  12.789  14.613 -0.4832  0.0272  0.2841
25895W        W41364   8.010  14.959  14.656  0.0405  0.1269 -0.4553
25896W        W41365  10.097   8.340   0.375 -0.2928  0.1306  0.0513
25897W        W41366   6.193   4.555   4.427  0.0116 -0.1594  0.2900
25898W        W41367   6.660   7.331   4.576  0.2194  0.1447 -0.0988
25899W        W41368   1.829  18.097  15.446 -0.1977 -0.1025  0.0991
25900W        W41369   9.923  11.247  11.172  0.1326  0.0639 -0.1263
25901W        W41370   5.104  16.427   2.294  0.1069 -0.1624  0.0007
25902W        W41371   4.951  13.220   4.872  0.1008  0.1049 -0.2213
25903W        W41372   9.011   7.391   3.207  0.1766 -0.0779  0.1092
25904W        W41373  14.694  17.069  14.871  0.0738  0.1666 -0.3289
25905W        W41374  11.963  17.255   0.743  0.3085 -0.4470 -0.0537
25906W        W41375   9.936   5.666   5.487 -0.0307 -0.0287  0.1061
25907W        W41376  17.136   6.632  15.571  0.2922 -0.0575  0.1187
25908W        W41377   2.989   0.248   5.357 -0.1094 -0.2172 -0.1897
25909W        W41378   1.529   0.886   4.381  0.1240  0.0556 -0.0001
25910W        W41379   9.571   3.368  10.988 -0.0063  0.0962  0.0332
25911W        W41380  16.337  13.197   2.756 -0.1380  0.0980 -0.1803
25912W        W41381   0.512  12.151   5.294  0.0044 -0.2458  0.1089
25913W        W41382  10.078   7.486   0.859  0.1786  0.0367  0.0270
25914W        W41383   2.374  15.096  11.169  0.1896  0.1552 -0.3060
25915W        W41384   6.649   9.215   1.798 -0.0672  0.0872 -0.3909
25916W        W41385   0.401  15.612  14.397 -0.0569 -0.0027  0.1703
25917W        W41386   4.031   3.023   3.227  0.0703 -0.1532  0.0726
25918W        W41387   3.232   6.474   1.125  0.0052  0.0027 -0.0719
25919W        W41388   6.434  10.013   5.604  0.0116 -0.1006  0.2505
25920W        W41389  13.856   1.202   2.982  0.0334 -0.2570 -0.1991
25921W        W41390  15.065   8.987  10.776  0.0487  0.0511 -0.0170
25922W        W41391  11.923   6.768  15.372  0.0034  0.3182  0.2514
25923W        W41392   2.188  12.314   3.291 -0.5020  0.2787 -0.1381
25924W        W41393   5.020  12.871  12.292  0.0265  0.0439 -0.0979
25925W        W41394   9.246   8.643   3.585  0.1725  0.3103  0.0517
25926W        W41395  13.415   3.818   0.163  0.3069  0.1961  0.0991
25927W        W41396  15.623   0.012  14.430 -0.0725 -0.1255 -0.0952
25928W        W41397   9.332  11.337  10.276 -0.1321  0.2408  0.0713
25929W        W41398   4.285   3.878   2.695 -0.2251 -0.1812  0.0658
25930W        W41399   5.485   9.426  14.552 -0.3869 -0.2135  0.1306
25931W        W41400  13.561   0.544  12.250 -0.1072  0.3464  0.0232
25932W        W41401   4.230   0.133  12.329  0.3296 -0.3148  0.3783
25933W        W41402  14.958  10.364   1.647  0.1764  0.2094  0.1436
25934W        W41403  10.506  13.762   0.500 -0.2770 -0.0477 -0.0462
25935W        W41404  11.197   5.156   1.366 -0.0949  0.2240 -0.3072
25936W        W41405  18.454   7.601   3.665 -0.0701  0.1831  0.2170
25937W        W41406  12.868  11.944   2.344 -0.1201  0.0468  0.2372
25938W        W41407  11.361  14.352   4.186 -0.0641 -0.0757  0.1480
25939W        W41408   0.418   5.173   3.985 -0.1101  0.2190 -0.0627
25940W        W41409   7.377  11.115  15.127  0.0370  0.3001  0.0722
25941W        W41410  17.111  12.780  12.600  0.1138  0.1924  0.0510
25942W        W41411   3.623  16.875   2.716  0.0179  0.0632 -0.1997
25943W        W41412   8.515   4.938   4.546  0.4374 -0.2056 -0.2524
25944W        W41413   6.013  15.175   1.757 -0.0138 -0.0748  0.2636
25945W        W41414   1.131   0.753  15.716 -0.0907  0.2369  0.0954
25946W        W41415   9.479  17.780  11.374  0.0547 -0.0457 -0.0174
25947W        W41416   0.245   9.666  13.028 -0.0350 -0.1907  0.3254
25948W        W41417  12.383  15.541   4.717 -0.0410  0.0786 -0.0405
25949W        W41418  16.611   1.782  14.736 -0.0596 -0.2789  0.3656
25950W        W41419  14.588   4.350   4.212 -0.0573  0.2768  0.0300
25951W        W41420  14.127  17.843   5.250 -0.0949 -0.1602 -0.0617
25952W        W41421  10.717  11.098  15.385 -0.0127 -0.0315 -0.0289
25953W        W41422   4.399  10.200   2.396  0.2460 -0.2546  0.2448
25954W        W41423   4.451   9.318   2.837 -0.2316  0.0377 -0.0996
25955W        W41424  11.030  15.026   1.483  0.1260 -0.1260 -0.3152
25956W        W41425   2.141  15.248   1.766 -0.1770 -0.2379 -0.0250
25957W        W41426  11.168   2.357  11.129 -0.2983  0.0753  0.1390
25958W        W41427   9.605   5.947  13.741 -0.2619 -0.1064  0.1900
25959W        W41428  14.524   7.574   1.499 -0.0456  0.0487  0.1508
25960W        W41429   4.396   2.479  11.782  0.2869  0.2528  0.1722
25961W        W41430   3.930  13.350   2.711 -0.0791 -0.1071  0.0243
25962W        W41431  14.446  10.749   0.919 -0.3409 -0.2018 -0.1756
25963W        W41432   3.710   5.995   2.105 -0.1464  0.2248 -0.1361
25964W        W41433   1.149  16.215   0.175  0.3556  0.1240  0.1542
25965W        W41434   4.461  17.219  15.261  0.1273  0.0344 -0.2387
25966W        W41435   1.316   3.899   4.855  0.1797 -0.1032 -0.2003
25967W        W41436   0.258   5.130   5.882 -0.0858 -0.2369  0.1489
25968W        W41437  11.968   7.395  11.930  0.0510  0.2080  0.0820
25969W        W41438  15.033   0.740   4.622  0.2080 -0.0431 -0.1177
25970W        W41439  15.589  13.791  15.367 -0.2224 -0.1462 -0.2035
25971W        W41440   2.672   8.089  13.655 -0.1504 -0.1493 -0.2574
25972W        W41441  17.693   3.138  15.744 -0.1404  0.1477  0.0168
25973W        W41442   0.271  13.510  14.721 -0.1796 -0.0277 -0.0953
25974W        W41443  16.045  15.524   0.635 -0.0258  0.0816 -0.2299
25975W        W41444   6.019   8.231  13.869 -0.1034 -0.0323 -0.1250
25976W        W41445  10.903   1.448  13.680 -0.1671  0.0756 -0.0410
25977W        W41446  13.185   2.493   4.400  0.0494 -0.1250 -0.0299
25978W        W41447   1.214   7.854  14.556  0.1596 -0.0517  0.2831
25979W        W41448   6.484  12.329   4.936 -0.0305  0.1949 -0.0909
25980W        W41449  17.325   1.287   1.562 -0.2172  0.1373  0.0010
25981W        W41450  16.116   5.514  14.609 -0.2642 -0.2054 -0.4817
25982W        W41451  14.132   6.486  14.386 -0.1036  0.3416 -0.0113
25983W        W41452  16.984  10.514  11.254  0.0625  0.0372 -0.0169
25984W        W41453   3.371   4.744  14.197  0.2339  0.0468 -0.1586
25985W        W41454   7.937  13.549   3.728  0.0583  0.2225 -0.1292
25986W        W41455  15.198   0.095   2.148 -0.2431  0.1499 -0.2460
25987W        W41456  18.185  10.491  15.080 -0.1676 -0.1688 -0.2134
25988W        W41457  16.003   2.749   4.434  0.1367 -0.0919  0.0681
25989W        W41458   2.967   9.664   5.891 -0.1355  0.1158 -0.3577
25990W        W41459   3.999   9.403   1.282 -0.2011 -0.1785  0.1970
25991W        W41460   1.294  13.277  14.806 -0.0808  0.3770  0.1697
25992W        W41461   0.547   8.573  13.179  0.3500  0.0515 -0.0577
25993W        W41462  16.222   9.168   1.505 -0.2648 -0.0354  0.1619
25994W        W41463  16.706  11.756  11.517 -0.0530 -0.1054  0.1221
25995W        W41464   9.537   4.441   1.555  0.2064  0.2493  0.3619
25996W        W41465   2.381   4.772  13.823 -0.1713  0.6453  0.1955
25997W        W41466  11.597   0.901   1.064  0.1196  0.1474  0.0864
25998W        W41467   0.983  14.833  14.862 -0.4721 -0.0364  0.0922
25999W        W41468  10.234  10.244  10.941 -0.0031  0.0309 -0.1098
26000W        W41469  13.391   4.925   0.763 -0.1282 -0.1514 -0.0465
26001W        W41470   3.258   7.655   3.993  0.0842  0.3054  0.1933
26002W        W41471  10.196  10.498   0.535  0.1631 -0.0229 -0.0157
26003W        W41472  15.161   7.192  11.317  0.0524  0.1394  0.0669
26004W        W41473   0.073   4.004   4.900  0.0826  0.0139 -0.3298
26005W        W41474   4.586   0.980  11.819 -0.4589 -0.2163  0.0702
26006W        W41475   4.023   5.665  14.408 -0.1892 -0.2028 -0.0365
26007W        W41476  12.511  16.169  12.865 -0.2221  0.0058 -0.0284
26008W        W41477  12.759  10.816  10.857  0.0040  0.1770  0.1393
26009W        W41478   0.010  10.463   3.915 -0.0681 -0.3688 -0.0193
26010W        W41479  13.409   9.197   1.036 -0.0026  0.1015 -0.1080
26011W        W41480  11.267   6.831   3.364 -0.3663 -0.1136 -0.1715
26012W        W41481  10.884  17.434  15.274 -0.0859 -0.1379  0.0358
26013W        W41482   2.469   1.768   5.746 -0.2324 -0.0527  0.0031
26014W        W41483  10.954   6.987   0.941  0.0756 -0.3010 -0.0127
26015W        W41484   0.142  12.275   1.320 -0.2837  0.3395 -0.3544
26016W        W41485  17.352   6.472   1.055  0.0478 -0.1463  0.1781
26017W        W41486   8.756   4.118   5.536  0.3867  0.0426  0.1389
26018W        W41487   3.758   8.479   0.144 -0.2959  0.1120  0.3496
26019W        W41488   6.411  12.222   3.544  0.1699  0.2007  0.2785
26020W        W41489  16.025   9.616   0.033  0.2422 -0.2486 -0.0162
26021W        W41490   0.154  17.527  11.604  0.1496 -0.1035 -0.0419
26022W        W41491   8.284   2.873  13.277  0.2022  0.0472  0.2061
26023W        W41492   7.946  17.040   0.388  0.2611 -0.0974 -0.2044
26024W        W41493  16.470   3.832   0.419  0.3197 -0.0233  0.0551
26025W        W41494   5.821   7.337   0.912  0.0480  0.1772 -0.1157
26026W        W41495  17.591  14.798   1.048  0.0246 -0.0950 -0.1446
26027W        W41496   5.150   8.133   0.918 -0.1153 -0.0285 -0.3253
26028W        W41497  14.476  10.754   4.448 -0.1381  0.0169  0.1734
26029W        W41498  13.391  16.445   3.614  0.0721 -0.1892 -0.2038
26030W        W41499   9.809   0.641   4.960  0.1300  0.1396 -0.0327
26031W        W41500  13.164  13.827   0.377  0.0206 -0.1873 -0.1462
26032W        W41501  16.779   3.435   0.605 -0.2444  0.4283  0.1981
26033W        W41502  13.062   1.820  11.957  0.0218  0.0302 -0.1440
26034W        W41503   8.474   5.734   9.801 -0.0636 -0.3834  0.0778
26035W        W41504   1.615   2.960   4.762 -0.1327 -0.0749  0.0884
26036W        W41505  15.497  15.323   0.812 -0.0594 -0.0300  0.0636
26037W        W41506  16.257  17.858  10.425 -0.1407  0.0821  0.3068
26038W        W41507  16.108   5.830  13.048 -0.1161 -0.1839  0.0747
26039W        W41508  11.899   4.239  13.887  0.0878 -0.1081  0.1397
26040W        W41509  13.048  17.337   0.341 -0.1728 -0.1475  0.1801
26041W        W41510  11.454   9.213  14.473 -0.0170 -0.1253  0.1258
26042W        W41511   3.790  14.993  11.447 -0.1451  0.1888  0.0956
26043W        W41512  16.246   2.619  14.464 -0.0274 -0.2887  0.1613
26044W        W41513   3.428  13.034  14.826  0.1449 -0.4707 -0.1987
26045W        W41514  13.360   9.130  11.981 -0.1630 -0.2274 -0.0069
26046W        W41515  16.523   6.726   3.870 -0.0368  0.1752  0.1471
26047W        W41516   1.747   1.802  13.069 -0.1965  0.1399  0.0219
26048W        W41517  11.855  10.894   3.699  0.1010 -0.2061 -0.3864
26049W        W41518  18.478  14.223   6.331  0.1118 -0.2383  0.0290
26050W        W41519  15.755   7.872  11.039 -0.0695  0.0145  0.4856
26051W        W41520  11.476  10.755  15.502  0.0667 -0.1425 -0.3201
26052W        W41521   0.184   2.728   1.607  0.2762 -0.1032  0.1648
26053W        W41522   2.103   4.844   0.806  0.0556 -0.0327  0.1665
26054W        W41523   6.799  12.213   3.197  0.1371  0.3409  0.4554
26055W        W41524   3.112  12.160  15.580  0.2130  0.1403  0.0752
26056W        W41525   5.853  12.350   3.950  0.0129 -0.1837 -0.1146
26057W        W41526   9.494   6.559  13.133 -0.0860 -0.1836 -0.2175
26058W        W41527  10.407   6.071  15.352 -0.0802  0.0473  0.0725
26059W        W41528  14.521   0.692  12.244 -0.1039  0.1720 -0.3342
26060W        W41529  10.613  12.176  15.327  0.2277  0.0534 -0.1472
26061W        W41530   3.117  18.019   4.123  0.0914  0.0379  0.3264
26062W        W41531  10.840   1.772  12.173 -0.1988  0.0923 -0.2357
26063W        W41532   5.157   0.163   1.806  0.2968 -0.2194  0.2388
26064W        W41533   8.837  16.648   3.582  0.3533 -0.2486  0.0295
26065W        W41534   7.123  18.178  11.389 -0.1049  0.1015  0.0708
26066W        W41535   8.737  16.521  12.265 -0.3066 -0.1479  0.1021
26067W        W41536  10.395   4.246   0.588 -0.1803  0.0467  0.0174
26068W        W41537   6.301   8.256  14.323  0.3234  0.3491 -0.1465
26069W        W41538   0.689   2.012   4.957 -0.4252  0.0583  0.2509
26070W        W41539   8.075   4.886   3.302  0.2344  0.3130  0.0973
26071W        W41540   2.910   6.763   1.499 -0.2260  0.1384 -0.1667
26072W        W41541   6.599   2.325   0.459  0.0262  0.0789  0.0765
26073W        W41542  13.620  10.884  12.272  0.2355 -0.1557  0.0437
26074W        W41543  10.203   8.845   0.324 -0.0956 -0.0106  0.2041
26075W        W41544   2.524   6.881   1.204  0.0850 -0.1472 -0.3237
26076W        W41545   5.550  10.082   0.980 -0.2635  0.0328 -0.1067
26077W        W41546   3.886  12.658  14.148  0.3641  0.0429  0.0422
26078W        W41547  17.839   0.133   0.624  0.0793  0.3278  0.3556
26079W        W41548   1.065  15.549   4.187  0.0664  0.1311 -0.1783
26080W        W41549   9.408   4.060   0.672 -0.2244 -0.0297 -0.1187
26081W        W41550   0.538   0.849  11.929 -0.0963  0.1421 -0.1054
26082W        W41551   1.212  17.018   0.318  0.0074 -0.1642 -0.1211
26083W        W41552  10.685  12.357  15.862 -0.1228 -0.1514  0.0028
26084W        W41553   0.622   7.977  11.369  0.0027  0.0471 -0.0931
26085W        W41554   0.859   0.454   5.327 -0.0976 -0.0204 -0.0473
26086W        W41555   2.031  13.836  11.068  0.1637 -0.1109 -0.0139
26087W        W41556  15.416   8.005  15.089 -0.1404 -0.3832  0.0845
26088W        W41557  13.809   5.595  12.123 -0.1493  0.2751  0.2754
26089W        W41558  16.107   2.228   4.568 -0.0100  0.2919  0.2862
26090W        W41559  13.012   7.108   3.669 -0.0390 -0.1442  0.1682
26091W        W41560   6.515   1.132   5.348 -0.0449  0.0566 -0.1369
26092W        W41561   5.888  16.826   2.300 -0.0181  0.0473 -0.1300
26093W        W41562  12.264  17.717   5.244 -0.2081  0.3658 -0.3394
26094W        W41563  15.316  15.089  12.699  0.4051  0.0474  0.3670
26095W        W41564  17.929   6.179  11.413 -0.0641  0.1822  0.1217
26096W        W41565  14.340   6.950   1.137 -0.2334 -0.1351  0.0102
26097W        W41566   5.694   7.446  13.280 -0.1695  0.1305  0.3040
26098W        W41567   5.070  15.368  11.307 -0.1524  0.0872 -0.0034
26099W        W41568   2.995   8.864  14.281 -0.0431  0.0946 -0.1962
26100W        W41569  14.232   9.750   3.498  0.0241 -0.0353 -0.2092
26101W        W41570  16.027   2.370  12.204  0.0454 -0.1486 -0.0772
26102W        W41571   5.106  13.656   1.121 -0.0650 -0.3802 -0.3514
26103W        W41572  15.561  13.529  13.294 -0.0605 -0.2802 -0.1154
26104W        W41573  11.755   4.869  10.933  0.3194 -0.1997 -0.0158
26105W        W41574   9.845   7.770   1.227  0.2792 -0.1487 -0.2565
26106W        W41575   3.996  15.108   3.272  0.0613  0.0309 -0.2679
26107W        W41576   9.177   1.137   1.963 -0.0663 -0.0849  0.1754
26108W        W41577  13.492   7.545   4.456 -0.0797 -0.1678 -0.0022
26109W        W41578  11.637  14.513  14.678  0.0002 -0.0103  0.0813
26110W        W41579   3.583  17.520   5.431 -0.1207 -0.1362 -0.4627
26111W        W41580   6.239   2.262  11.270 -0.5374  0.1227  0.2413
26112W        W41581  16.589  12.672   2.500 -0.0763 -0.1230  0.1330
26113W        W41582   0.754  13.281  14.889 -0.0389 -0.0014  0.0765
26114W        W41583   7.175   7.850  15.181  0.1635 -0.2123 -0.4007
26115W        W41584  15.679   3.950  10.794  0.0277  0.1029  0.0359
26116W        W41585   9.772  11.784   4.440 -0.2121  0.0597  0.2813
26117W        W41586   6.139   1.749  11.352  0.2065 -0.2141 -0.0027
26118W        W41587  16.592   1.865  15.849 -0.3371 -0.2016  0.0783
26119W        W41588  18.221  18.086  14.825  0.0656  0.5037 -0.5116
26120W        W41589   1.577   7.752  11.355 -0.0434 -0.0687 -0.1943
26121W        W41590   2.816   8.830  12.249 -0.3315  0.2680  0.1306
26122W        W41591  17.408  10.330  14.760  0.0281  0.0267  0.0203
26123W        W41592   5.743  14.757   2.952  0.2719 -0.0127  0.0629
26124W        W41593   3.698  11.574  13.092  0.0429 -0.0672 -0.1114
26125W        W41594  14.791  13.888   2.200 -0.0864  0.0729  0.0104
26126W        W41595  15.777  10.603  10.959 -0.0261 -0.3131  0.0485
26127W        W41596  12.884   6.295   0.255 -0.1577  0.0061 -0.0446
26128W        W41597   8.319   3.811   1.748 -0.1335 -0.0092 -0.0290
26129W        W41598   0.164   3.250  11.986 -0.0488  0.2708 -0.1051
26130W        W41599   2.846   5.666  12.796 -0.1031 -0.0220 -0.0125
26131W        W41600   9.292  16.018  13.464 -0.1927 -0.2010  0.1764
26132W        W41601  12.586   0.936  12.955 -0.2312 -0.1658  0.2080
26133W        W41602  15.901   6.942  13.376 -0.1893  0.2791  0.1019
26134W        W41603   0.136   9.666  11.001  0.0977  0.1720 -0.0811
26135W        W41604  11.129   8.522  15.276  0.1510  0.0222  0.0169
26136W        W41605  16.689   5.344  12.092 -0.0926 -0.0217 -0.0660
26137W        W41606   4.777  13.457   0.617 -0.0660 -0.1542  0.0710
26138W        W41607   1.666  17.589  12.961  0.0801 -0.0745  0.0343
26139W        W41608  15.626   7.051   3.829  0.3931 -0.1044 -0.4332
26140W        W41609   7.483  11.443   0.718  0.1571  0.0593  0.0039
26141W        W41610   6.811   6.125   2.810 -0.0013 -0.0615 -0.2816
26142W        W41611   7.234   4.086  11.378  0.0392 -0.0849 -0.1394
26143W        W41612   8.665  13.404   9.958 -0.0945 -0.2416 -0.1892
26144W        W41613  12.397   8.032  15.432 -0.1032 -0.1058  0.0908
26145W        W41614   5.342   8.978  15.477  0.2299 -0.0557 -0.1527
26146W        W41615   2.769   1.307  15.869  0.0861 -0.0363 -0.1692
26147W        W41616   7.670  10.908  14.761  0.1773 -0.0195  0.0524
26148W        W41617  17.784   2.622  11.397 -0.0734  0.0933 -0.0489
26149W        W41618   8.787   8.034  12.799  0.1117  0.1892 -0.1028
26150W        W41619  14.124   8.199  11.914 -0.1361  0.1494 -0.0956
26151W        W41620   0.472  10.680   3.886  0.1085 -0.0835  0.1302
26152W        W41621   7.339   4.408  11.851 -0.1097  0.1450  0.0833
26153W        W41622  11.560  13.643   0.113  0.0384  0.1135  0.5087
26154W        W41623  18.177  14.731  14.841 -0.1953  0.5015 -0.1556
26155W        W41624   8.400   3.202   0.801  0.2200 -0.0484  0.0802
26156W        W41625   7.910  13.430  12.590  0.3605  0.2276  0.2893
26157W        W41626   5.768  10.974  13.360 -0.2027 -0.2057 -0.1643
26158W        W41627   5.418   2.750  15.160  0.4384  0.1843  0.2793
26159W        W41628  10.178  18.209  15.295 -0.3539  0.0599  0.1403
26160W        W41629   5.465  11.984  13.562 -0.0552  0.1191 -0.0630
26161W        W41630  14.042  13.955   3.564  0.1119  0.2517  0.2548
26162W        W41631  14.016  14.279   4.266  0.0828  0.1144 -0.1903
26163W        W41632  10.778   2.804  12.487 -0.0225 -0.0495  0.2368
26164W        W41633  14.929  15.683  11.342 -0.4530 -0.1551 -0.3332
26165W        W41634   6.478  10.747   2.792  0.0271 -0.0606 -0.0971
26166W        W41635  11.998   9.257   0.473  0.1210 -0.1122  0.2234
26167W        W41636   6.532  11.892   6.090 -0.0571  0.1918  0.1491
26168W        W41637   8.612   5.630  10.841  0.4121  0.2900 -0.2129
26169W        W41638   9.113   2.576  15.668  0.1485  0.2347  0.0982
26170W        W41639   9.171  17.405  15.795 -0.1413  0.0877 -0.2615
26171W        W41640  10.955   8.382   1.106  0.0576  0.0269  0.1301
26172W        W41641   9.293  18.013   1.027  0.0712 -0.2909 -0.2265
26173W        W41642   0.885  16.141   5.426 -0.3411  0.0421  0.1661
26174W        W41643   2.940  11.857  11.172  0.2076 -0.1578  0.0001
26175W        W41644   2.805  14.082   2.420  0.1177  0.2407 -0.0545
26176W        W41645   5.325   1.655  14.221 -0.1248 -0.2878  0.0419
26177W        W41646   9.379   2.098   1.320 -0.0902 -0.0216 -0.0030
26178W        W41647  13.697  10.316  15.057  0.0019 -0.3056 -0.3962
26179W        W41648  15.055  17.263  15.186 -0.0685 -0.0592 -0.3925
26180W        W41649  14.769   3.218   3.440  0.2490  0.1257 -0.3037
26181W        W41650  14.733   4.955   0.195 -0.0932 -0.2345 -0.0695
26182W        W41651  11.137  17.555   5.568 -0.0359 -0.0193 -0.1635
26183W        W41652   2.485   4.282   2.039  0.1036 -0.0150  0.3017
26184W        W41653  14.419   4.014  14.228 -0.2080  0.2264  0.1191
26185W        W41654  10.901  11.323  12.552 -0.0541 -0.3887  0.2742
26186W        W41655  18.376  17.038   3.715 -0.1864  0.3122 -0.2303
26187W        W41656   8.915   6.371  10.587  0.0032 -0.2586  0.0542
26188W        W41657  10.642  11.501  15.073  0.3359 -0.1965  0.1864
26189W        W41658   8.747  14.956   4.627  0.1560 -0.0655 -0.0843
26190W        W41659   9.475  14.758  14.401  0.0323  0.2228 -0.1653
26191W        W41660   1.099  12.876  15.133  0.1577  0.0595 -0.1129
26192W        W41661  11.243  18.058   3.326 -0.2973  0.1951 -0.0711
26193W        W41662  14.641  17.008  15.905 -0.1326 -0.3563 -0.0900
26194W        W41663   3.575   4.824   0.890 -0.1301 -0.1090  0.1141
26195W        W41664   5.112   7.789  14.970  0.3072  0.2304 -0.0610
26196W        W41665   5.272  12.424  12.199  0.4836 -0.1924 -0.0554
26197W        W41666   3.814   5.190  13.529  0.1367  0.0090  0.0773
26198W        W41667  11.790  10.934  12.800  0.0102 -0.0951  0.0408
26199W        W41668   1.246  10.035   3.186  0.2176  0.1893  0.3664
26200W        W41669   1.956  12.347  10.936 -0.1987  0.0894  0.0875
26201W        W41670  12.637   5.268  11.087 -0.1453  0.0338  0.1679
26202W        W41671   7.535   1.620   1.335 -0.1805  0.0744  0.0142
26203W        W41672   5.878   3.749   5.062  0.1179  0.0296 -0.0027
26204W        W41673   2.683  10.908  14.765  0.1136 -0.1649  0.5772
26205W        W41674   1.883  12.663   2.981 -0.2601 -0.1811 -0.1694
26206W        W41675  14.953  12.861   1.840  0.0413  0.1616 -0.1212
26207W        W41676  12.526   2.111   2.632  0.1866  0.2448 -0.0070
26208W        W41677  18.002  15.667   5.297  0.1645 -0.1642 -0.1648
26209W        W41678   7.839  15.762  12.622  0.1696  0.3977  0.0468
26210W        W41679   4.390  18.138  11.548  0.0183 -0.4557 -0.1727
26211W        W41680  10.543  17.281   1.943  0.2956  0.2121  0.0783
26212W        W41681   1.760  12.763  11.290  0.3156  0.3674 -0.0627
26213W        W41682   3.093  18.439   3.220 -0.0330  0.0832  0.1260
26214W        W41683  15.300  11.734   4.310  0.0483  0.1613  0.0467
26215W        W41684   1.318  12.530  15.857  0.0459  0.1222  0.1656
26216W        W41685  10.651  13.127   1.391 -0.2397  0.2639 -0.1708
26217W        W41686   3.277  15.500   6.235  0.0746  0.0819  0.2470
26218W        W41687   7.221   0.874   3.872  0.0795 -0.1838 -0.3403
26219W        W41688   1.393   0.681  14.403 -0.0038  0.2283 -0.2049
26220W        W41689  15.733  11.302   2.652  0.1855 -0.2662  0.0272
26221W        W41690  18.200  13.435  11.345 -0.2864  0.2276  0.0828
26222W        W41691   8.301   8.216   2.012  0.3580  0.1261 -0.0192
26223W        W41692  14.855  18.275   1.080 -0.1371 -0.1980  0.1270
26224W        W41693  14.848   5.974   1.502  0.0880 -0.0196  0.0865
26225W        W41694  12.457   9.838   2.911 -0.2274  0.3761 -0.1096
26226W        W41695  11.057  17.363  14.803 -0.1921  0.2300 -0.0073
26227W        W41696  15.089  17.202   1.078  0.0142  0.0837  0.2001
26228W        W41697  14.916   2.334   5.162 -0.2136  0.1169 -0.0417
26229W        W41698   5.766   8.996   4.154 -0.1723 -0.2805  0.1558
26230W        W41699  11.053  14.290  14.425 -0.0121  0.0130 -0.0260
26231W        W41700  16.628   4.266  14.846  0.0661  0.2255  0.0424
26232W        W41701   5.338  15.980  13.259 -0.1730 -0.0951  0.2317
26233W        W41702   6.100  10.986  11.669  0.3024 -0.3089 -0.0432
26234W        W41703   7.463  14.448   0.149 -0.1797 -0.0099 -0.0893
26235W        W41704  14.039  16.528  14.005 -0.0928 -0.1607 -0.2016
26236W        W41705  18.152   5.564   2.899  0.1709 -0.3477 -0.0491
26237W        W41706  16.620   7.571   5.286 -0.0359  0.0426 -0.3472
26238W        W41707  10.837  17.545   2.371 -0.0803  0.0668 -0.1259
26239W        W41708   4.636  15.969  15.832 -0.1124 -0.2113 -0.0900
26240W        W41709   8.186  14.443  12.307  0.0330 -0.2063  0.0825
26241W        W41710   5.433   3.363  15.488  0.3943  0.3534  0.3141
26242W        W41711  16.740  12.757   2.033 -0.0421 -0.0349  0.1042
26243W        W41712   6.179   0.438  10.890 -0.2447  0.2185 -0.0822
26244W        W41713   9.961   4.557  14.096 -0.0219 -0.2503 -0.2700
26245W        W41714   2.764   2.613   0.678  0.1675 -0.0808  0.1547
26246W        W41715   5.442   4.596   0.191  0.2066 -0.1337  0.5021
26247W        W41716  10.924   1.453   2.492 -0.0184  0.1037 -0.1675
26248W        W41717  17.637   6.536  11.893 -0.0560  0.2344 -0.2374
26249W        W41718  15.781   4.356  13.098 -0.4569  0.0565  0.3259
26250W        W41719   6.627  17.796   0.521 -0.1343  0.0495  0.0862
26251W        W41720  13.308   6.177   1.865 -0.0555  0.0643 -0.3466
26252W        W41721   2.072   6.289   0.888  0.0001 -0.2122 -0.2741
26253W        W41722   6.412  16.657   0.450  0.1269 -0.0613 -0.1999
26254W        W41723   4.478   1.668  12.851 -0.0148  0.3155  0.0423
26255W        W41724   5.878  14.924   1.254  0.4445  0.1650  0.0986
26256W        W41725  16.726   3.592   4.614 -0.1116 -0.0474  0.0558
26257W        W41726  17.618   7.650   1.418 -0.0093  0.2099  0.0505
26258W        W41727  13.667   8.912   3.845  0.0375  0.0844 -0.1448
26259W        W41728  15.269   1.233  11.690  0.0003  0.0462 -0.1939
26260W        W41729  10.221  15.857  14.484 -0.0240 -0.0072 -0.1074
26261W        W41730   6.113  11.516   4.094  0.1601  0.0402  0.0454
26262W        W41731  16.628   7.271   3.234  0.0078 -0.0269 -0.1730
26263W        W41732   9.972  16.688  14.056  0.0707 -0.0429 -0.2171
26264W        W41733   4.543   5.076   2.495  0.2485  0.0758  0.0115
26265W        W41734  10.200   5.710   5.011  0.4262  0.0049  0.0540
26266W        W41735   4.712  18.065  12.225 -0.1846 -0.1364  0.1888
26267W        W41736   4.696   9.059  15.064  0.0057 -0.3902 -0.0134
26268W        W41737   4.418   8.065   2.575 -0.1525  0.1860 -0.1818
26269W        W41738   1.760  14.734  12.160  0.1898  0.1457  0.4885
26270W        W41739  10.340   2.065   3.694 -0.1838  0.0300  0.0734
26271W        W41740  17.907  18.094  15.862 -0.3725 -0.1891 -0.2083
26272W        W41741  10.930   4.396  14.205 -0.0616 -0.0673  0.0981
26273W        W41742  16.826  18.387  12.052  0.1028 -0.1130  0.3576
26274W        W41743  13.480   7.530   0.448 -0.0705 -0.1329  0.3265
26275W        W41744   5.468   8.644   3.864 -0.0121  0.1040 -0.1031
26276W        W41745   9.105   4.986  15.578 -0.1257 -0.1564 -0.2082
26277W        W41746   5.756   3.337   2.039  0.2098  0.0641 -0.2133
26278W        W41747   2.903  11.905   3.685 -0.1332  0.2081  0.1297
26279W        W41748   3.007   0.325  15.525 -0.0383 -0.1076 -0.3082
26280W        W41749  16.738  10.849  14.158 -0.0457 -0.1265 -0.1882
26281W        W41750  16.723   9.734  10.398 -0.1421 -0.0883 -0.1452
26282W        W41751  13.554   4.836   2.530  0.1916  0.1226 -0.0884
26283W        W41752   6.045  14.762  13.106  0.0381 -0.1471 -0.0307
26284W        W41753   1.858  17.753   3.208 -0.1164  0.1263 -0.0005
26285W        W41754  15.580   8.686   2.154  0.1593  0.1364 -0.0801
26286W        W41755  17.072   3.839  11.089  0.0612  0.2279  0.0699
26287W        W41756   8.912  14.632  12.680 -0.3954  0.2097  0.1791
26288W        W41757  15.270   5.271  15.236 -0.1899 -0.3823 -0.1802
26289W        W41758  15.588  12.610   4.816 -0.1133  0.1536 -0.4286
26290W        W41759  15.294  16.804  12.165  0.0514  0.0240 -0.1939
26291W        W41760  13.525   1.759   1.651  0.0896 -0.2898 -0.1348
26292W        W41761  17.369  18.247  14.353  0.0810 -0.1498 -0.0253
26293W        W41762  12.040   5.797   2.538  0.1990 -0.3001 -0.0242
26294W        W41763   9.597   1.205   0.642  0.3038  0.2883 -0.1689
26295W        W41764  14.370  10.231   5.398  0.0722  0.0276  0.0290
26296W        W41765  14.503   3.375   2.336  0.1740 -0.1781 -0.4658
26297W        W41766   0.664  18.128   4.254 -0.0670  0.1254 -0.1043
26298W        W41767   9.223  16.315  12.055  0.3716 -0.2397  0.0548
26299W        W41768   7.898   7.611   2.675  0.0976 -0.1696 -0.0856
26300W        W41769   6.200   3.439   5.505 -0.0881 -0.0815 -0.0985
26301W        W41770   3.341  14.575   2.969 -0.3002 -0.1006 -0.0656
26302W        W41771   8.474  10.739  13.374 -0.2622  0.1219  0.0433
26303W        W41772   6.384   9.013   5.003 -0.1815  0.1509  0.2721
26304W        W41773   1.944   2.614   0.194 -0.0776 -0.1627  0.0599
26305W        W41774  17.098  10.978  15.184 -0.4467 -0.0077 -0.0986
26306W        W41775  11.536  18.069   4.937 -0.0452  0.1516  0.4353
26307W        W41776   3.513   2.749  11.342 -0.0791 -0.1014 -0.0499
26308W        W41777  17.078   0.298   3.061 -0.1939 -0.2222 -0.1764
26309W        W41778   0.332   4.940  12.486 -0.2273  0.0949  0.2543
26310W        W41779   4.397  15.321  13.094  0.1106  0.2487  0.2285
26311W        W41780  13.995   1.551   3.602  0.0940  0.1300  0.0449
26312W        W41781  16.361  11.443  11.802 -0.1823 -0.3906  0.1146
26313W        W41782   9.359   3.574  15.637 -0.1707  0.1960 -0.1113
26314W        W41783  15.479   3.883  11.878 -0.0045 -0.2794 -0.0677
26315W        W41784   3.769   9.499  15.160  0.1227  0.1389 -0.0859
26316W        W41785  11.956  16.961  14.660  0.3516 -0.3490 -0.1415
26317W        W41786   5.295   6.966   4.791  0.1709 -0.1621  0.0974
26318W        W41787  17.414   5.027  15.524 -0.2710  0.0124  0.0958
26319W        W41788   6.490   3.130   5.124 -0.1994 -0.0026 -0.1400
26320W        W41789  17.029   4.714   5.562 -0.0005  0.3820  0.0378
26321W        W41790  10.636  13.394   2.541  0.0335  0.1074 -0.1231
26322W        W41791   7.783  11.239  15.565  0.1827 -0.0218 -0.0834
26323W        W41792   9.518   6.350  12.596  0.0452 -0.0107  0.0464
26324W        W41793  13.691  17.103  11.828 -0.2925  0.2342 -0.2624
26325W        W41794   3.515  10.518   9.877 -0.0815 -0.0951  0.2032
26326W        W41795  12.922   7.923   1.169  0.1181  0.1862  0.0015
26327W        W41796  14.740  11.851   2.149 -0.1205 -0.0300 -0.1226
26328W        W41797   4.112   3.136   4.374 -0.0198 -0.3795 -0.0287
26329W        W41798   7.111  11.445   2.384  0.0604 -0.1673  0.1384
26330W        W41799  14.428   1.659  13.966 -0.0054 -0.1396 -0.1321
26331W        W41800   1.238   6.751   4.463  0.1411 -0.3272 -0.1457
26332W        W41801   3.312   1.680   1.513  0.3499 -0.2958  0.1180
26333W        W41802   8.495  17.375   3.090 -0.0089  0.0488  0.0106
26334W        W41803  14.700   8.244  11.800  0.0536 -0.1337 -0.1766
26335W        W41804   4.002   4.163  11.989 -0.0651 -0.0444  0.0662
26336W        W41805  11.263   5.219   5.548  0.0714 -0.1480  0.0429
26337W        W41806  10.061  14.127  13.641 -0.0043  0.0574  0.0040
26338W        W41807  13.384  11.130  12.663 -0.2717  0.0615 -0.2319
26339W        W41808   6.074  18.442   4.432  0.0085 -0.0279 -0.0135
26340W        W41809  13.131   4.972   2.730 -0.1039  0.4102 -0.1039
26341W        W41810   1.656   6.613  13.383  0.1888  0.2855  0.1207
26342W        W41811  15.428  13.111   3.069  0.2625  0.1895  0.0162
26343W        W41812  10.089   6.311   3.593 -0.1317 -0.0216  0.1029
26344W        W41813  12.205  15.333  11.781  0.0107  0.0378  0.2153
26345W        W41814   9.259   8.497  12.159 -0.1669  0.0104  0.2397
26346W        W41815  18.082   9.982   4.925  0.0449 -0.2134  0.0256
26347W        W41816   4.398   5.318   1.553 -0.2894 -0.0446 -0.3385
26348W        W41817   4.045  16.733   2.964 -0.1581  0.0539  0.1687
26349W        W41818  14.451   4.267   0.752 -0.0139  0.0005  0.1148
26350W        W41819   3.894   1.282   2.966  0.1200  0.2012  0.0952
26351W        W41820   6.245  17.340  11.424 -0.1011 -0.4536  0.0749
26352W        W41821   2.449  14.327   3.137 -0.2918 -0.2156 -0.0130
26353W        W41822  16.603  16.002   9.855 -0.0085 -0.3111  0.0309
26354W        W41823  10.470   3.102  12.819 -0.0786  0.4643 -0.0943
26355W        W41824   9.006   5.457  13.241  0.0191 -0.2143 -0.0012
26356W        W41825   7.953  13.123   2.804  0.1703 -0.0067  0.1322
26357W        W41826  15.417   9.746   0.061  0.1012 -0.0139  0.0339
26358W        W41827  11.761   2.222   3.974  0.0580 -0.0041  0.0037
26359W        W41828  10.406   4.088   0.060  0.2090 -0.0844  0.1737
26360W        W41829   9.467   2.316  14.515 -0.0856  0.1329 -0.2416
26361W        W41830   8.265  12.245   3.924  0.0311  0.0760  0.0241
26362W        W41831   6.027  13.301  14.283 -0.0574 -0.1038 -0.2373
26363W        W41832   0.236  16.158  15.614 -0.0886 -0.0214  0.0522
26364W        W41833  10.968  11.893  15.113  0.2551  0.1558 -0.0458
26365W        W41834  18.401  10.270   3.038  0.1500 -0.1843  0.1462
26366W        W41835   3.418   0.217   4.815 -0.1733  0.0979 -0.0442
26367W        W41836   3.778  18.119  11.634  0.0489  0.1037 -0.2420
26368W        W41837   8.335  15.395   4.378  0.0135 -0.0644 -0.0580
26369W        W41838  13.895   1.446  14.037 -0.2417  0.1808 -0.3340
26370W        W41839   3.418  10.769  11.669  0.1297 -0.1351  0.0796
26371W        W41840   2.744   0.021   1.002  0.0983  0.0488 -0.2528
26372W        W41841  11.247   0.820   2.806 -0.1188  0.0656  0.1998
26373W        W41842   6.070  16.157  13.172 -0.3244 -0.0002 -0.1213
26374W        W41843   4.279   2.133   3.797 -0.1032  0.2651  0.0927
26375W        W41844   2.461  15.774   1.918  0.0327  0.1788  0.1837
26376W        W41845  17.841   3.420  13.805 -0.1427  0.1532 -0.0694
26377W        W41846  10.821   1.510  11.273  0.1632  0.1539 -0.1695
26378W        W41847   0.591  12.483   0.861 -0.2192  0.0126 -0.1126
26379W        W41848  12.995  10.196  14.035 -0.0202  0.2129 -0.2592
26380W        W41849   1.606  14.747   0.373  0.1275 -0.0463 -0.0750
26381W        W41850  12.971   5.610  13.658 -0.0659 -0.0209  0.0264
26382W        W41851   4.212   4.570  14.768  0.0851  0.3691  0.0541
26383W        W41852   4.506  11.442  13.489  0.2971  0.3090  0.1026
26384W        W41853  14.078  12.815   4.200  0.2167  0.0024  0.3012
26385W        W41854   4.349   5.797  13.005 -0.2089  0.0744 -0.2132
26386W        W41855   4.581   9.243  12.544  0.2397  0.1825  0.1905
26387W        W41856  17.299   1.773   1.074  0.0985  0.2884 -0.1239
26388W        W41857  10.281  10.010   0.999 -0.0336  0.0048 -0.0226
26389W        W41858  15.148  12.629   3.176  0.0641 -0.0265  0.0264
26390W        W41859   4.527   5.418   1.007 -0.0381  0.0858  0.0938
26391W        W41860  10.352   2.631   4.218  0.1554  0.2092 -0.1615
26392W        W41861  11.587   1.326  10.728  0.2909 -0.0862 -0.0597
26393W        W41862   3.168   1.026   0.081 -0.3045  0.2980  0.1040
26394W        W41863  12.723   6.278  13.381 -0.3917  0.2075  0.1053
26395W        W41864  13.077  14.803  13.375  0.0191  0.1779  0.0400
26396W        W41865   4.734   1.386   3.345  0.0440  0.1542 -0.0184
26397W        W41866  16.177   0.076  12.957  0.1930  0.2103 -0.0928
26398W        W41867  11.892   9.757   4.411  0.1916  0.0572 -0.1049
26399W        W41868   1.712  17.629  12.100  0.0054  0.0409 -0.3507
26400W        W41869  11.867  14.010   2.560  0.1615  0.1554 -0.1244
26401W        W41870   7.958  11.595   0.600 -0.2711 -0.3059 -0.1297
26402W        W41871  11.428  17.184   2.989  0.4193 -0.4071  0.5558
26403W        W41872   0.046   4.201   1.539 -0.1329  0.0780  0.0623
26404W        W41873   2.026   8.247  12.130  0.1972 -0.5177 -0.0049
26405W        W41874   4.663  18.201   4.701 -0.0292 -0.0390 -0.1711
26406W        W41875   3.156  12.676  12.396  0.1139  0.0426  0.0491
26407W        W41876   8.988   8.949  12.943  0.0860  0.1091  0.2332
26408W        W41877   9.374   4.360   5.770  0.1963  0.2174 -0.1067
26409W        W41878   2.315   0.570  11.071  0.1178 -0.0158 -0.1049
26410W        W41879  15.305   9.846  11.495  0.5338 -0.1395  0.1517
26411W        W41880  13.661  13.483   0.756  0.4576  0.0397  0.1862
26412W        W41881  10.827   6.232  12.367  0.2580  0.1161  0.0625
26413W        W41882   4.136  14.630  11.764 -0.0171  0.1921  0.0050
26414W        W41883  12.728   7.683   5.174 -0.0519 -0.0212  0.1020
26415W        W41884  14.033  11.976   0.537 -0.1023 -0.5001 -0.1273
26416W        W41885   6.313   1.589  14.940  0.0129 -0.1367  0.1116
26417W        W41886   0.672   7.502   0.543 -0.0837 -0.3232  0.1425
26418W        W41887   1.625   3.855   3.824 -0.1070  0.2785  0.1733
26419W        W41888  15.359  13.414  12.847  0.0365  0.1399 -0.0027
26420W        W41889   1.310   7.516  15.396 -0.1882  0.4232  0.0354
26421W        W41890  15.061  16.918  15.638 -0.0943  0.1147  0.2695
26422W        W41891  13.723  17.513  14.324 -0.0745  0.2419  0.1489
26423W        W41892  15.183   1.962  14.929 -0.1496 -0.1303 -0.3003
26424W        W41893  13.990   3.192  11.688 -0.0334  0.0285  0.2226
26425W        W41894   8.013   9.668  10.869  0.0259 -0.1841 -0.1720
26426W        W41895  13.359   2.030   3.143  0.0517 -0.3571  0.0313
26427W        W41896   7.250  10.654  14.972 -0.2451 -0.1562 -0.0157
26428W        W41897  17.096  18.325   4.690 -0.1697 -0.0806 -0.1173
26429W        W41898   2.480  13.895  11.925 -0.2683  0.0304  0.3519
26430W        W41899   1.431   0.882  15.197 -0.1263  0.6395  0.0316
26431W        W41900   7.783   8.254  13.262 -0.1750  0.2717 -0.0288
26432W        W41901   6.895  10.026  13.514  0.0743  0.0962 -0.3302
26433W        W41902   1.397  11.018   3.860  0.0704  0.2735  0.0169
26434W        W41903   1.507   7.910  15.017  0.3674 -0.3665  0.1679
26435W        W41904   4.755  10.011  15.814 -0.0161 -0.3754  0.1080
26436W        W41905   8.478   5.001  11.585 -0.4735  0.1681  0.2062
26437W        W41906  12.152   4.620  10.635  0.2608  0.1704  0.1008
26438W        W41907  17.851   2.734  13.514 -0.1227 -0.1045 -0.0665
26439W        W41908   1.855   8.505  11.279 -0.3990 -0.1324  0.1845
26440W        W41909  13.687  10.567   4.215  0.0322  0.1106  0.3650
26441W        W41910   3.324   4.739  11.670  0.1560 -0.0782  0.2681
26442W        W41911   1.767  11.349   0.273  0.2908  0.2045 -0.0161
26443W        W41912  17.221  13.358  15.444 -0.1557  0.3076  0.0047
26444W        W41913   0.672   3.882  11.457  0.0570 -0.0833 -0.0230
26445W        W41914   6.511  15.115   4.057 -0.1735 -0.0435 -0.3959
26446W        W41915   6.658  15.587  15.593  0.1411  0.0293  0.1787
26447W        W41916   4.616   1.540  13.561 -0.0190  0.0678 -0.4148
26448W        W41917  18.176   7.135  13.216 -0.2922  0.2442 -0.2214
26449W        W41918   5.621   2.815   4.120  0.0381 -0.2981 -0.0011
26450W        W41919   2.169   8.972  15.320  0.0235 -0.2441  0.0268
26451W        W41920  11.338   0.475   6.311  0.1742 -0.0561 -0.0268
26452W        W41921  13.006   6.009  10.808 -0.0364  0.1243  0.4655
26453W        W41922   6.861   1.794  14.712  0.0390  0.1610  0.0671
26454W        W41923   8.889  13.504  13.964  0.0018 -0.1573  0.0023
26455W        W41924  18.153  16.860   3.315 -0.1558  0.1841 -0.1070
26456W        W41925  16.763   5.897   3.615 -0.2473 -0.0383  0.1967
26457W        W41926   1.619  15.403  14.473 -0.2881  0.3693  0.1047
26458W        W41927   2.648   3.119   0.468  0.1811  0.0894  0.2666
26459W        W41928   7.483  10.993   4.275  0.2661 -0.0495 -0.0771
26460W        W41929  16.322   6.969   2.954  0.0636 -0.0673 -0.1395
26461W        W41930   0.130   6.945  12.339  0.1124 -0.2596 -0.1611
26462W        W41931  13.534   3.330   3.373 -0.0654 -0.1847 -0.1219
26463W        W41932  15.523  12.233   4.018  0.2253  0.2006 -0.1198
26464W        W41933  12.489   6.668  13.103  0.1784  0.0132  0.0276
26465W        W41934   1.001  14.139  12.615  0.0450  0.1083  0.1121
26466W        W41935   4.221   8.651  11.575 -0.0081  0.1766  0.3752
26467W        W41936  16.362  10.877  13.544 -0.0035  0.0852  0.0784
26468W        W41937   2.189   7.361   3.881 -0.2564  0.1629 -0.1196
26469W        W41938  10.924   6.564   3.146  0.2403  0.2008 -0.0284
26470W        W41939   4.027   2.966  14.504  0.2491 -0.1090 -0.0063
26471W        W41940   0.110   0.976   5.608 -0.0687  0.3475  0.2044
26472W        W41941   5.069   9.028   0.625  0.0331 -0.2363 -0.3820
26473W        W41942   4.372  11.674  15.348 -0.0736  0.0472 -0.1655
26474W        W41943  10.659   7.317  13.350  0.2706 -0.2583 -0.1512
26475W        W41944   4.651   1.258  13.132 -0.1212 -0.0765  0.0308
26476W        W41945  18.073  11.384   4.286  0.0812  0.2750 -0.0295
26477W        W41946   9.711   0.425   4.399  0.0553  0.3226 -0.2080
26478W        W41947  16.913  12.408   3.007 -0.0731  0.0011  0.1879
26479W        W41948   2.880  11.362  15.886 -0.0012 -0.0154  0.1332
26480W        W41949  16.668   0.654  14.742  0.0345  0.2489 -0.1648
26481W        W41950  11.746   1.191   0.326 -0.2785  0.0755  0.0140
26482W        W41951   9.651  11.456  13.790 -0.3173  0.4177 -0.3166
26483W        W41952   5.450   2.888   1.147 -0.0991 -0.0513 -0.0500
26484W        W41953   9.442  17.264   0.281  0.3145 -0.1427 -0.3450
26485W        W41954   4.213  18.019   1.278 -0.0960 -0.0256  0.0643
26486W        W41955  10.624   3.157   2.474 -0.0625  0.1135  0.1295
26487W        W41956   6.848   0.312  11.603  0.1737 -0.0308  0.4163
26488W        W41957   2.548   4.781  11.703 -0.4138 -0.0231 -0.2296
26489W        W41958  12.030  10.261   3.676  0.1432  0.1164 -0.0047
26490W        W41959   3.236   2.520   3.278 -0.0739 -0.0340 -0.0985
26491W        W41960  13.348  16.534  11.139 -0.0311  0.2288 -0.1377
26492W        W41961   7.435  16.010  12.444 -0.0391  0.0199 -0.0686
26493W        W41962   8.946  18.470  11.920 -0.3234  0.2752  0.0501
26494W        W41963   7.903   2.095   3.346 -0.3491 -0.2587 -0.2015
26495W        W41964   8.575  13.060   1.813  0.2019  0.2077  0.2954
26496W        W41965   5.195  12.822   3.865  0.0243 -0.1121  0.2305
26497W        W41966  15.537   0.731  14.064 -0.4809 -0.3108 -0.0572
26498W        W41967  14.089   8.101   1.811  0.1229 -0.0381 -0.2975
26499W        W41968  11.750   7.415  12.891  0.2113  0.0074  0.1260
26500W        W41969   4.773  14.239   4.192  0.1129  0.3134 -0.0168
26501W        W41970   9.030  12.835   4.851 -0.2674 -0.0619  0.1652
26502W        W41971  14.597  11.546  14.964  0.0036 -0.2394  0.0413
26503W        W41972   2.602   7.111  15.634 -0.0384  0.0224  0.2002
26504W        W41973   5.016   6.554   3.943  0.2238 -0.0232  0.0559
26505W        W41974   1.636  14.085  15.347 -0.2478  0.1276  0.1187
26506W        W41975   8.432  11.401  11.655  0.0715  0.1499  0.2457
26507W        W41976   7.826  13.740   5.151  0.2559 -0.3046 -0.0937
26508W        W41977  15.945   0.898  15.487 -0.0767  0.1415  0.1702
26509W        W41978   1.998   7.728   5.071 -0.1911 -0.2470  0.0134
26510W        W41979  10.240   4.359  15.001  0.2959  0.0090  0.1635
26511W        W41980   2.051   6.556   1.985 -0.0677  0.1045  0.2018
26512W        W41981   2.422  13.664   3.306  0.1357  0.0800  0.0093
26513W        W41982   9.727   6.251   0.948  0.0978 -0.1005  0.2329
26514W        W41983  10.425   9.844   1.716 -0.0352  0.1467 -0.1178
26515W        W41984  16.361  17.927  14.912 -0.4454  0.0771  0.0088
26516W        W41985  16.258  15.869  12.775  0.0564  0.1059  0.0592
26517W        W41986   1.127   5.090   0.899  0.1625 -0.0084 -0.2725
26518W        W41987   7.522  10.217   2.774  0.0912 -0.0757  0.2987
26519W        W41988   4.929  11.115  13.343  0.0434  0.3347 -0.1744
26520W        W41989  13.021   7.358  11.087 -0.0861  0.2129  0.2277
26521W        W41990  12.104  16.931   5.376  0.3293 -0.2474 -0.1690
26522W        W41991  11.757   9.622   2.292 -0.0398  0.1760 -0.2086
26523W        W41992  15.331  17.324  13.045  0.2660  0.0718 -0.1692
26524W        W41993  10.928  13.799  13.385 -0.0939  0.1235  0.2357
26525W        W41994  11.463  12.910   2.411 -0.2269 -0.0954  0.1129
26526W        W41995  10.883   0.823   0.761  0.0917  0.1175  0.2233
26527W        W41996   5.210  12.256   1.071 -0.0091  0.2677  0.1229
26528W        W41997   3.819   8.727   2.161 -0.5750  0.3799 -0.2705
26529W        W41998   6.834   7.813   2.296 -0.2941 -0.6919  0.0704
26530W        W41999   8.637   2.044  12.859 -0.1057 -0.2001 -0.0953
26531W        W42000   2.593   2.805   3.803  0.2653 -0.0698  0.0329
26532W        W42001   6.009  13.542   5.252  0.1565  0.0408 -0.1349
26533W        W42002  14.447  14.501  13.752 -0.0214  0.0575  0.2177
26534W        W42003  16.249  10.658   0.784 -0.0940  0.1407  0.0708
26535W        W42004   8.027  13.919  12.400 -0.0727  0.3436 -0.1519
26536W        W42005  17.809   4.756  15.833  0.0802  0.0535  0.1268
26537W        W42006   4.907  10.460   4.946 -0.0737 -0.0380 -0.0516
26538W        W42007   8.681  16.500   1.313  0.1270 -0.0196 -0.3423
26539W        W42008   1.945   3.133  12.307  0.2791  0.3103 -0.0031
26540W        W42009   5.702   7.196  14.294  0.2727 -0.0622  0.0568
26541W        W42010   1.605  17.892   6.202 -0.1790  0.2960  0.1484
26542W        W42011  16.861  14.665  13.830 -0.1130 -0.0082  0.1084
26543W        W42012  10.726  14.001   3.370  0.1224  0.2307 -0.2873
26544W        W42013   6.666  14.215   4.962 -0.5009  0.0841  0.3247
26545W        W42014   8.772  10.929   0.242  0.1435  0.2540  0.1799
26546W        W42015   2.516   3.546   0.753  0.1332  0.0422 -0.2011
26547W        W42016   2.323   1.092  15.567  0.2294 -0.1798  0.1219
26548W        W42017  15.208  15.989   0.144 -0.3402 -0.0479 -0.1560
26549W        W42018   0.008   6.323   4.123 -0.1379  0.1451  0.0066
26550W        W42019  11.582  10.093  11.677  0.0054 -0.1364  0.2273
26551W        W42020   5.780  11.555   0.011  0.2334 -0.1995 -0.0944
26552W        W42021   4.203  14.319   3.696 -0.1114  0.0406  0.0824
26553W        W42022  14.729   0.542  14.630 -0.0952 -0.4239 -0.1060
26554W        W42023   8.932  13.135   4.260  0.2278 -0.1513 -0.0458
26555W        W42024   6.813   0.060  13.723 -0.1015  0.2256  0.2272
26556W        W42025   3.884   9.535  12.019 -0.0709 -0.0659  0.1960
26557W        W42026   6.087   7.304   3.837 -0.0276 -0.2544 -0.1343
26558W        W42027  14.511  17.760  10.478  0.0511  0.1300 -0.2812
26559W        W42028   9.623  18.404   0.831 -0.0099  0.0792 -0.0845
26560W        W42029   6.277  15.664   1.700 -0.0077  0.0149 -0.2887
26561W        W42030  11.505   2.539  11.427 -0.2838  0.1124  0.1595
26562W        W42031  13.963  18.115  15.556  0.1258  0.0813 -0.0717
26563W        W42032  13.004  18.287   1.243 -0.2587 -0.0432  0.0195
26564W        W42033   7.994  15.619   0.522  0.1881 -0.1435  0.0690
26565W        W42034  13.291   8.209  15.624  0.2627  0.0891  0.1410
26566W        W42035  13.901   2.167  15.607  0.0471 -0.2604 -0.1548
26567W        W42036   5.329   0.805   5.180  0.1471 -0.0285 -0.4065
26568W        W42037  10.548  13.230   5.023  0.2333 -0.0547 -0.0175
26569W        W42038   4.790   3.503  14.113  0.2074  0.1336  0.0160
26570W        W42039  12.103  11.572  14.502 -0.3917  0.2486 -0.3176
26571W        W42040   6.459   5.449   9.913 -0.1299 -0.1985  0.0207
26572W        W42041   7.054   2.256  14.998 -0.0404  0.1802  0.2022
26573W        W42042  16.562   2.272   1.454  0.0923 -0.1351 -0.0597
26574W        W42043  18.004   3.075  14.245  0.2607 -0.1786 -0.1747
26575W        W42044  16.741   0.521   2.074 -0.0196 -0.0616  0.0694
26576W        W42045  18.409  16.847   1.602  0.0145  0.0125 -0.1181
26577W        W42046   2.897   9.538   4.602 -0.3455 -0.1120  0.2333
26578W        W42047   8.665  11.236  15.412 -0.1787  0.0493  0.0237
26579W        W42048  13.768   4.948   1.642 -0.3058 -0.0140  0.4886
26580W        W42049  17.722   9.193   3.858  0.4054  0.1555 -0.2696
26581W        W42050  14.447  15.730  10.375 -0.0415  0.0171 -0.0599
26582W        W42051   7.942   9.993   2.507  0.2133  0.0698  0.0083
26583W        W42052  12.487  12.852   0.823  0.3310 -0.3224  0.0069
26584W        W42053   6.182   4.288  14.451 -0.2788 -0.2616 -0.4220
26585W        W42054   7.164   6.859  15.626  0.1184 -0.0734  0.1286
26586W        W42055  15.718  14.155   1.225  0.3330 -0.3197  0.1300
26587W        W42056  15.225  17.485  14.251 -0.0088  0.0927 -0.2179
26588W        W42057  13.437   5.687  13.375 -0.1890 -0.4147 -0.2195
26589W        W42058   8.052   4.814   4.691  0.0444  0.0339 -0.1305
26590W        W42059  14.942   4.959   1.548 -0.0183 -0.0785 -0.1156
26591W        W42060  17.800  12.035   4.800  0.0318 -0.2815  0.1228
26592W        W42061  16.230   7.589  10.660 -0.3004  0.1370 -0.1045
26593W        W42062   1.272  12.095   3.283 -0.1254  0.1499  0.2171
26594W        W42063   6.025   4.764   5.278 -0.0151  0.3323 -0.0631
26595W        W42064   5.483   7.844   4.829 -0.0090 -0.0954 -0.0981
26596W        W42065  15.703  15.902   3.342 -0.0146 -0.1165  0.0971
26597W        W42066  17.743  15.564   9.767  0.1766  0.1496 -0.4165
26598W        W42067   0.485   6.184   1.834  0.2169  0.4687  0.3193
26599W        W42068   7.809  18.403   4.862 -0.0906  0.1115  0.1062
26600W        W42069   6.159  10.366   0.981 -0.1827 -0.0055 -0.1216
26601W        W42070  11.294   0.782   1.634  0.1135  0.0199 -0.3139
26602W        W42071  15.144   1.148   1.271 -0.3222 -0.2708 -0.1209
26603W        W42072  14.992   5.507  13.869  0.2548  0.2346  0.1388
26604W        W42073   2.122  14.309   4.787 -0.1609  0.2700 -0.1701
26605W        W42074  11.394   9.757   4.305  0.2005 -0.2864 -0.0809
26606W        W42075  10.714  16.383  10.879  0.0054 -0.1097 -0.3115
26607W        W42076   9.510  13.283   0.183  0.1482 -0.0679  0.2478
26608W        W42077  13.228   3.477   1.277 -0.0660 -0.2664 -0.0995
26609W        W42078  12.137   8.527   4.645  0.2584  0.0666 -0.2890
26610W        W42079  17.410   5.783  11.648  0.0959  0.1451 -0.0620
26611W        W42080  11.943   4.089  10.629  0.0352  0.1897 -0.2092
26612W        W42081   6.758  13.942   0.005  0.0232 -0.2266 -0.1660
26613W        W42082  11.827   2.720   4.734  0.0016  0.0946 -0.4493
26614W        W42083  10.776  18.026   5.474  0.3779  0.1261 -0.2494
26615W        W42084   0.326   9.638  15.610  0.2419  0.1606 -0.2844
26616W        W42085  14.239   9.739   4.002  0.2069 -0.0704  0.2138
26617W        W42086   5.649   5.015  15.115 -0.1379 -0.1999 -0.1416
26618W        W42087   1.246   7.839   4.578 -0.3362 -0.0815 -0.0748
26619W        W42088  10.755   8.783   1.907 -0.1217  0.2385  0.0272
26620W        W42089  16.499   5.101   4.112 -0.1358  0.3198 -0.3374
26621W        W42090   7.327   5.773   3.411  0.0265  0.1288 -0.1799
26622W        W42091  15.523  11.302   3.088 -0.1665  0.1524 -0.0893
26623W        W42092   7.260   5.738   1.611  0.0307  0.0131 -0.0274
26624W        W42093  18.388   8.218  14.496 -0.0808 -0.0867 -0.0340
26625W        W42094   6.654   4.846   3.089 -0.1209 -0.1012  0.1072
26626W        W42095  14.474  13.517   2.325 -0.0383 -0.1063 -0.3479
26627W        W42096  11.528  15.116   1.616 -0.4791 -0.0270 -0.1467
26628W        W42097  17.265  14.444   3.244  0.2239  0.0727 -0.0497
26629W        W42098   7.225   9.141  12.032  0.3505 -0.1055 -0.1076
26630W        W42099  16.122  13.997  15.033  0.2403  0.1770 -0.2724
26631W        W42100  16.846  14.252  14.751 -0.3622 -0.0625 -0.0609
26632W        W42101  13.313  16.798   1.507  0.2064  0.1967  0.1176
26633W        W42102   6.405   4.505  14.083  0.3894  0.1293 -0.3176
26634W        W42103  15.008   2.527  10.560  0.0594  0.2582 -0.0259
26635W        W42104   1.375  12.534  13.545  0.1769  0.1543  0.1634
26636W        W42105   0.063  13.466   2.177 -0.0914  0.0725 -0.0393
26637W        W42106   8.529   5.107   0.842  0.2406  0.3333 -0.0446
26638W        W42107  12.552   9.533   2.509 -0.3820  0.1575  0.2707
26639W        W42108  14.713   0.271   0.215 -0.0000  0.0343  0.0076
26640W        W42109  11.476  14.765   0.560 -0.0355 -0.2741  0.1880
26641W        W42110  14.663   6.573   2.158  0.0111 -0.1892  0.0145
26642W        W42111   3.727   4.416  14.963  0.1078  0.1503  0.1888
26643W        W42112  15.025  18.418   1.505  0.0732 -0.4366 -0.4053
26644W        W42113  15.116   3.137   1.546 -0.0666  0.1740  0.1269
26645W        W42114  17.419  12.502  15.900  0.1398 -0.0411 -0.0378
26646W        W42115  11.220  14.480   0.156 -0.2047  0.1161  0.0800
26647W        W42116  15.735  16.719  14.964 -0.1051 -0.0600 -0.1083
26648W        W42117  15.926  12.973   3.025 -0.0510 -0.2919  0.0340
26649W        W42118  13.948  14.530  14.320 -0.3438  0.0785  0.1883
26650W        W42119   0.968  12.345   4.484 -0.1606  0.2931 -0.0341
26651W        W42120   4.402   1.668  12.101  0.1869 -0.1827  0.2610
26652W        W42121   9.407  10.501   3.408 -0.1480  0.0788  0.0726
26653W        W42122   4.182   6.001  15.538 -0.0962  0.2418 -0.0835
26654W        W42123  16.845   9.774   4.513  0.0732 -0.0712  0.1651
26655W        W42124   0.625   7.066  13.508 -0.0192 -0.2634 -0.0152
26656W        W42125   6.388   3.714  13.096 -0.1501 -0.1328 -0.1901
26657W        W42126  10.822  15.782   2.726  0.0647  0.0233  0.0629
26658W        W42127   8.419   1.690  14.212  0.1424  0.0467 -0.0866
26659W        W42128   2.290   6.048   1.592  0.0547 -0.0059  0.2077
26660W        W42129  15.033  17.693  12.783 -0.4295 -0.0730 -0.2786
26661W        W42130   5.958  15.298  11.949 -0.1142 -0.0446 -0.1096
26662W        W42131   6.501  15.204  12.307  0.0718  0.0033 -0.0069
26663W        W42132   2.242   2.002  15.358 -0.1442 -0.3200 -0.6039
26664W        W42133   5.983  13.155   2.038  0.0258  0.0992 -0.1836
26665W        W42134   7.544  16.747   2.143 -0.2563  0.0406  0.1877
26666W        W42135   3.776   2.483   4.591 -0.1319  0.0063 -0.2206
26667W        W42136   5.047  14.847  12.365 -0.0778 -0.0875  0.0515
26668W        W42137   0.284  12.877   1.140 -0.1636 -0.1767 -0.0856
26669W        W42138   4.206  17.235   3.678 -0.1459  0.0667 -0.1626
26670W        W42139   3.869   4.718   3.004 -0.1872 -0.2595 -0.3592
26671W        W42140   0.539   5.627  15.164 -0.1858 -0.1380  0.1068
26672W        W42141   8.448  11.950  11.564 -0.1138  0.0553  0.2180
26673W        W42142   1.711   4.536  11.866 -0.0712 -0.2907 -0.0189
26674W        W42143   0.732  13.592  13.461 -0.0136 -0.3582 -0.0737
26675W        W42144   1.421   2.070   1.649  0.0606  0.3990  0.0080
26676W        W42145   5.728  11.715  15.095 -0.0489 -0.0853  0.2721
26677W        W42146   3.328  16.960   0.941  0.0730  0.1408 -0.5068
26678W        W42147   9.190   3.009   4.692 -0.2105 -0.0561 -0.2843
26679W        W42148  11.261   2.394   1.008 -0.5349 -0.0849  0.0519
26680W        W42149   1.163  17.662  11.787 -0.0395  0.0251 -0.3256
26681W        W42150   4.677   0.517  11.072 -0.1089 -0.0583  0.0002
26682W        W42151   4.398   8.829   2.944  0.2080 -0.1282  0.1841
26683W        W42152   3.824   4.789  11.637  0.1577 -0.3134  0.1412
26684W        W42153   1.605  13.403  12.962 -0.0813  0.0525 -0.0836
26685W        W42154   8.228   7.907  12.867  0.0361  0.2628 -0.2286
26686W        W42155   8.975   4.012   0.900  0.1251 -0.0477 -0.1060
26687W        W42156  14.399   9.829   1.539 -0.2077  0.0424 -0.2293
26688W        W42157   4.572  15.430  10.678  0.4788  0.0285  0.4894
26689W        W42158  14.798   1.430   9.884 -0.0862 -0.1687  0.2161
26690W        W42159   1.266   6.975  13.214 -0.1616 -0.1421  0.1481
26691W        W42160  10.255  17.359  14.550  0.0527 -0.0662  0.2713
26692W        W42161   7.703   1.905  12.271  0.1996  0.1143 -0.4601
26693W        W42162  18.248  15.432   4.487  0.2205  0.0106 -0.1352
26694W        W42163  12.748  17.084   3.236 -0.1838  0.0659 -0.0842
26695W        W42164  11.893  14.376  12.740  0.1055  0.1138 -0.0357
26696W        W42165   7.354  14.560   1.379  0.0514  0.1062 -0.1348
26697W        W42166  14.242  16.132   0.705 -0.2192 -0.0909  0.0099
26698W        W42167   9.797  11.792   3.041 -0.0626 -0.0715  0.1074
26699W        W42168  17.589  16.035  15.742 -0.0782  0.0105  0.3100
26700W        W42169   4.117   4.988   5.840  0.0034 -0.2908 -0.1991
26701W        W42170   0.684  11.978   0.982 -0.0266  0.1810 -0.1105
26702W        W42171   5.465   8.316   4.768 -0.0550  0.4111  0.0768
26703W        W42172  17.696  15.053  13.662 -0.1325  0.2540 -0.0168
26704W        W42173  12.724  14.101  13.902  0.0593  0.0095 -0.0405
26705W        W42174  17.273   8.173  14.660 -0.0193 -0.1376 -0.0131
26706W        W42175  11.554   1.206  15.761 -0.0812 -0.2592 -0.2593
26707W        W42176   9.353   2.203   3.329 -0.2276  0.0078 -0.2410
26708W        W42177  11.762  14.488   3.510  0.1224 -0.1128 -0.2872
26709W        W42178   8.076   0.967  11.896  0.4281  0.0696  0.0996
26710W        W42179   7.726   1.717   1.821 -0.3795  0.0612 -0.3090
26711W        W42180  16.111  13.960   4.871  0.2061  0.0451 -0.2214
26712W        W42181   1.529   2.923   1.468  0.1496  0.2626 -0.1459
26713W        W42182  15.191  12.166  12.100  0.2460 -0.0096  0.1750
26714W        W42183   1.679  11.332   0.822 -0.0674  0.3653  0.1656
26715W        W42184   2.116  17.162  11.371 -0.1288  0.4534 -0.0593
26716W        W42185   0.605   4.649  12.164  0.1805 -0.1230 -0.1991
26717W        W42186   4.009   6.941  13.666 -0.0388 -0.2520  0.0110
26718W        W42187   3.735  13.033   2.343  0.1127 -0.0262 -0.2797
26719W        W42188   6.807  13.729   4.951  0.0311 -0.2318  0.0028
26720W        W42189  17.217  14.855   0.300 -0.0575  0.1547 -0.1178
26721W        W42190   7.983  11.108   5.081 -0.0876 -0.0665  0.0399
26722W        W42191  10.621   6.075  14.898  0.0059 -0.0867 -0.0761
26723W        W42192   0.077   8.907   3.244  0.1507  0.2152  0.1440
26724W        W42193   2.579   1.459   0.682 -0.0894 -0.0370 -0.3479
26725W        W42194   9.036  15.520  14.185 -0.0827  0.4407  0.1006
26726W        W42195   0.209  16.949  14.401  0.2044 -0.1617 -0.0611
26727W        W42196   7.522   6.114  14.972 -0.2363  0.1182 -0.0160
26728W        W42197   7.021   7.005  14.436 -0.2402  0.1235  0.0745
26729W        W42198  17.278  12.617  14.546 -0.0654  0.1806 -0.0973
26730W        W42199   6.267   3.315   1.820 -0.0519  0.1570 -0.3277
26731W        W42200   7.809  14.245  12.726  0.1646 -0.1812 -0.0105
26732W        W42201   4.899  12.010   2.043  0.1082 -0.2405  0.2915
26733W        W42202  11.692   2.547  12.171 -0.2105  0.0478  0.4201
26734W        W42203  13.576  15.171   5.425 -0.0385  0.0858 -0.1279
26735W        W42204   2.029  16.154   4.979  0.0182  0.0946 -0.0172
26736W        W42205   8.738  15.633  11.852 -0.0397  0.0803  0.1743
26737W        W42206  15.793   8.073   1.251  0.2578  0.0091  0.0664
26738W        W42207  12.187  10.669  11.375 -0.1892  0.0618 -0.1292
26739W        W42208  10.891   5.351  12.064  0.1608 -0.0862  0.0472
26740W        W42209  18.369   0.017  11.869  0.0985  0.4021 -0.0568
26741W        W42210  13.428  10.196   2.627  0.0661 -0.0588 -0.0645
26742W        W42211   2.945  10.939   0.779  0.4104  0.2575  0.0249
26743W        W42212   2.513  16.708  13.765  0.1033  0.0082  0.1538
26744W        W42213  13.088   1.800   1.925  0.1496  0.1322 -0.0881
26745W        W42214  17.714  11.277  13.984 -0.3568  0.0112  0.2473
26746W        W42215  12.675  11.277  11.006 -0.3031  0.1342 -0.4284
26747W        W42216   6.079   2.766  13.744  0.0183  0.2875  0.2101
26748W        W42217   9.275  10.051   3.102 -0.0407 -0.0409  0.0894
26749W        W42218   1.318   8.047   3.697  0.1121 -0.1455  0.0189
26750W        W42219   3.081   5.666  14.397 -0.1591 -0.2378 -0.2907
26751W        W42220  15.829   1.985  13.138 -0.1345  0.3482 -0.1123
26752W        W42221   2.755  12.551  15.487 -0.0496  0.0735 -0.1502
26753W        W42222  12.099   0.526  13.435 -0.1089 -0.1235  0.0793
26754W        W42223   6.110  16.555  13.536  0.2265 -0.1838  0.0145
26755W        W42224  15.629  14.803   4.932  0.3096 -0.0905  0.0545
26756W        W42225   9.350   0.117   2.432  0.1499 -0.1172  0.2487
26757W        W42226  13.165  16.316   5.798  0.3031  0.1413 -0.0553
26758W        W42227  16.766   4.031   4.413 -0.0304  0.0640  0.2914
26759W        W42228   5.699   5.365  13.102 -0.0278 -0.2108 -0.0189
26760W        W42229   7.367   5.441   3.090 -0.3412 -0.1422  0.0196
26761W        W42230   7.926   4.370   1.173  0.0197  0.1384  0.0755
26762W        W42231   1.717  17.560   5.382  0.1476 -0.0984 -0.2671
26763W        W42232  15.110  15.005   2.558  0.0017  0.0038 -0.0561
26764W        W42233   0.051   0.096   3.052  0.1678  0.3839  0.5000
26765W        W42234   0.656   2.058   3.969 -0.0184  0.0529  0.0306
26766W        W42235   5.254   9.969   1.395  0.1564  0.1651 -0.2451
26767W        W42236   2.418  18.250  12.044  0.1401 -0.0995  0.2215
26768W        W42237   2.442   7.478   5.114 -0.1900 -0.6560  0.2371
26769W        W42238  17.653   8.341  13.682  0.2270  0.0693 -0.0053
26770W        W42239   6.319  16.376  11.026 -0.0848  0.2370 -0.0344
26771W        W42240   8.187  16.971   4.660 -0.0065 -0.0481  0.1323
26772W        W42241   5.921  17.795  10.901 -0.1002  0.1005  0.0536
26773W        W42242   0.217   2.843   5.121  0.0226 -0.1039 -0.4985
26774W        W42243  12.558   7.552   1.354  0.2385  0.1106  0.1182
26775W        W42244   1.421   2.416  14.416  0.0828 -0.1116 -0.0644
26776W        W42245  11.241  13.234   0.970  0.0704 -0.0089  0.1166
26777W        W42246  15.562   8.116   4.692 -0.2271  0.0329 -0.0616
26778W        W42247   7.116   9.273  14.282  0.0383 -0.0174  0.2945
26779W        W42248   3.425   5.205   2.515  0.0773  0.4007  0.1382
26780W        W42249  12.079  17.191  13.085  0.1544  0.0414  0.0948
26781W        W42250   1.306  10.554  10.602 -0.0060 -0.1351 -0.1094
26782W        W42251   2.463  16.221  12.150 -0.0608  0.1550 -0.1386
26783W        W42252   3.503   7.450   2.608  0.1017  0.2344  0.0046
26784W        W42253  15.466   5.880  13.998  0.2429  0.0547  0.0918
26785W        W42254  16.935   5.802   2.758  0.0357 -0.3939 -0.0318
26786W        W42255   9.365  12.785  13.399  0.0691 -0.1126  0.1769
26787W        W42256  15.208   3.518  11.030 -0.0801 -0.1521 -0.0895
26788W        W42257  16.609   8.325   4.854  0.1514 -0.1441  0.0415
26789W        W42258   8.229   7.833   0.476  0.0030 -0.1339 -0.1196
26790W        W42259   1.280  16.126  15.486  0.1029 -0.0618 -0.2866
26791W        W42260  14.611   4.349  13.220  0.2053  0.0551 -0.2343
26792W        W42261   9.291  13.059   5.248  0.2691  0.1293  0.1601
26793W        W42262   0.186   2.133  11.116  0.0101  0.1318 -0.2415
26794W        W42263   1.749   1.250  11.700  0.1048  0.0115  0.3361
26795W        W42264  14.230   3.446   0.291 -0.3543 -0.0710  0.4971
26796W        W42265   8.650  13.385   0.892 -0.2251 -0.0538 -0.1442
26797W        W42266  12.604  15.643  10.870  0.2072 -0.0569 -0.1320
26798W        W42267  14.533  12.960  12.622 -0.1618 -0.2545  0.1193
26799W        W42268  12.361   9.781   3.412 -0.1863 -0.0958 -0.1520
26800W        W42269   8.094   2.930  13.834 -0.4557  0.0354  0.0290
26801W        W42270   6.329  17.529  10.595 -0.0687  0.1124  0.1820
26802W        W42271   5.564   5.315  15.686  0.0965  0.1325 -0.0800
26803W        W42272  14.428   6.062   1.216  0.0281 -0.1887  0.4277
26804W        W42273  12.950   2.537   2.406 -0.1095 -0.3748 -0.1713
26805W        W42274  10.992   6.140   1.768  0.2635 -0.0494  0.2661
26806W        W42275  12.348  14.251  12.396  0.1909 -0.0361 -0.2807
26807W        W42276   3.043  10.593   3.090  0.2704  0.1628  0.2862
26808W        W42277  10.383   7.903  12.719 -0.1179 -0.1378  0.1292
26809W        W42278   3.365   7.886  12.388 -0.2080  0.0278 -0.0980
26810W        W42279   3.065  15.403  13.295  0.1555  0.1639 -0.1767
26811W        W42280   7.340  18.158  14.995 -0.1850  0.0198 -0.1318
26812W        W42281  14.051   6.387   3.378  0.0300 -0.0222  0.2406
26813W        W42282   0.743   2.048   0.029 -0.3024  0.0945  0.0508
26814W        W42283   9.445  12.258   0.995  0.2009  0.1965  0.0214
26815W        W42284  15.818   9.040  11.649 -0.4698 -0.2176  0.2767
26816W        W42285  16.316  11.633  10.960  0.2235 -0.1578  0.0067
26817W        W42286  14.468  18.128  11.871 -0.0876 -0.3964  0.1552
26818W        W42287   2.587   3.138   5.074 -0.2390 -0.2225 -0.0484
26819W        W42288  17.125   4.452   3.718 -0.1175 -0.0750 -0.2583
26820W        W42289   9.758  10.561   1.431  0.2917 -0.3379 -0.0901
26821W        W42290   2.245  16.210  14.074 -0.2051 -0.2074  0.5074
26822W        W42291   5.052   8.364  14.838  0.2044  0.0526 -0.1460
26823W        W42292   8.879   2.443  11.960  0.1789  0.0217  0.0216
26824W        W42293   4.407   0.653  14.518  0.1942  0.2441  0.0571
26825W        W42294  16.659  12.938  12.762 -0.1044  0.1306  0.1438
26826W        W42295  17.156   6.919  15.149  0.3214  0.0715  0.0690
26827W        W42296   2.104   7.964   3.263  0.3401  0.2082  0.5160
26828W        W42297  17.624  12.662   0.935 -0.0975  0.2365 -0.0165
26829W        W42298   7.464  13.703   1.636  0.0855  0.3193 -0.0496
26830W        W42299  13.747  11.662   2.121 -0.2327  0.0468  0.2361
26831W        W42300  14.124   5.580   2.702  0.0592  0.0165  0.0602
26832W        W42301  13.162   1.741  13.485  0.1516 -0.1220 -0.0277
26833W        W42302  13.125  14.367  13.618  0.3996  0.1510  0.0724
26834W        W42303  17.275   8.438  11.933  0.0286  0.2095  0.1473
26835W        W42304   3.653  15.618   5.400  0.2586  0.3383  0.0809
26836W        W42305  16.362   1.477   3.044 -0.2117 -0.1060 -0.0965
26837W        W42306  13.182  15.944  14.933 -0.1493 -0.1511 -0.0643
26838W        W42307  17.578   6.768   2.736 -0.3851 -0.2177  0.2781
26839W        W42308  10.042   3.185  10.810 -0.0587 -0.0283  0.0612
26840W        W42309   3.379   0.442   2.850 -0.0621  0.1692  0.1092
26841W        W42310   0.230  17.821   0.255 -0.1516 -0.4112  0.3991
26842W        W42311   0.694  11.792   1.571  0.0591  0.1270 -0.3154
26843W        W42312   3.095   4.085   5.442  0.0356 -0.0050 -0.3366
26844W        W42313  15.039  17.919  11.854  0.1800  0.0110  0.1111
26845W        W42314   4.323  14.636  12.893  0.0983  0.0258  0.1112
26846W        W42315   6.345   3.938   5.419 -0.0211 -0.1228  0.0422
26847W        W42316   6.536  16.734  12.259  0.2027 -0.0318 -0.0025
26848W        W42317  18.100  15.388   3.530 -0.1795  0.2025  0.1212
26849W        W42318  10.348   0.851  13.288 -0.0631  0.1531  0.2012
26850W        W42319  14.224   0.454  14.836 -0.1317  0.0519  0.5752
26851W        W42320   0.781   9.558   1.569 -0.0698  0.3836  0.1069
26852W        W42321  15.566   9.805   4.090  0.1823  0.2763 -0.0137
26853W        W42322  14.770   3.831  13.845 -0.1672 -0.0989 -0.0971
26854W        W42323   0.080  10.889  12.151 -0.3284  0.0699 -0.2467
26855W        W42324   8.297  13.002  13.743  0.3409  0.2109 -0.0700
26856W        W42325   8.583   3.039  14.536  0.3083 -0.0283  0.1750
26857W        W42326   2.725   1.256   1.704 -0.1990 -0.0515  0.0072
26858W        W42327  10.854   4.432   4.147  0.1014 -0.4356  0.0621
26859W        W42328   4.486  17.478   0.579  0.0818  0.3691  0.0408
26860W        W42329   8.004  16.604  12.979 -0.0166  0.2044 -0.0565
26861W        W42330  11.181  17.596  13.470 -0.0208  0.0127 -0.1715
26862W        W42331  17.027   7.033  10.627  0.1439  0.1545 -0.0318
26863W        W42332   4.574   6.349   1.108  0.3158  0.2664  0.2614
26864W        W42333   6.775  10.667   4.044 -0.1918  0.0223  0.0215
26865W        W42334  14.004   0.392   4.543 -0.3748 -0.1032  0.0501
26866W        W42335  10.714  16.324  12.857 -0.2380 -0.0265 -0.2373
26867W        W42336   6.145  15.173  13.766  0.0939  0.1200 -0.0915
26868W        W42337  12.840  15.474   1.580 -0.1841 -0.1748  0.1001
26869W        W42338  12.608  13.087  12.809  0.0309 -0.3768  0.3174
26870W        W42339  15.407  17.565   1.096 -0.0645 -0.3800 -0.0525
26871W        W42340   7.967   1.237  12.843  0.2205 -0.0717  0.0323
26872W        W42341  16.494  11.011  15.495  0.0174  0.0821  0.1537
26873W        W42342   3.965  14.733  14.335  0.0496  0.2109 -0.2332
26874W        W42343  13.961   7.541  11.376  0.0620 -0.0953 -0.2247
26875W        W42344   7.685   1.929   0.440  0.0713 -0.0857  0.2457
26876W        W42345   2.027   7.924  11.674  0.1347  0.1247  0.1009
26877W        W42346  10.153   3.180   0.302  0.2966  0.2000  0.1364
26878W        W42347  13.165   6.440  15.805  0.0860  0.0869 -0.1598
26879W        W42348  16.161  12.868  13.756 -0.2193  0.2644  0.0626
26880W        W42349  12.785  15.435   0.417 -0.1300  0.0265  0.0478
26881W        W42350   4.713   6.787   1.242 -0.1271  0.3146 -0.4234
26882W        W42351  13.251   4.069  14.648  0.0184 -0.1495 -0.1517
26883W        W42352   9.540  10.446  15.508  0.1949 -0.1258 -0.0661
26884W        W42353   8.663  10.827   1.533 -0.0763 -0.0463  0.3362
26885W        W42354   2.549  17.883   4.256  0.1101  0.1264  0.0245
26886W        W42355   4.239   5.670   1.292  0.1877  0.0301  0.0010
26887W        W42356   0.692   6.797   2.604 -0.1731  0.1401  0.0823
26888W        W42357  17.442   9.697   3.513 -0.1411  0.4202 -0.1377
26889W        W42358  14.315  13.404  13.859  0.1682 -0.1477  0.4065
26890W        W42359   0.391   9.922   4.973 -0.3152 -0.2516 -0.2184
26891W        W42360   1.161  15.175   4.525  0.2063 -0.1446  0.1783
26892W        W42361   5.189   7.671   3.120  0.0738  0.0370  0.2003
26893W        W42362   2.471   6.990  14.260 -0.1972  0.0264 -0.0842
26894W        W42363   2.916   0.879   2.601  0.0908 -0.2857 -0.0406
26895W        W42364   8.223  11.544  14.455  0.0856  0.0926 -0.0274
26896W        W42365  11.411  17.041   5.785  0.1534 -0.1709  0.0328
26897W        W42366   9.466  15.743   2.291 -0.1850  0.2008 -0.1460
26898W        W42367   4.574   3.259   2.999 -0.0373  0.0395 -0.3563
26899W        W42368  14.595   6.536  15.230  0.1439 -0.1374  0.4564
26900W        W42369   9.210   6.082  15.214  0.1215 -0.0489 -0.0659
26901W        W42370   4.613   3.758  15.166 -0.0354 -0.1269 -0.0298
26902W        W42371  17.834  16.163  15.228  0.3929 -0.1333  0.1268
26903W        W42372  15.525   1.734  12.841 -0.4185 -0.0453  0.1667
26904W        W42373   2.480  10.636  11.418  0.0963  0.1535  0.0756
26905W        W42374   1.430   8.080  12.621  0.0498 -0.4054  0.0903
26906W        W42375   5.372   2.514   4.583 -0.2609  0.0365  0.0744
26907W        W42376  10.663   8.238   5.853  0.0893 -0.1589 -0.1087
26908W        W42377   4.318  13.484   3.386  0.0694  0.0624 -0.0225
26909W        W42378  11.922  10.631  15.657  0.1545  0.1338 -0.0186
26910W        W42379  15.152  14.734   1.736 -0.0297  0.4694  0.1175
26911W        W42380  14.045  15.862   5.338  0.3064 -0.0502  0.0246
26912W        W42381   6.055  13.740   2.714  0.1150  0.6048 -0.1382
26913W        W42382  14.583   5.352  11.848 -0.1196  0.5774 -0.0575
26914W        W42383   3.705   0.771  11.230  0.2969 -0.1861  0.1977
26915W        W42384  18.140  17.644  10.868  0.1368 -0.2527  0.3689
26916W        W42385  11.874   0.351   2.402 -0.0164 -0.0814  0.0269
26917W        W42386   8.579   5.962   0.398  0.3351  0.3321 -0.1080
26918W        W42387   9.260   7.016   2.936 -0.0289  0.1960  0.0111
26919W        W42388  13.367   6.735   3.745 -0.0103  0.0448  0.1226
26920W        W42389  15.005  10.430   9.517 -0.2853 -0.0044  0.0254
26921W        W42390  12.480   6.639  11.446 -0.2139  0.2081 -0.3824
26922W        W42391   5.114   7.354   5.072  0.1950  0.0081  0.0483
26923W        W42392   3.058   4.724   3.688  0.0644  0.1478 -0.0343
26924W        W42393   5.327  10.438  12.990 -0.2574  0.0491  0.0156
26925W        W42394  18.155  15.426   1.377 -0.0978  0.2745 -0.0746
26926W        W42395  11.769  13.391  14.029 -0.0619  0.0329  0.1760
26927W        W42396   6.349   6.299   3.975 -0.0638 -0.0268  0.0052
26928W        W42397   0.211   0.173  15.404 -0.1141  0.1474  0.0731
26929W        W42398  14.267  16.041  12.497  0.2727 -0.2293 -0.5116
26930W        W42399  16.956   7.045   4.279 -0.1309  0.0201 -0.0503
26931W        W42400   2.154   3.288  13.120 -0.0097  0.0462 -0.1142
26932W        W42401   6.914  10.487   1.403 -0.1477 -0.1593  0.0505
26933W        W42402   2.490  10.914   2.041 -0.0430  0.3349 -0.1283
26934W        W42403  17.126   8.972   0.437 -0.1257 -0.1006 -0.4093
26935W        W42404   8.406  14.160  11.588  0.0897 -0.0558  0.1531
26936W        W42405  14.708  12.824  15.141  0.0416  0.1466  0.0996
26937W        W42406  10.803  18.348   0.626 -0.2304  0.0505  0.0273
26938W        W42407   0.818  11.159   9.259  0.1302  0.1324 -0.2658
26939W        W42408   5.027   5.529  14.154 -0.0198 -0.3645  0.1540
26940W        W42409   4.303   6.359   2.513  0.0720 -0.0770  0.1019
26941W        W42410   3.117  13.246   0.302 -0.0440 -0.0758 -0.1692
26942W        W42411   9.392  16.994   3.269  0.0627  0.0045 -0.3631
26943W        W42412  14.116   5.000  10.563 -0.1576 -0.0187 -0.2975
26944W        W42413  12.886   5.914  14.242  0.1181 -0.2306  0.0764
26945W        W42414  14.924  17.827   0.221  0.1290  0.2656 -0.0515
26946W        W42415   0.145   2.395  11.865  0.1167 -0.1839 -0.0020
26947W        W42416   2.816   2.160  12.792  0.1853 -0.5358 -0.2548
26948W        W42417  14.196  13.278   3.178  0.2483 -0.0650 -0.2148
26949W        W42418  16.890  18.112   5.685  0.1220  0.0693  0.0915
26950W        W42419   3.373  11.593   4.564  0.2270 -0.1718  0.0259
26951W        W42420  13.996   1.687   1.978 -0.0441  0.0028  0.0058
26952W        W42421  12.721   7.023   4.123  0.0477  0.0016  0.1008
26953W        W42422  14.094   5.506   1.276 -0.0709 -0.0285 -0.1373
26954W        W42423   7.025   9.963  11.438 -0.1462 -0.0012 -0.1616
26955W        W42424  15.534   0.401   2.509 -0.1235  0.1190  0.1805
26956W        W42425  11.624   4.898  15.125  0.0793 -0.2075  0.0117
26957W        W42426  17.890   2.355   4.452 -0.1159 -0.3976  0.2082
26958W        W42427   0.399   7.948  12.452  0.2022 -0.0766 -0.0154
26959W        W42428  17.510  17.929  13.948  0.1619  0.1970  0.1759
26960W        W42429   1.121   4.087   0.930 -0.2876  0.1290 -0.0734
26961W        W42430  10.555  14.641  10.940 -0.1832  0.0951  0.1941
26962W        W42431  12.393   5.321   5.056 -0.0133 -0.0101  0.0371
26963W        W42432   5.283   7.701   0.058  0.0101 -0.0595  0.0113
26964W        W42433   7.163  12.641   9.855  0.0648  0.0031  0.0431
26965W        W42434  11.501   3.200   2.195 -0.0684 -0.0117  0.0106
26966W        W42435   5.259  14.131  10.922  0.0123 -0.0099 -0.1282
26967W        W42436  13.192  18.035  15.086  0.0105  0.2676  0.0828
26968W        W42437  15.533   8.248   2.969 -0.0189 -0.1934  0.0882
26969W        W42438   4.859   3.050   0.505 -0.2268 -0.4037  0.2130
26970W        W42439  14.253  14.906   5.161  0.2254  0.0701  0.0364
26971W        W42440   8.921  12.647   1.910  0.1667  0.1487 -0.1026
26972W        W42441  17.292  13.935   4.901 -0.0514 -0.0755  0.0796
26973W        W42442   7.049   7.376   2.104  0.1327  0.1495 -0.2110
26974W        W42443   5.997   8.235   0.529 -0.0941 -0.1608 -0.1276
26975W        W42444   6.931   5.718   3.007 -0.2399 -0.2852 -0.1561
26976W        W42445  15.971   6.235  12.816 -0.0224 -0.3406 -0.2302
26977W        W42446   2.021   1.629  13.926  0.0915 -0.3053 -0.0962
26978W        W42447  17.868  10.011  10.626  0.4133  0.1812  0.0788
26979W        W42448   9.915   9.217  15.501  0.3664  0.1216 -0.4083
26980W        W42449  13.703  11.546  11.829 -0.0465  0.0329  0.1003
26981W        W42450   3.339  17.111  11.357  0.0578  0.0641 -0.0134
26982W        W42451  15.471  14.266  14.078  0.4708  0.1055 -0.0337
26983W        W42452  17.004  17.159   1.427 -0.0128  0.2858 -0.1527
26984W        W42453  17.226   9.251  13.011 -0.0810  0.0059  0.3598
26985W        W42454  11.811   9.148   9.844 -0.0899  0.1608 -0.2131
26986W        W42455   1.980   1.382   1.354  0.0556 -0.1353  0.1360
26987W        W42456   7.691  15.340   2.245 -0.1708  0.0105  0.0771
26988W        W42457   9.325  15.328   4.071  0.2997  0.1644  0.1406
26989W        W42458  16.413  17.328   5.591 -0.3983  0.3900 -0.1975
26990W        W42459  17.167  15.094   1.541  0.2074 -0.0923  0.3423
26991W        W42460   4.066  10.321  15.461  0.3277 -0.1690 -0.0998
26992W        W42461  16.432  15.502   1.943 -0.1953 -0.2446 -0.2135
26993W        W42462  12.475   0.423   4.043 -0.2288  0.4018  0.0512
26994W        W42463  17.383   5.204   1.007  0.0942  0.3165 -0.1266
26995W        W42464   8.041   7.395  13.698 -0.2488 -0.2201 -0.3678
26996W        W42465   0.437   4.167   1.809 -0.0837  0.2770 -0.2861
26997W        W42466   4.784   3.178   5.768 -0.1546 -0.6008 -0.1107
26998W        W42467   4.305   2.335   4.662  0.0383 -0.0977 -0.2321
26999W        W42468  15.733  18.403   3.555  0.0594 -0.1775  0.1278
27000W        W42469   4.548   4.480   1.393 -0.1881 -0.0397 -0.1143
27001W        W42470  12.937  10.443   2.459 -0.0691 -0.2837  0.0295
27002W        W42471  12.086   4.898  15.339 -0.1042  0.1685 -0.2388
27003W        W42472  15.051  11.294   3.040 -0.1467  0.3120 -0.2353
27004W        W42473   2.440  12.248  14.407  0.0210 -0.2145  0.1233
27005W        W42474  14.163  12.002   5.945 -0.0047  0.1698  0.0938
27006W        W42475   5.683  12.453   1.068  0.0219 -0.3433  0.0094
27007W        W42476  12.083  14.448   2.643 -0.0559 -0.1878 -0.2483
27008W        W42477   6.927   3.613  14.383 -0.2883  0.2530  0.0130
27009W        W42478   6.745   1.605   4.993  0.0442  0.4620  0.1807
27010W        W42479  18.293  13.877   1.868 -0.4025  0.1009 -0.0472
27011W        W42480   8.726  15.747  13.306  0.3797  0.0334 -0.1782
27012W        W42481  17.971  17.388   4.696  0.0644  0.0051 -0.0036
27013W        W42482   3.349   6.830   4.670 -0.1410 -0.0649 -0.1790
27014W        W42483   9.272   8.649   3.051 -0.0046  0.1017 -0.0457
27015W        W42484   3.738   0.974   1.254  0.0076  0.0626 -0.4006
27016W        W42485   6.412   8.047  13.146 -0.2419  0.0392  0.3281
27017W        W42486  18.076  14.036   4.567  0.3390 -0.0192 -0.1457
27018W        W42487   1.120  11.776   2.514 -0.2627  0.2882 -0.1630
27019W        W42488  10.354   1.072   5.762 -0.0523  0.0619  0.0745
27020W        W42489   3.739  12.334  13.676 -0.0503  0.0384  0.2313
27021W        W42490  11.160   4.241   1.239  0.1433 -0.0855 -0.0449
27022W        W42491  17.350  15.678  12.552  0.2197  0.0086 -0.0232
27023W        W42492   8.656  13.485   3.517 -0.3031  0.0189  0.1839
27024W        W42493  15.731   7.081   4.812 -0.1701  0.1211 -0.0944
27025W        W42494   1.145  15.270  14.574 -0.4018  0.0894  0.1252
27026W        W42495   6.063   7.770   3.314 -0.0572  0.0733  0.1886
27027W        W42496   3.072  12.665   4.973  0.0839 -0.2096  0.0999
27028W        W42497   1.555   0.947   3.306 -0.0032 -0.2499 -0.1819
27029W        W42498  13.075   0.825  13.160 -0.0989 -0.2097  0.0282
27030W        W42499  10.578  13.197   2.073  0.2811  0.0028  0.0096
27031W        W42500   1.057   2.120   5.240 -0.0238  0.2606 -0.1598
27032W        W42501  11.689   0.596   1.922  0.4019  0.0989  0.2477
27033W        W42502  11.446  13.431  11.909 -0.1529  0.2785 -0.2676
27034W        W42503   3.297  15.817   4.827  0.3459  0.1319  0.1447
27035W        W42504   7.816  13.858  15.854 -0.1363 -0.0612 -0.3425
27036W        W42505  13.900  10.915  10.914 -0.0603  0.1080  0.2704
27037W        W42506  11.481  12.023  12.626  0.1659  0.3723 -0.1663
27038W        W42507   9.112   9.097   0.158  0.4690  0.1739 -0.1540
27039W        W42508   6.408   3.687  12.379  0.0534  0.3090  0.1290
27040W        W42509  12.594  12.696  13.922  0.0502  0.2314 -0.0172
27041W        W42510  17.998  13.865  14.399 -0.0428  0.0560 -0.0042
27042W        W42511  10.298   5.171   1.055  0.1225 -0.0474  0.1806
27043W        W42512  14.170  17.307   3.781 -0.0465  0.2587 -0.2441
27044W        W42513   9.851  18.480  12.202  0.0161  0.1458  0.1254
27045W        W42514   0.308  15.989   9.998  0.2141 -0.0299 -0.1312
27046W        W42515   3.091   8.542   4.415 -0.0792 -0.1105 -0.1819
27047W        W42516  11.012  12.194  13.160 -0.0875  0.0156 -0.2629
27048W        W42517   5.371   8.602   0.823 -0.0018 -0.0398  0.2249
27049W        W42518   2.525   8.531  14.182  0.0464 -0.0558  0.3812
27050W        W42519  17.218   6.804   2.377 -0.1080  0.0589  0.1744
27051W        W42520   5.381  18.297  12.901  0.1106 -0.0249 -0.1054
27052W        W42521  16.362  11.045   0.475 -0.1204 -0.1044  0.0018
27053W        W42522  15.462   6.381   0.308  0.0490  0.1578  0.0180
27054W        W42523   3.611   2.171  11.548  0.2126  0.0978  0.0754
27055W        W42524   4.166   7.982   1.121 -0.0689 -0.0867 -0.1933
27056W        W42525   7.395   2.237   0.150 -0.1797 -0.2570  0.2268
27057W        W42526  11.551   7.116  10.475  0.0470 -0.1707  0.0316
27058W        W42527   9.065   2.019  13.078 -0.1154 -0.1428 -0.2697
27059W        W42528   8.066   7.077   4.718 -0.0428 -0.2496  0.1059
27060W        W42529  17.775  16.029  13.181 -0.0358 -0.2243 -0.1771
27061W        W42530  14.208   9.519  14.863  0.0426  0.1589  0.0781
27062W        W42531  17.567  13.011   2.467  0.1318 -0.1596  0.0146
27063W        W42532   1.415   8.542   0.722  0.1473 -0.0880 -0.0336
27064W        W42533   2.121  15.394   4.020  0.0695  0.1757  0.2426
27065W        W42534  14.676  17.328   0.667 -0.0378  0.1447 -0.0766
27066W        W42535  15.927  14.171   3.709 -0.2608 -0.2872 -0.0060
27067W        W42536   8.896   1.616   3.996  0.1690 -0.0162  0.0695
27068W        W42537   5.344  12.828   3.396  0.0577  0.0595  0.1612
27069W        W42538   6.553  11.017   2.169 -0.0671 -0.2670  0.4141
27070W        W42539   3.528  11.991   0.035 -0.1583  0.4330 -0.1376
27071W        W42540   9.755  12.462   1.361  0.2675  0.1768 -0.1172
27072W        W42541   3.029  12.595  10.728  0.1725  0.0035  0.2921
27073W        W42542  11.096  16.225  12.157 -0.0667 -0.0164  0.2141
27074W        W42543   0.227   8.415  10.472 -0.0742  0.0668 -0.1481
27075W        W42544   4.593   3.351  11.430  0.0577 -0.0788  0.1178
27076W        W42545   0.971  10.984   5.601  0.1699 -0.2338 -0.0187
27077W        W42546  17.646  18.145  13.550 -0.0530 -0.0689 -0.0588
27078W        W42547   3.712  17.216   1.275  0.1058  0.3625  0.3813
27079W        W42548  10.037   0.754  11.365 -0.4482  0.1428  0.0141
27080W        W42549   2.838   3.167   4.154 -0.0730 -0.0571  0.1854
27081W        W42550  15.015   4.742  13.693 -0.0279 -0.0510 -0.1303
27082W        W42551  14.565   0.047   0.701 -0.2355  0.1032  0.1752
27083W        W42552   0.344   1.055  13.728  0.1208  0.0078 -0.0335
27084W        W42553   5.733   6.962   2.128 -0.0213  0.2333  0.2000
27085W        W42554   4.095  18.273   3.795 -0.0779  0.3625 -0.1109
27086W        W42555   0.928   1.171  11.135 -0.0081 -0.0205  0.1208
27087W        W42556  11.378   2.118   2.777  0.1067  0.1007  0.2638
27088W        W42557   0.332  11.143  13.069 -0.0245  0.3604  0.0220
27089W        W42558  12.978   2.395  14.094 -0.0470 -0.4135 -0.0500
27090W        W42559   8.670  11.323  14.485 -0.3192  0.1645 -0.1385
27091W        W42560   9.592  16.345   3.065 -0.3713  0.0518 -0.1510
27092W        W42561  12.604   8.965  13.701  0.0931  0.2257  0.1412
27093W        W42562   3.356   6.949  14.314  0.0196 -0.1721 -0.0142
27094W        W42563   9.862  15.329  13.795 -0.1573 -0.0932 -0.1200
27095W        W42564   2.620   0.093  13.477  0.0088 -0.4491 -0.0132
27096W        W42565   7.006  16.199   4.533 -0.1438 -0.0922  0.0754
27097W        W42566   0.833  16.635   3.681 -0.2636 -0.1123 -0.0447
27098W        W42567   6.079   6.479   5.200 -0.1562  0.2040 -0.1087
27099W        W42568  17.823   0.883  12.172 -0.0454  0.0096  0.0699
27100W        W42569   0.827   4.323   2.660 -0.2357 -0.0115 -0.0134
27101W        W42570  15.136  12.169  11.362 -0.1175 -0.2250  0.1147
27102W        W42571  17.557   5.178  10.770 -0.0491  0.2361  0.2522
27103W        W42572   1.934  15.083   2.273 -0.1371  0.0995 -0.0675
27104W        W42573   2.297   8.986   2.311  0.0237  0.0675  0.0626
27105W        W42574   6.784   3.219   2.478  0.1203 -0.0884 -0.2668
27106W        W42575  10.346  17.421   5.062  0.0802  0.0202 -0.0187
27107W        W42576   1.481   9.094   4.036  0.0034 -0.0470  0.2944
27108W        W42577  11.736   9.283   4.686 -0.0302  0.3021  0.2621
27109W        W42578   9.127  15.041   4.381  0.1748 -0.2936  0.1400
27110W        W42579  12.864   2.858   9.838 -0.4296  0.1177 -0.4568
27111W        W42580  10.897   3.560   2.558 -0.0329  0.2226  0.0580
27112W        W42581   3.339   3.544   2.689 -0.2334  0.0484 -0.1359
27113W        W42582   9.829  17.060  14.716  0.0498  0.0620 -0.3604
27114W        W42583   6.088   1.776   4.782  0.0951 -0.2234  0.2562
27115W        W42584   0.666  16.318  13.367  0.0764  0.0301 -0.0880
27116W        W42585  10.424  11.328  11.219 -0.0353 -0.1443  0.0459
27117W        W42586  12.223   7.753  14.692 -0.0466  0.0169  0.0151
27118W        W42587  14.185  17.027  15.699 -0.0517  0.0328  0.1565
27119W        W42588   5.093  10.104  11.902 -0.1922  0.2083  0.2355
27120W        W42589  16.239   4.581  12.996 -0.0146 -0.0587 -0.1670
27121W        W42590  14.736   4.048  15.251 -0.2944  0.3699 -0.2414
27122W        W42591  13.763   6.873  15.756 -0.1053  0.0346  0.2366
27123W        W42592  11.836   3.295   1.182  0.0987 -0.3390  0.0280
27124W        W42593  13.854  15.562   3.238  0.3753 -0.1472  0.0202
27125W        W42594  11.762  15.087   2.081 -0.0342 -0.1479  0.0411
27126W        W42595   3.930   3.675   3.564  0.0412 -0.2589 -0.2511
27127W        W42596  18.045   1.198   2.320 -0.2531 -0.0459 -0.0967
27128W        W42597  16.111   4.968  15.398 -0.0584  0.0911 -0.1466
27129W        W42598  16.984   8.730  12.193 -0.1858  0.3605 -0.1105
27130W        W42599   9.347   1.711  10.905  0.0975  0.1986 -0.2483
27131W        W42600   3.608  12.318  15.458  0.1865 -0.0724 -0.0175
27132W        W42601   6.132   8.196  11.525  0.0660  0.5607 -0.1032
27133W        W42602  11.481  14.240   2.761 -0.2724  0.3215 -0.1372
27134W        W42603   8.731  12.348  15.592 -0.3939 -0.1731  0.1517
27135W        W42604  14.516   9.469   0.267  0.3507  0.3225 -0.2234
27136W        W42605   8.674   1.285  14.532  0.1041  0.0340  0.3523
27137W        W42606   4.823   9.495   1.832 -0.1189  0.0767 -0.0991
27138W        W42607   0.067  13.420  13.210 -0.0192  0.3496  0.0021
27139W        W42608  18.175  13.904  11.325  0.0595 -0.1023 -0.1697
27140W        W42609  13.175   2.780  15.829  0.1294 -0.3190 -0.4299
27141W        W42610  17.692   0.798  11.238 -0.0758  0.0773 -0.0812
27142W        W42611   3.099  15.456   3.538 -0.0437  0.1437 -0.1310
27143W        W42612  10.838   6.760  12.524  0.1666 -0.1527 -0.2110
27144W        W42613  10.685  16.742   5.200  0.2507 -0.0149 -0.0835
27145W        W42614  15.194   1.391  12.516 -0.0823 -0.1080  0.4912
27146W        W42615   5.452  14.054   4.348 -0.1324  0.0805  0.1619
27147W        W42616  13.039  10.982   1.222  0.1761  0.1649 -0.1669
27148W        W42617  13.338  17.072  14.930 -0.1667 -0.0587  0.0330
27149W        W42618  13.826   5.567   2.140  0.3287  0.2595  0.4570
27150W        W42619  12.941  17.835  14.627  0.1438 -0.2545 -0.0123
27151W        W42620   8.976  12.249  14.639  0.2429 -0.2027 -0.2756
27152W        W42621  18.259   4.929   4.520 -0.0923 -0.0144 -0.1048
27153W        W42622   9.635  17.183   5.703  0.0218  0.0896 -0.0735
27154W        W42623   9.607  17.677  12.805 -0.3393  0.2238 -0.1180
27155W        W42624  18.124  12.193  15.331  0.0108 -0.1995 -0.1416
27156W        W42625   2.185  12.420   6.009 -0.2558  0.4618 -0.4565
27157W        W42626  15.910   0.197  14.829  0.1672 -0.1979 -0.1313
27158W        W42627   9.254   0.496  15.575  0.1703 -0.1719  0.1035
27159W        W42628   5.813  14.853  15.613 -0.0212 -0.1190 -0.1249
27160W        W42629   9.729   3.148  10.426 -0.1048 -0.2433  0.0459
27161W        W42630  10.312  15.904   4.688  0.0994  0.0640  0.0533
27162W        W42631  13.582  14.864  10.626  0.0433  0.2309  0.0555
27163W        W42632   4.765   5.049  13.507  0.0167 -0.0801 -0.2441
27164W        W42633  16.820  17.490   5.019  0.2078  0.2715  0.1267
27165W        W42634   3.006   4.504  12.484  0.4018  0.0247  0.0699
27166W        W42635   0.892  16.727  11.964  0.1808 -0.0390  0.0640
27167W        W42636   0.858  13.184   5.186  0.0098  0.1451 -0.0541
27168W        W42637   6.215  12.977   4.605  0.2186 -0.2221  0.1651
27169W        W42638  16.511   9.871   9.938 -0.0606  0.1763 -0.0353
27170W        W42639  14.286  18.160  10.662 -0.1739  0.0373 -0.0613
27171W        W42640   0.116  14.378  14.628 -0.2033 -0.2615 -0.1034
27172W        W42641   6.284  12.608   2.081 -0.0861  0.0391 -0.0861
27173W        W42642   6.110  12.720  13.506  0.1564 -0.0352  0.0587
27174W        W42643  10.592   1.084  13.918  0.0172  0.2483 -0.1035
27175W        W42644   7.816  11.597   5.294 -0.1826 -0.2762  0.0601
27176W        W42645   7.917   8.094  11.119 -0.0372  0.0548 -0.0486
27177W        W42646  10.024   4.199  12.368  0.2490 -0.1419 -0.1586
27178W        W42647   4.181  10.882   4.254  0.1891  0.5043 -0.1965
27179W        W42648   0.277  12.558  11.671 -0.0392  0.1758 -0.1622
27180W        W42649   0.209   7.445  12.170 -0.0398  0.0339  0.0811
27181W        W42650   2.455  15.184  15.842 -0.0095  0.1581 -0.0137
27182W        W42651   6.421   0.147  13.957 -0.0196  0.2428 -0.0822
27183W        W42652  17.325   8.093  10.333 -0.4214 -0.2951  0.0133
27184W        W42653  13.088   0.311  11.180  0.1104  0.1043  0.2111
27185W        W42654  12.951   9.214  13.413 -0.1072 -0.0495  0.0141
27186W        W42655   6.124   5.962  13.344  0.2192  0.1306  0.1361
27187W        W42656  10.253   5.189   1.957  0.0703 -0.0565 -0.1640
27188W        W42657  11.028   3.561  15.350  0.1795 -0.0092  0.1211
27189W        W42658   0.757  13.986   4.876  0.0580  0.1030  0.1251
27190W        W42659  13.430  15.695  11.366  0.0834 -0.2227 -0.2500
27191W        W42660  18.358   3.214  15.099  0.1934 -0.2229 -0.1711
27192W        W42661  17.647   6.647  14.997  0.0187  0.0622 -0.0600
27193W        W42662  16.121  14.984   1.675  0.0658 -0.2294  0.2047
27194W        W42663  11.897   3.585  15.900  0.3967 -0.2939  0.0685
27195W        W42664   8.505   1.837  11.479  0.0692  0.0921  0.0079
27196W        W42665  11.416   8.916   2.433  0.2217  0.0680  0.0264
27197W        W42666   5.628   1.943   1.386 -0.0538  0.3514 -0.0608
27198W        W42667   4.920  17.240  12.246 -0.1324 -0.0959 -0.0421
27199W        W42668  16.725   6.780  10.312 -0.2719  0.0458 -0.0070
27200W        W42669   3.577  13.989  12.446 -0.0261  0.0183  0.1240
27201W        W42670   8.937  14.813   5.085  0.1357 -0.1248 -0.0089
27202W        W42671  15.093   5.832  13.072 -0.2451 -0.1287 -0.1260
27203W        W42672  10.045  13.889  12.374 -0.0520  0.2042 -0.4402
27204W        W42673  15.149  14.981   0.878 -0.1028 -0.0923  0.0083
27205W        W42674   7.033  17.606  11.690 -0.1098  0.0183  0.1345
27206W        W42675   9.001  10.621  14.846  0.3068  0.0689  0.3460
27207W        W42676  15.230   9.164  15.680  0.0053  0.0129  0.0576
27208W        W42677   9.746  16.899   3.653  0.1610 -0.1151  0.3123
27209W        W42678   5.251  10.420  12.436  0.0900  0.2455  0.0286
27210W        W42679   2.858   2.223   1.555  0.1179 -0.1877 -0.1907
27211W        W42680   2.479  16.945  15.608  0.4765  0.1029  0.2574
27212W        W42681   6.683  13.211   1.391 -0.1792  0.1386 -0.0767
27213W        W42682  14.773  15.603   3.634 -0.1869 -0.1359 -0.3246
27214W        W42683   6.397   8.531  11.216  0.0061 -0.1915  0.1561
27215W        W42684   0.333   9.077  14.397  0.2391 -0.0914  0.0533
27216W        W42685   7.336   4.444   2.665 -0.0752  0.3010 -0.0594
27217W        W42686  11.859  17.910  14.753 -0.0644  0.2785  0.1299
27218W        W42687   0.194   2.631  11.027  0.1237  0.2554  0.0282
27219W        W42688  17.808  16.889  10.579  0.0296  0.2546  0.1393
27220W        W42689  13.330  11.494   2.982 -0.2661  0.0636  0.1321
27221W        W42690  16.039   8.325   2.777 -0.0497  0.0999 -0.2324
27222W        W42691  17.134   6.614   0.530  0.2017 -0.1334  0.1498
27223W        W42692   7.283  13.626   0.350 -0.1575 -0.1921 -0.0688
27224W        W42693   5.085  12.256   1.616  0.1742  0.0331  0.0433
27225W        W42694  10.154  18.200   1.517 -0.0473  0.1395  0.0645
27226W        W42695   7.562  12.720  15.292 -0.0279  0.3620 -0.0466
27227W        W42696   0.540   7.156   5.017 -0.0674  0.1752 -0.3572
27228W        W42697  10.025   2.582  11.606  0.0073 -0.2491 -0.0174
27229W        W42698   8.365  11.295  14.912 -0.1023  0.1089  0.2436
27230W        W42699  14.394   8.093   4.650 -0.1344  0.1778  0.0676
27231W        W42700   7.536   4.342  12.825  0.1949 -0.0300  0.1286
27232W        W42701  11.906  17.734  10.863 -0.0405 -0.1842  0.2905
27233W        W42702   8.143   4.664   0.803  0.3349  0.0973  0.1078
27234W        W42703   8.201   6.117   4.069 -0.1493  0.0384 -0.0827
27235W        W42704  11.151   5.671  11.246  0.1222  0.0521  0.2671
27236W        W42705  12.321  14.928   3.900 -0.0534 -0.1078 -0.2807
27237W        W42706  15.394   3.222   0.276 -0.0358  0.2065 -0.1505
27238W        W42707   9.662  13.979   1.430 -0.0081 -0.0880  0.0524
27239W        W42708   9.398  13.239   3.954 -0.0390  0.1211  0.1355
27240W        W42709   3.464  12.441  13.306 -0.0516  0.0262  0.0098
27241W        W42710   9.086  11.331  14.107 -0.2514  0.0298 -0.3153
27242W        W42711   8.134   0.039   3.124  0.0433 -0.1131  0.2513
27243W        W42712   3.221   6.874  15.419  0.2769 -0.5908  0.0119
27244W        W42713  11.748   6.245   2.771 -0.3574 -0.2354  0.2363
27245W        W42714  18.103  10.735  14.154 -0.0278  0.0323 -0.0213
27246W        W42715   6.730   8.047   4.009 -0.1091  0.0589 -0.0755
27247W        W42716  12.278   9.724   0.212 -0.0845  0.0743  0.2061
27248W        W42717   8.459   5.442  14.294 -0.1820 -0.0578 -0.1312
27249W        W42718   2.338   8.597   5.504  0.1642  0.0734 -0.0160
27250W        W42719  14.331   8.493  14.404 -0.1376  0.0860 -0.0054
27251W        W42720   2.056  13.286  11.021 -0.1203 -0.1081 -0.3442
27252W        W42721  12.892  14.126   5.542 -0.2715  0.2270  0.1552
27253W        W42722  14.681  15.705   4.230 -0.1798 -0.2528  0.2133
27254W        W42723  17.094  18.435  12.441 -0.1518 -0.1136 -0.1233
27255W        W42724   8.160  15.008  11.630 -0.1685  0.2205 -0.2283
27256W        W42725   3.390   9.089  14.979  0.0883 -0.0093  0.1571
27257W        W42726  15.050  14.739  15.835 -0.0402  0.2687  0.1684
27258W        W42727   4.783   0.990  12.359  0.1311  0.0473 -0.0141
27259W        W42728  11.465   7.847   4.383  0.0232  0.0912 -0.2005
27260W        W42729  10.719  15.603   0.742  0.1414  0.1224 -0.0552
27261W        W42730  14.874   4.972  15.104  0.0676  0.1063 -0.0400
27262W        W42731  12.879   4.010  13.068  0.1423 -0.0749 -0.1352
27263W        W42732   7.204  16.057  11.947  0.2722  0.1467 -0.4029
27264W        W42733   3.574   2.328  15.454  0.0520 -0.4005  0.0824
27265W        W42734  14.155  18.211   5.950  0.0135 -0.1780 -0.0287
27266W        W42735   5.322   0.236   2.718  0.0608  0.1959  0.1295
27267W        W42736   3.084   0.149  11.099 -0.1507  0.1716  0.1005
27268W        W42737  17.151  18.478   5.207  0.0196  0.2532  0.1299
27269W        W42738   3.369   2.979  13.707  0.0231  0.0056  0.0635
27270W        W42739  14.820   4.199   2.210 -0.3830 -0.1778 -0.1215
27271W        W42740   7.138   6.535  13.314 -0.1151  0.0169  0.1997
27272W        W42741   9.185   0.219  12.304 -0.3854  0.1382  0.1134
27273W        W42742   4.492   2.175   1.912  0.0026 -0.0001 -0.1537
27274W        W42743   9.596  13.112  12.325  0.2986  0.1063  0.3886
27275W        W42744   0.583   7.880   0.213  0.0580  0.2930  0.2240
27276W        W42745  14.967  18.218  12.782  0.1097 -0.1999  0.1097
27277W        W42746   4.420   6.359   3.004 -0.0727  0.0808  0.0151
27278W        W42747  15.184  16.011  11.576  0.0049 -0.0098 -0.0564
27279W        W42748   8.694   2.708  12.331  0.2767 -0.0265  0.0443
27280W        W42749  10.769   1.953   1.743 -0.0060 -0.1006 -0.6100
27281W        W42750  11.795   5.780  13.185  0.1865 -0.0592 -0.1357
27282W        W42751  12.534   9.396  10.529 -0.0519 -0.1074 -0.3045
27283W        W42752   1.504   0.752  12.783  0.1114 -0.1228  0.2090
27284W        W42753  15.820  10.999   0.704 -0.2092  0.0781  0.0754
27285W        W42754   1.772  12.483  11.717  0.1254  0.0526  0.2584
27286W        W42755  11.966   9.700  15.197  0.0800 -0.2706  0.1974
27287W        W42756   5.163   1.428   5.798 -0.1460  0.4012  0.1029
27288W        W42757   9.798  14.060   4.927  0.1375 -0.2120 -0.0608
27289W        W42758   1.960  15.798  12.857  0.1306 -0.1226  0.1293
27290W        W42759   5.629   7.122   5.338  0.1221 -0.0994  0.0104
27291W        W42760  16.314   7.090  10.099 -0.0588  0.0084  0.3025
27292W        W42761   9.155  10.266  14.123  0.1845 -0.3416 -0.0241
27293W        W42762   1.531   6.786  14.408  0.1768  0.0107 -0.0698
27294W        W42763  17.823   6.672  10.644 -0.2457  0.0386  0.3009
27295W        W42764  14.549   5.161  14.776  0.0401 -0.0738 -0.3867
27296W        W42765   5.090   0.437   2.276 -0.3541 -0.1825 -0.0813
27297W        W42766   5.493   4.205  12.303 -0.0582  0.1797 -0.0730
27298W        W42767   4.593   6.860   2.357  0.0568 -0.3170  0.2560
27299W        W42768   0.448   7.149   2.895  0.0703  0.1423  0.2112
27300W        W42769  14.306   3.693  13.752 -0.0177  0.0925 -0.0729
27301W        W42770   9.753  13.901  13.982 -0.0630  0.2769 -0.2225
27302W        W42771  15.928  18.164  14.719 -0.3315 -0.1057 -0.2004
27303W        W42772  12.117   0.819  12.009 -0.0149  0.0594 -0.2666
27304W        W42773  14.006  11.007  13.524  0.0004  0.0960 -0.0878
27305W        W42774   1.536   9.603   4.643  0.1975 -0.0768 -0.1113
27306W        W42775   9.777   1.614  15.123  0.1221 -0.0093  0.1246
27307W        W42776   5.806   1.288   3.438  0.2804  0.2209 -0.0224
27308W        W42777  13.117  18.018  12.959 -0.4366 -0.0545  0.0539
27309W        W42778  16.571   9.681  14.712  0.1842 -0.3552  0.2513
27310W        W42779  14.810  10.259  15.747 -0.0434 -0.2564 -0.0406
27311W        W42780   6.218  18.173  13.563 -0.2814  0.0738 -0.0223
27312W        W42781   1.192  15.712  15.835  0.0471 -0.0119  0.1036
27313W        W42782   9.190  17.149   4.215 -0.0137  0.0923  0.0159
27314W        W42783  10.107   2.112   1.179  0.1242 -0.3232  0.0687
27315W        W42784  17.685  17.035   4.740  0.1550  0.1084  0.0600
27316W        W42785   7.680   6.402   1.697 -0.0341 -0.3732  0.2259
27317W        W42786   9.678  12.325  13.372 -0.1210  0.1464  0.0364
27318W        W42787  16.528  15.365  14.952 -0.0427  0.1819 -0.1384
27319W        W42788  10.089   0.590   2.200  0.0371  0.1970 -0.1905
27320W        W42789  16.090  12.672  15.683 -0.0942 -0.0656 -0.0069
27321W        W42790   5.546   9.488   5.324 -0.1368 -0.2222  0.1885
27322W        W42791   2.480   7.993   5.243 -0.0274  0.1884 -0.0756
27323W        W42792  11.141   0.412  15.230 -0.3215  0.0637 -0.0691
27324W        W42793  12.235  17.589   1.335 -0.0391  0.0389  0.3200
27325W        W42794  14.450   0.037  13.306  0.1330  0.0335  0.0539
27326W        W42795   2.676  10.285   4.029 -0.1104 -0.1976 -0.2767
27327W        W42796  14.326  14.943   4.316 -0.2141  0.0275 -0.0852
27328W        W42797  15.160   9.879  12.799 -0.1762  0.0842  0.0173
27329W        W42798  12.002  12.032   1.016  0.0828  0.0529  0.0029
27330W        W42799  16.969  18.066  14.099 -0.3564  0.0529  0.2574
27331W        W42800   5.637   3.375   4.527  0.1740 -0.1574  0.0460
27332W        W42801   3.343   5.922   1.836 -0.3296  0.2211  0.4352
27333W        W42802   1.668   8.748   4.909  0.3215  0.1572  0.1185
27334W        W42803   1.633   9.429   2.975  0.0623  0.1534  0.0342
27335W        W42804   7.093   7.327   0.651 -0.1400  0.1442  0.0608
27336W        W42805  11.261  15.180  14.084  0.0885  0.1149  0.0736
27337W        W42806   2.797   7.931  12.560 -0.3298  0.1206 -0.0002
27338W        W42807  15.259   4.442  11.820  0.1185 -0.1068 -0.4155
27339W        W42808   7.070   2.292  11.150 -0.0312  0.0415  0.3179
27340W        W42809   5.230   5.633  12.277 -0.0227  0.0747 -0.1242
27341W        W42810   7.618  18.416   3.201 -0.2357 -0.0660 -0.0706
27342W        W42811   1.071   8.087  10.787 -0.1368  0.0223 -0.0641
27343W        W42812  11.306   6.424   3.719  0.0607 -0.0906  0.0036
27344W        W42813   4.653   6.492  14.401  0.0361  0.3152  0.0742
27345W        W42814   5.718   8.331  11.806 -0.0741  0.1293  0.2143
27346W        W42815   3.557  16.100   0.287  0.0405 -0.1743 -0.2071
27347W        W42816  12.973   6.777  11.389  0.0472 -0.0879 -0.1002
27348W        W42817  12.921  16.365   1.437 -0.0187 -0.0891  0.1917
27349W        W42818  15.808   3.267   1.257  0.0090 -0.1883  0.0265
27350W        W42819   9.367   3.440   4.762  0.1656  0.0227  0.1928
27351W        W42820   3.022   5.911   4.904  0.0311 -0.0855  0.2575
27352W        W42821  11.321  12.743  11.005  0.0485 -0.0452 -0.0715
27353W        W42822   6.501   5.538  10.400 -0.1093 -0.1058  0.1072
27354W        W42823   6.094  18.437  14.925  0.3430  0.1756 -0.0906
27355W        W42824   9.887   4.814   1.031  0.1664 -0.3399 -0.2876
27356W        W42825   1.482   3.471   2.178 -0.0139  0.2003 -0.2154
27357W        W42826  11.276   2.910   0.766 -0.2032 -0.1105  0.2011
27358W        W42827  11.448   1.870   2.347  0.0451  0.2761 -0.0807
27359W        W42828   5.647   7.874  14.204 -0.1957 -0.2273 -0.0874
27360W        W42829   2.274  10.027  12.287  0.1998  0.2073  0.0534
27361W        W42830   7.135  12.837   1.703  0.3992  0.2599  0.2858
27362W        W42831   4.865  13.940   1.499  0.3107 -0.0666  0.1018
27363W        W42832   9.707   3.918   4.513  0.2685  0.0861 -0.1011
27364W        W42833   8.746   7.386  12.089 -0.1059  0.0498  0.2466
27365W        W42834   9.610   9.417   2.438  0.0863  0.2510 -0.1861
27366W        W42835  18.392   2.091   0.171  0.1900  0.3067 -0.0443
27367W        W42836  11.016  13.246  12.147  0.0033 -0.0408  0.1432
27368W        W42837   0.832  14.249   1.600  0.1571  0.1297  0.0435
27369W        W42838   8.243   6.903  14.013 -0.2600  0.0458 -0.2376
27370W        W42839  17.958  16.468  11.795  0.2622 -0.1244 -0.3333
27371W        W42840   6.333  12.815   1.520 -0.1513 -0.0245 -0.2893
27372W        W42841   7.366   5.743  11.808  0.1544  0.4343 -0.0053
27373W        W42842  16.889  15.991  15.765 -0.1971  0.0094  0.1604
27374W        W42843   2.463   3.351   2.309  0.0840 -0.0670 -0.0132
27375W        W42844   7.911  18.231   2.173 -0.0018 -0.0344  0.0311
27376W        W42845   7.595   7.021  15.851  0.1199 -0.2261 -0.0612
27377W        W42846   0.761   6.009   5.069  0.3158  0.2935 -0.1068
27378W        W42847  11.119   4.762   4.383 -0.1446 -0.1795  0.0889
27379W        W42848  14.105   2.541   2.708  0.3300 -0.1639 -0.0231
27380W        W42849   9.628   1.386  11.963 -0.1507  0.1034 -0.1641
27381W        W42850   8.688   5.348  15.140 -0.0462 -0.0077 -0.1752
27382W        W42851   5.497   5.888  10.650  0.0841  0.3887  0.0451
27383W        W42852   6.927  10.545  12.132 -0.0326  0.2364 -0.1243
27384W        W42853  14.690  14.325  14.686  0.0762 -0.0558  0.1550
27385W        W42854   2.656   5.862   2.892  0.3294 -0.0509  0.0562
27386W        W42855   0.298   0.301  15.873 -0.0198 -0.0479  0.1667
27387W        W42856  15.405  10.876   0.971  0.4128 -0.2227  0.2452
27388W        W42857  17.856  15.048   3.795 -0.0218 -0.0558  0.0240
27389W        W42858  12.125   6.706  14.089  0.0312  0.1048  0.1664
27390W        W42859  13.968   7.737   0.798 -0.2972  0.3694  0.1862
27391W        W42860   4.733  12.909   2.693  0.1961 -0.0740 -0.1630
27392W        W42861   5.071  18.176   4.300  0.2949  0.3314  0.1799
27393W        W42862   5.966  13.616  12.205  0.3389 -0.0990  0.1962
27394W        W42863   7.151  18.122  12.998  0.3638 -0.1697 -0.1009
27395W        W42864  10.738   1.873  13.113  0.1581  0.5571  0.2147
27396W        W42865  10.383   2.074  10.563 -0.0584 -0.0145 -0.2598
27397W        W42866  11.423  18.482  13.117 -0.6502  0.0007  0.0743
27398W        W42867  13.175   4.486  11.517  0.0110  0.0292 -0.2931
27399W        W42868  17.165   1.443  11.317  0.0771  0.0596 -0.1047
27400W        W42869   5.400   1.290  13.657  0.0749 -0.1026 -0.0079
27401W        W42870   9.984  11.351  11.671 -0.1253 -0.0776 -0.3571
27402W        W42871   9.904   9.816   2.523 -0.0764  0.1443 -0.2847
27403W        W42872  17.248  10.893   0.808  0.1040  0.1378  0.1975
27404W        W42873   9.770  17.525  11.069 -0.0155 -0.1571  0.1559
27405W        W42874   5.647  16.282  13.499 -0.1813  0.1025 -0.1872
27406W        W42875  10.010  14.393  12.383  0.4694  0.0118  0.0083
27407W        W42876  15.468   9.276  10.954  0.0589  0.1889 -0.0701
27408W        W42877  17.414  12.118   1.582 -0.0124 -0.0713  0.2615
27409W        W42878  13.495  14.932   2.383  0.0217 -0.1541  0.3270
27410W        W42879   8.889   8.188   3.646  0.1440 -0.0600  0.0168
27411W        W42880   8.720  13.193   5.717  0.2057  0.3091 -0.2044
27412W        W42881  11.070  12.939  11.753  0.0964 -0.0240 -0.0983
27413W        W42882   1.200   2.805   4.515 -0.0203  0.2470  0.1199
27414W        W42883   2.900   1.601   4.049  0.0846  0.1132 -0.0175
27415W        W42884   0.403   5.360   2.630  0.1091 -0.0735 -0.0619
27416W        W42885   6.483   0.232  15.757 -0.2759  0.0621 -0.0604
27417W        W42886   5.265  18.438   2.308 -0.0992 -0.0438 -0.0836
27418W        W42887   0.129   2.339  10.545  0.0912 -0.1902 -0.0733
27419W        W42888  18.301   8.174   5.343 -0.1948  0.1041 -0.2036
27420W        W42889   8.961  17.401   3.793  0.0082 -0.0608  0.1008
27421W        W42890  14.427  11.151  11.347  0.0528 -0.0209 -0.0501
27422W        W42891   6.782   1.269   0.616  0.0003  0.0558  0.2112
27423W        W42892   2.344   6.758  14.701 -0.1241 -0.1434 -0.1102
27424W        W42893  11.455   7.669   1.404 -0.3229 -0.0830  0.0346
27425W        W42894  14.959   5.809  12.595  0.3012 -0.0153  0.1502
27426W        W42895  11.787  10.966   4.661 -0.1737  0.0246 -0.0215
27427W        W42896   2.183   7.645   0.532  0.0093 -0.0185 -0.2593
27428W        W42897   2.960   7.667   1.332  0.1275  0.1304 -0.0494
27429W        W42898  17.498   2.192  11.803 -0.0851  0.2090 -0.2633
27430W        W42899  12.850  15.959  14.485  0.1748 -0.0993  0.0983
27431W        W42900   1.921   6.747   2.409 -0.3050  0.0872  0.4041
27432W        W42901   4.929   8.442   3.711  0.2876 -0.0630 -0.0111
27433W        W42902  12.369  16.837  13.880  0.0535 -0.1697 -0.3321
27434W        W42903  17.143   0.978   3.750 -0.1627 -0.2240 -0.1729
27435W        W42904  14.248  15.086   9.816  0.1262  0.1424  0.3031
27436W        W42905   6.515  13.409  14.649 -0.1201  0.2646  0.1429
27437W        W42906  16.037   1.675   4.374 -0.0714  0.0173  0.1920
27438W        W42907   0.967   9.179   1.890  0.3285  0.5077  0.0308
27439W        W42908   1.102  17.427  15.282  0.3439  0.0804  0.0515
27440W        W42909  14.697   5.129   3.617  0.0884  0.2495 -0.3783
27441W        W42910  17.764   0.842  14.525 -0.0756  0.0614 -0.0758
27442W        W42911  13.543   1.138  10.091  0.1012 -0.0045 -0.1810
27443W        W42912  15.879  11.432   0.431 -0.2582  0.0138  0.3284
27444W        W42913  11.143   1.706   3.752  0.0782  0.0893 -0.1353
27445W        W42914   0.831   8.855  15.272  0.0799 -0.3590 -0.1383
27446W        W42915  12.456  17.556   3.325 -0.1404  0.0851  0.0813
27447W        W42916  18.254  13.521   3.163 -0.1756 -0.0249  0.0581
27448W        W42917  17.756  10.497  14.433 -0.1742 -0.0530 -0.4414
27449W        W42918  12.834  16.243  11.209  0.4230 -0.0562 -0.1023
27450W        W42919   2.969   1.582   1.095  0.3659 -0.2518 -0.0150
27451W        W42920  15.789   9.643   3.119 -0.1109 -0.2369  0.1268
27452W        W42921  10.230   9.031   3.407 -0.0965 -0.0569  0.0150
27453W        W42922  18.320   1.537   2.010  0.0377 -0.1788 -0.3793
27454W        W42923   7.211  14.255   2.763 -0.2986 -0.3123 -0.1400
27455W        W42924  15.537   9.221   3.298 -0.0644  0.3051  0.1738
27456W        W42925   7.302   1.043   5.858  0.0859  0.1742 -0.1325
27457W        W42926   3.693  11.862   4.913 -0.1157 -0.0772  0.3486
27458W        W42927  15.821  17.986   4.382  0.0584  0.0287 -0.0136
27459W        W42928  16.253   7.116  11.133 -0.1347  0.0041  0.0398
27460W        W42929  15.079  13.708  15.750 -0.0601  0.4146  0.4245
27461W        W42930  10.274  11.463   3.816 -0.0377 -0.0944  0.2346
27462W        W42931   6.174  13.314   4.242  0.0479 -0.1301 -0.0463
27463W        W42932   8.331  13.731  15.085  0.1737 -0.2703  0.0612
27464W        W42933  18.189  10.892   0.438  0.0343 -0.1456  0.2883
27465W        W42934  12.821   6.934   2.535 -0.0566  0.2115 -0.2149
27466W        W42935  13.983   6.029  14.594  0.0566 -0.1087  0.0979
27467W        W42936  16.307   3.551  14.592 -0.2489 -0.2731 -0.0299
27468W        W42937  17.576  12.122  12.267 -0.0020 -0.1415 -0.0281
27469W        W42938   8.906  11.736   2.541  0.2686 -0.1655  0.0585
27470W        W42939  14.110   7.819   5.609  0.0830  0.0975  0.1462
27471W        W42940   3.327   2.804  15.557 -0.0015  0.0266 -0.0955
27472W        W42941  14.304   9.113   2.155 -0.0501  0.0806  0.2407
27473W        W42942   0.905  11.673  15.707 -0.4461  0.4961  0.0209
27474W        W42943  12.090  12.642  15.068 -0.1210 -0.0850 -0.3338
27475W        W42944   2.057   1.802   2.223  0.2049  0.2063 -0.0048
27476W        W42945  16.802   1.332   0.019  0.1840 -0.0613  0.1619
27477W        W42946   8.374   3.882  15.709 -0.1349 -0.2571  0.0273
27478W        W42947   6.874  15.713   0.420 -0.0607  0.0656  0.0458
27479W        W42948  11.561   2.523   4.343 -0.1161 -0.0684 -0.0326
27480W        W42949   5.093   2.166   0.569 -0.1061  0.2413  0.1376
27481W        W42950  18.152   5.930   1.115 -0.0286  0.0849 -0.0129
27482W        W42951  13.150  11.546  14.427  0.3303 -0.1103 -0.2646
27483W        W42952   2.179   2.622  14.128 -0.0357 -0.1616 -0.3235
27484W        W42953   1.798  11.092   1.264 -0.3103 -0.0499 -0.0711
27485W        W42954   7.116   9.521   1.677 -0.0182 -0.0405  0.0835
27486W        W42955   1.844   5.441   0.982 -0.4320 -0.1829  0.0179
27487W        W42956   4.587  11.998  13.460 -0.1226 -0.1626 -0.0605
27488W        W42957   1.731  16.471   1.999 -0.0666  0.0527  0.3210
27489W        W42958  17.845  17.723  14.282 -0.0337  0.1047  0.4922
27490W        W42959  11.428   9.981   0.236  0.3304 -0.0895 -0.2148
27491W        W42960   2.520   7.990  11.275 -0.0388  0.2254 -0.1729
27492W        W42961   8.410  16.729  12.623  0.0792 -0.0621 -0.0350
27493W        W42962   0.164   1.977   0.870 -0.0835 -0.1098  0.0863
27494W        W42963   1.767  16.141   0.867  0.1116 -0.4864 -0.2419
27495W        W42964   1.662  12.166  11.308  0.3762  0.2618 -0.2206
27496W        W42965   8.808   8.465  11.963  0.0555  0.0450 -0.0925
27497W        W42966   8.213  17.686   2.016 -0.2025  0.1771  0.3025
27498W        W42967   7.235   7.148  12.427  0.1269  0.0187 -0.0537
27499W        W42968   8.688   1.210   3.264 -0.0665 -0.1667  0.1006
27500W        W42969   5.914   8.235   3.692  0.1779  0.1140  0.2443
27501W        W42970  14.542  11.334   3.526 -0.0300  0.0414 -0.1093
27502W        W42971   3.541   4.910   3.391 -0.0470 -0.0150 -0.0736
27503W        W42972  11.619  14.890  13.841  0.1968 -0.1964 -0.3472
27504W        W42973  13.474  15.416   3.529  0.4817  0.0214 -0.0687
27505W        W42974   8.182  10.643  12.908 -0.1344 -0.0061  0.1175
27506W        W42975  15.714   1.954  15.273 -0.3524 -0.1996 -0.0473
27507W        W42976  11.580   2.039   3.571  0.0268  0.2471 -0.0452
27508W        W42977  16.955  17.271   2.575 -0.0811 -0.4045  0.1435
27509W        W42978  13.160   6.663  13.184 -0.1980 -0.0493  0.3484
27510W        W42979  11.093  14.970  11.566 -0.4110 -0.1253 -0.0408
27511W        W42980   3.471   8.511  15.251  0.0537  0.0930 -0.0625
27512W        W42981   3.139   1.791  13.925 -0.0103  0.1614 -0.1810
27513W        W42982  13.298  14.941  14.861 -0.0530 -0.2187  0.0819
27514W        W42983  13.762   7.864  13.414 -0.1016  0.0451  0.0541
27515W        W42984   4.458   5.968   5.406 -0.0846  0.1210  0.0884
27516W        W42985   6.158  10.953  14.000  0.1445  0.1096 -0.2443
27517W        W42986   9.820   4.874  12.972  0.2004  0.3739 -0.2452
27518W        W42987  18.007   2.780   5.142  0.1631  0.0968 -0.0115
27519W        W42988  17.442   5.583   3.376 -0.0602 -0.2888  0.0248
27520W        W42989   5.657  16.791   1.608  0.0666  0.3486  0.2152
27521W        W42990  17.453   9.606  11.314 -0.1489 -0.1367  0.1559
27522W        W42991   6.528   7.449   0.480 -0.0333  0.2892 -0.1794
27523W        W42992   6.637   2.414  10.967  0.1947  0.2281  0.2781
27524W        W42993   7.608  14.186   4.737 -0.0394  0.1350  0.0018
27525W        W42994   8.150   2.961   2.362 -0.0499 -0.0436 -0.2822
27526W        W42995  12.706  17.868   1.432  0.3550 -0.3020  0.3394
27527W        W42996  12.901   4.518  15.782  0.0015  0.2485 -0.1515
27528W        W42997   9.064  12.257  12.204  0.2236  0.1259 -0.4018
27529W        W42998   2.641   9.780  12.048  0.0261 -0.2675  0.1547
27530W        W42999   9.281  15.309   2.192 -0.0514 -0.0532  0.1308
27531W        W43000   6.318   4.598   6.059  0.0062  0.1861  0.1490
27532W        W43001   8.927  10.768   2.525 -0.1105  0.0916  0.1135
27533W        W43002  17.523   6.865  13.544 -0.1666 -0.4493  0.0044
27534W        W43003   6.657   2.885  15.278 -0.0050 -0.0672  0.0338
27535W        W43004   6.528  15.342   3.060 -0.0514 -0.2871  0.0505
27536W        W43005   5.776   9.131  12.439 -0.0372  0.1874 -0.2398
27537W        W43006  17.049  16.803   2.503  0.0431  0.2005  0.2156
27538W        W43007  16.176  17.795  14.371 -0.1327 -0.3585 -0.2081
27539W        W43008   1.101   6.726  14.718  0.0241  0.2352  0.1131
27540W        W43009  12.778   5.373   4.745  0.1381  0.1814 -0.1504
27541W        W43010   7.520   6.116  15.456 -0.0015  0.2679  0.0990
27542W        W43011   6.963   9.628  13.899  0.0079  0.0369  0.0167
27543W        W43012  11.099  16.853  12.814  0.2201  0.1940 -0.2808
27544W        W43013  16.397   3.255  14.215  0.0350  0.1777  0.0035
27545W        W43014  10.038  18.381  14.836 -0.1297 -0.2538 -0.0272
27546W        W43015  10.553   3.531   2.194 -0.3123  0.0775 -0.1911
27547W        W43016   1.788  16.659  12.499  0.0179 -0.0369  0.0319
27548W        W43017  13.872   8.646  14.616 -0.1867  0.0257 -0.0621
27549W        W43018  13.173  16.609  15.085 -0.2694 -0.2287  0.1518
27550W        W43019   6.742  17.673   2.591 -0.1770  0.1638  0.1266
27551W        W43020   3.400   0.137   1.645  0.0799 -0.3587 -0.1059
27552W        W43021   0.886   3.525  11.724  0.0504  0.1611  0.4390
27553W        W43022  15.728   6.456   0.716  0.0625 -0.1598  0.1356
27554W        W43023   5.918  14.920   4.617 -0.1952 -0.1471  0.4259
27555W        W43024  18.376   3.894  15.768 -0.2260  0.2641  0.1735
27556W        W43025  12.556  15.745  11.933 -0.1938  0.0553 -0.1165
27557W        W43026   2.775   3.703  12.042  0.6320 -0.2735 -0.2079
27558W        W43027  16.799   2.611  15.370  0.0175  0.3879 -0.1803
27559W        W43028   3.077   9.319  13.449 -0.0610 -0.1738  0.0116
27560W        W43029  15.925   7.754   0.028  0.1606 -0.0289 -0.1278
27561W        W43030  17.800   1.163   1.330  0.0649  0.0013 -0.0481
27562W        W43031  18.355   1.617  15.029  0.1039 -0.1634 -0.1709
27563W        W43032   2.966   0.772  14.670  0.0090 -0.0465  0.1807
27564W        W43033   9.572   5.014   0.686  0.0627 -0.4979  0.0614
27565W        W43034  17.904   2.671   5.699 -0.3122 -0.1081 -0.2530
27566W        W43035   2.278  16.389  12.710  0.0224 -0.2065 -0.0959
27567W        W43036   9.956   2.821  13.921  0.3743 -0.1977 -0.2274
27568W        W43037  10.706   1.890   5.605 -0.0028  0.1814 -0.1973
27569W        W43038   9.698   8.038   0.796  0.3085 -0.0363  0.0032
27570W        W43039  12.750   8.028   0.701 -0.0898 -0.1715  0.0237
27571W        W43040  10.418  11.824   2.202 -0.0704 -0.2478  0.1498
27572W        W43041  14.948  13.962  11.557 -0.1033 -0.0289  0.2525
27573W        W43042   8.569  12.164   0.636 -0.0552  0.0457  0.1158
27574W        W43043  13.224   5.275   1.194  0.1090 -0.1765 -0.2419
27575W        W43044   6.057  12.438  12.653  0.1906 -0.0936  0.1398
27576W        W43045   9.984  18.038   2.120  0.0853 -0.1864  0.0880
27577W        W43046  14.581   7.010  12.110  0.0267  0.2397 -0.0077
27578W        W43047  17.653  17.323   3.440 -0.0419  0.1905 -0.0050
27579W        W43048  14.347   4.256   4.916 -0.0244 -0.1401  0.0142
27580W        W43049  16.058  15.483   3.232  0.2019 -0.0754  0.0460
27581W        W43050  17.439  12.175   2.782 -0.0073  0.2031  0.1843
27582W        W43051   3.145   7.167   1.370 -0.0801  0.2069  0.3315
27583W        W43052  12.506  18.174  11.285 -0.2716 -0.0679  0.3013
27584W        W43053   3.853  13.858  11.977  0.1386  0.1294  0.0437
27585W        W43054   6.761  17.512  13.828 -0.2022 -0.0443 -0.1938
27586W        W43055  10.755  13.797  11.938  0.0240 -0.0410 -0.0457
27587W        W43056  15.616  18.299  12.738  0.1319  0.1236  0.0507
27588W        W43057   1.385   0.860   0.278  0.1147  0.0585 -0.0885
27589W        W43058  13.201   1.531  14.638 -0.0280 -0.0814  0.2150
27590W        W43059  17.747  14.614  13.994  0.3177 -0.0163 -0.1675
27591W        W43060   2.858  17.405   1.702  0.4171  0.0179  0.2071
27592W        W43061  10.579   3.760  15.524  0.1161  0.0393  0.0909
27593W        W43062   4.044   0.416   1.094 -0.0834  0.2194 -0.3459
27594W        W43063   4.676   8.610   5.394 -0.1243  0.0418 -0.3671
27595W        W43064   2.985  14.038   5.146 -0.3379 -0.0342 -0.3627
27596W        W43065   4.981  17.009   1.341 -0.0553  0.1322 -0.3505
27597W        W43066   9.601   6.402  11.633 -0.2324 -0.0112  0.0350
27598W        W43067   0.639   9.544   4.658  0.0971 -0.1160 -0.1019
27599W        W43068  14.016   0.855  12.240 -0.1565 -0.0418  0.0519
27600W        W43069  10.856  14.591  14.765  0.0529  0.0705 -0.1706
27601W        W43070   3.475  18.355   0.584 -0.2404  0.1983 -0.1805
27602W        W43071   6.410  13.357   1.806 -0.1345  0.1861 -0.3525
27603W        W43072   7.010  10.184  10.161  0.0355 -0.4325 -0.3682
27604W        W43073   8.652   9.962  11.447  0.2499  0.1103 -0.0755
27605W        W43074   4.817  14.332   5.215 -0.1392  0.2132  0.2279
27606W        W43075   0.999  17.735   3.169  0.0488  0.1892 -0.0070
27607W        W43076  18.126  16.893   2.468 -0.0801  0.0870 -0.0586
27608W        W43077   9.968  13.702  13.122 -0.2571 -0.1840  0.0787
27609W        W43078   4.627   5.510   0.475  0.2994  0.2358 -0.0049
27610W        W43079  12.792   2.090  11.667 -0.1180 -0.2113  0.5251
27611W        W43080  14.517  14.504   4.219 -0.2506 -0.1800 -0.3360
27612W        W43081  12.059  12.309  13.189  0.0399 -0.0367 -0.0390
27613W        W43082   8.688   1.112   3.872 -0.0779  0.4357 -0.0187
27614W        W43083  14.304   0.612  13.814  0.2251 -0.1160 -0.0610
27615W        W43084  13.973  10.307  12.135 -0.0807  0.0271  0.1905
27616W        W43085  13.477   4.110   3.931 -0.3288 -0.2809  0.0029
27617W        W43086  17.415   5.902   2.560 -0.1657 -0.0814  0.0576
27618W        W43087  12.741  11.429   5.260 -0.1490  0.0870 -0.2313
27619W        W43088   6.814   6.159   2.261  0.1461 -0.0137  0.0623
27620W        W43089  16.431   7.356  14.572  0.0352  0.4000  0.1345
27621W        W43090  12.406   4.368  10.993  0.1413  0.4824 -0.0378
27622W        W43091  12.486  12.141  11.278  0.3224 -0.0518 -0.2224
27623W        W43092  16.140   7.072  15.458 -0.1251  0.3738  0.0113
27624W        W43093  11.327  13.923   4.559  0.0619  0.0409 -0.0876
27625W        W43094  17.502  15.042  11.105 -0.0069 -0.2020 -0.1660
27626W        W43095   8.288   1.604   4.234 -0.2561  0.0549  0.1670
27627W        W43096  17.919  18.058  11.287 -0.0096 -0.1205 -0.0652
27628W        W43097  17.195  16.993  11.869  0.1023 -0.1782 -0.0134
27629W        W43098  17.128   7.569   4.145 -0.3584 -0.1367 -0.1566
27630W        W43099  15.348  13.548   2.758 -0.3115  0.1083  0.2679
27631W        W43100  17.547  13.017   5.664 -0.1748  0.3817  0.0059
27632W        W43101   3.364   8.758  13.457 -0.1893  0.0075 -0.0743
27633W        W43102  11.079   3.848  13.193  0.0295  0.1139 -0.0502
27634W        W43103   7.394   5.673  15.698  0.1394  0.1943  0.0953
27635W        W43104   2.052   0.666   4.471  0.0799 -0.0303 -0.4841
27636W        W43105   3.992  11.326  15.446  0.0631  0.0143  0.0262
27637W        W43106   5.490  10.139  14.773 -0.1688 -0.0051  0.2746
27638W        W43107   3.585   0.851   5.615 -0.1903  0.0792 -0.1246
27639W        W43108   6.156   1.616   4.255 -0.4657 -0.0357  0.0130
27640W        W43109   9.197  18.008  12.943 -0.1432 -0.1023 -0.0230
27641W        W43110  14.849   1.018  14.514  0.1763 -0.1883  0.0442
27642W        W43111  11.669  18.366  15.582 -0.0219 -0.1970  0.2365
27643W        W43112   4.060   3.024   2.287 -0.2140 -0.0114 -0.0020
27644W        W43113  17.273  13.982   2.855  0.0971 -0.0311 -0.6452
27645W        W43114   1.159   3.091   4.960  0.0425  0.1009  0.1330
27646W        W43115   2.709   2.615  14.343  0.5147 -0.2020  0.0714
27647W        W43116  16.357  16.232   4.505  0.0717 -0.1265  0.1827
27648W        W43117  12.991  14.219  15.009  0.0246 -0.0976  0.1433
27649W        W43118   5.112   9.849  11.477  0.1969 -0.0363 -0.0247
27650W        W43119   9.395   7.006   2.425  0.2055  0.1324 -0.1512
27651W        W43120  14.790   5.731  12.118  0.2356 -0.3353  0.0641
27652W        W43121  13.398  16.793  12.086  0.1178 -0.2907  0.2783
27653W        W43122  13.124  18.192   5.029 -0.0982  0.0641 -0.1687
27654W        W43123  16.674   4.100  13.580 -0.3539  0.0956 -0.0297
27655W        W43124   8.957  17.645  15.386 -0.0983 -0.1074 -0.3677
27656W        W43125   6.157   9.098   1.649  0.1886  0.2296  0.2479
27657W        W43126   2.797  11.477  11.535  0.0521 -0.4250 -0.0147
27658W        W43127  13.761   2.430   1.391  0.0329  0.0571  0.1368
27659W        W43128   4.477  12.472  15.814 -0.1182 -0.0497 -0.2782
27660W        W43129  11.955  14.112  13.466 -0.2128 -0.1354 -0.0743
27661W        W43130   2.373   9.187  15.731 -0.0601  0.0791  0.1603
27662W        W43131   1.901   1.643   0.395 -0.1724  0.0425  0.0928
27663W        W43132   5.351   6.740   4.229 -0.0120 -0.1455 -0.1879
27664W        W43133   3.851  18.394   5.595 -0.1187  0.2437  0.2492
27665W        W43134   5.988  15.628  14.701 -0.1217 -0.2015  0.0437
27666W        W43135  17.017   7.077  13.621 -0.1842 -0.0170  0.3245
27667W        W43136  10.365  12.828   1.705 -0.1085 -0.0839 -0.1902
27668W        W43137   0.355   5.099  12.005  0.0132 -0.0402 -0.4418
27669W        W43138  17.973  16.518  10.157 -0.3266  0.1881  0.0771
27670W        W43139   6.767   0.096   3.585 -0.1666  0.1791  0.0151
27671W        W43140   6.403   2.374   1.986  0.1022  0.1808  0.0413
27672W        W43141   3.265   8.307   5.142  0.1355 -0.1280  0.1262
27673W        W43142   3.412  16.023   2.665  0.0181 -0.0079 -0.1475
27674W        W43143  11.557   4.624   5.310  0.0291 -0.2758  0.0602
27675W        W43144   3.319  17.478   0.424  0.1778  0.0902 -0.0169
27676W        W43145  11.779  10.428  11.084 -0.2673 -0.4017 -0.1673
27677W        W43146  13.100   6.166  12.469  0.2231 -0.8327  0.0283
27678W        W43147   6.386   8.083  12.592  0.3546  0.2019 -0.2231
27679W        W43148   3.063   8.374   2.932  0.0803  0.3381  0.0926
27680W        W43149  13.910  10.190   0.577 -0.1407  0.0698  0.2079
27681W        W43150   1.939   3.404   2.401  0.1060  0.1865  0.0303
27682W        W43151  15.243   6.501  14.064 -0.2134  0.1077 -0.1731
27683W        W43152  13.778   5.613  14.824 -0.1334 -0.0170 -0.0640
27684W        W43153   0.936   9.179   2.971  0.1682 -0.1744  0.1430
27685W        W43154  16.064  11.637   1.838 -0.2204  0.1768  0.0697
27686W        W43155   2.786   1.447  14.039 -0.1878  0.0039  0.1220
27687W        W43156  10.661   0.640  14.805 -0.1686  0.1012 -0.1064
27688W        W43157   0.911   7.127  12.515  0.2397 -0.1808  0.4606
27689W        W43158  14.624  11.456   1.695 -0.1231 -0.1294 -0.1417
27690W        W43159   0.497  18.389   1.613  0.0047 -0.2683 -0.0778
27691W        W43160   4.392  11.195   3.415  0.0553 -0.1678 -0.3842
27692W        W43161   0.454  12.150  11.920 -0.1777  0.1345  0.2499
27693W        W43162   2.722  16.639   5.533  0.0812 -0.0190 -0.1375
27694W        W43163  12.451   9.850  11.285 -0.0358  0.0465  0.0147
27695W        W43164  15.843   1.327  11.594  0.1750 -0.1418  0.1684
27696W        W43165   4.413   5.065   5.046  0.2566 -0.0243  0.1193
27697W        W43166  10.961  13.454  11.645 -0.1550  0.0831 -0.0049
27698W        W43167   5.134   6.550  12.414  0.2046  0.3179  0.3470
27699W        W43168  11.844   4.776   3.812  0.0115 -0.1588 -0.1173
27700W        W43169   6.756  15.091  11.887 -0.0129  0.0689  0.4255
27701W        W43170   4.730   7.654   4.255  0.3444  0.0084 -0.0314
27702W        W43171   8.906  11.794   0.385 -0.1794  0.1330 -0.4171
27703W        W43172  17.652  12.181   1.983 -0.1126  0.2653  0.1114
27704W        W43173  14.198  17.134   0.760 -0.0972 -0.2763 -0.1109
27705W        W43174  14.408   9.763  15.756 -0.1424  0.1734  0.0532
27706W        W43175   0.249   6.360   3.307  0.1021  0.0214  0.3273
27707W        W43176   7.708   8.414  12.384 -0.5195  0.1194  0.0716
27708W        W43177  16.280  10.501   1.290 -0.0834  0.3614  0.2259
27709W        W43178   6.209   7.875   2.839  0.1670  0.0694 -0.3123
27710W        W43179  14.807   0.250   5.567 -0.1444  0.3974  0.3135
27711W        W43180  16.695   4.896  10.701  0.1568 -0.3745  0.1430
27712W        W43181   5.615   7.907  13.702  0.0420 -0.0868 -0.0640
27713W        W43182  11.826   2.961   3.976  0.0773  0.0584 -0.0334
27714W        W43183  12.842   5.748  12.066 -0.3317 -0.1301  0.0657
27715W        W43184   5.627  11.004  11.890 -0.0680 -0.0124 -0.1981
27716W        W43185   4.925   9.602   4.844  0.0234 -0.1915  0.0431
27717W        W43186  11.074  13.364  15.097 -0.0364  0.0441  0.1177
27718W        W43187  16.398   5.027  11.456 -0.0713  0.0380 -0.1921
27719W        W43188  11.940   9.548   3.611 -0.0020 -0.0331  0.1643
27720W        W43189   0.909  15.501  13.112 -0.0439 -0.1541 -0.4447
27721W        W43190   9.275   5.783  11.937  0.1742 -0.2538  0.1230
27722W        W43191  15.360   6.366  12.478  0.1211  0.3511  0.1662
27723W        W43192   6.456   0.257   4.934  0.0918 -0.2018  0.1838
27724W        W43193   8.538   7.175   3.412 -0.2512 -0.1411 -0.1755
27725W        W43194   0.125   1.245   3.156 -0.2277  0.1916  0.0745
27726W        W43195   2.740  11.154   4.552 -0.2606 -0.0580  0.0484
27727W        W43196   1.094   9.760  14.634  0.1979  0.2654  0.0695
27728W        W43197  18.374   3.910  12.694  0.0886 -0.0556  0.0481
27729W        W43198   1.839  14.384   0.976 -0.0637  0.2400 -0.1013
27730W        W43199   3.122  10.573   3.932  0.0501 -0.0289 -0.4046
27731W        W43200  11.002  14.213  12.162  0.3608 -0.1640  0.0018
27732W        W43201  15.485   4.122   1.625  0.0269  0.2359  0.0979
27733W        W43202   7.349  16.308   2.307  0.0498 -0.2454 -0.0352
27734W        W43203   5.578   7.183   4.003  0.0567 -0.2557  0.1661
27735W        W43204  11.083   0.196  10.208  0.0194  0.0789  0.2869
27736W        W43205   8.260  16.052   2.510  0.1991  0.0690 -0.0965
27737W        W43206   9.285   5.857  10.924 -0.3847 -0.2117 -0.0486
27738W        W43207   5.891   2.825   0.315  0.0552 -0.1146 -0.0276
27739W        W43208  13.725   9.363  14.876 -0.2155  0.2159 -0.1133
27740W        W43209   1.472  16.274   3.380 -0.0398  0.5204  0.1263
27741W        W43210  15.268   9.572  14.978 -0.0819  0.0886  0.2313
27742W        W43211  14.480  16.439   3.428  0.0572 -0.4005  0.3099
27743W        W43212   7.402   5.767   5.091  0.1412 -0.0739  0.1139
27744W        W43213   3.007  17.722  11.275  0.0702 -0.1064 -0.0914
27745W        W43214   0.516  12.617  13.463 -0.0129  0.1446  0.2099
27746W        W43215  17.129  16.242   3.234 -0.1144  0.0490  0.0004
27747W        W43216   8.130   6.527   3.094 -0.0431  0.0635  0.0727
27748W        W43217  10.736   5.723   3.215 -0.3509 -0.1748 -0.2151
27749W        W43218  13.174  15.712   0.191 -0.2015 -0.0406  0.1083
27750W        W43219  18.460   1.550   2.490 -0.1519  0.0369 -0.1295
27751W        W43220  12.889   6.621   3.535 -0.0355  0.0676 -0.0447
27752W        W43221   3.918  12.164   0.410 -0.1974 -0.0647 -0.0525
27753W        W43222  17.687  13.459  15.605  0.1922  0.0444 -0.2014
27754W        W43223   0.442  16.315   2.058 -0.0473  0.3660  0.0747
27755W        W43224  11.740  16.016  11.644  0.0273  0.2767  0.0804
27756W        W43225  14.242  12.732  10.316  0.0576  0.2675 -0.1024
27757W        W43226   0.084  11.273  13.470  0.5038 -0.1430  0.0401
27758W        W43227   6.222  10.576  11.448 -0.0479 -0.0686 -0.0413
27759W        W43228  15.943   9.708  13.774 -0.0447  0.6531 -0.2571
27760W        W43229  17.898  13.939   2.742  0.2278 -0.1166  0.0596
27761W        W43230   6.628   1.085   3.186 -0.1199  0.2333 -0.0800
27762W        W43231  18.435  13.168   3.980  0.0176  0.0875 -0.0315
27763W        W43232  14.178   2.366  13.865  0.3611  0.3153 -0.0924
27764W        W43233  15.127   3.928   1.275 -0.0637  0.2063 -0.1390
27765W        W43234   7.614   4.790   1.233  0.0913  0.1379 -0.3094
27766W        W43235  14.184  12.722   3.180 -0.0580 -0.2996 -0.1410
27767W        W43236   6.909   6.636   5.956 -0.0379 -0.0616 -0.2306
27768W        W43237  13.791   2.262   3.918  0.0372 -0.1124 -0.0163
27769W        W43238   3.496   7.147   0.224 -0.2846  0.1768 -0.2727
27770W        W43239   0.752  12.975  12.903 -0.0618  0.1955 -0.0828
27771W        W43240  10.790  16.487   0.831  0.1062 -0.2010 -0.1172
27772W        W43241   7.426  11.492   0.199  0.1882 -0.1571 -0.0896
27773W        W43242  15.692  16.152   2.509  0.0393 -0.1768 -0.0360
27774W        W43243   2.077   6.186  13.930 -0.1771 -0.0606  0.0453
27775W        W43244  16.074  16.908   4.834  0.2663 -0.2129 -0.1263
27776W        W43245  14.370   7.277  11.269  0.0731 -0.0642 -0.0097
27777W        W43246   6.131   9.117  13.991  0.1809 -0.2844 -0.0949
27778W        W43247  15.031  16.990   1.502 -0.1256 -0.1278 -0.0648
27779W        W43248   5.857   8.681  12.209 -0.1307  0.2241 -0.0050
27780W        W43249   2.715  15.028  15.473 -0.0630 -0.0874 -0.0224
27781W        W43250   9.196   6.253   1.767  0.0480  0.1241 -0.0116
27782W        W43251  18.099   6.499  15.276 -0.0239  0.0921 -0.0739
27783W        W43252   2.195   3.944   3.131  0.0125  0.0937  0.0905
27784W        W43253   8.580  12.583   2.864  0.1243  0.1754 -0.3164
27785W        W43254  11.152  11.298  14.324 -0.2978  0.2654 -0.0624
27786W        W43255   0.072   6.681  13.343 -0.2304 -0.1481 -0.3140
27787W        W43256   1.952   0.912   1.023 -0.0359 -0.0657  0.2255
27788W        W43257  14.270   4.414  11.799 -0.0769 -0.0954  0.5372
27789W        W43258   2.646  16.714  12.535 -0.1237  0.1483  0.0890
27790W        W43259  16.745   1.694   0.361 -0.0409 -0.2072 -0.0202
27791W        W43260   6.767  14.586  15.394  0.0778  0.4302 -0.0070
27792W        W43261   3.687  17.590  14.425 -0.2382  0.1319 -0.0913
27793W        W43262   4.971   4.689  12.963  0.4061 -0.0796 -0.3110
27794W        W43263  13.632   1.458   2.424  0.3084  0.0580 -0.1850
27795W        W43264  17.980  15.537  12.871  0.2271  0.1740 -0.0810
27796W        W43265   9.035   3.423   0.075 -0.0085 -0.4930 -0.1770
27797W        W43266  17.386  11.403   4.949 -0.0406 -0.2597 -0.0440
27798W        W43267   4.748  12.846  10.907  0.0487 -0.0515  0.2616
27799W        W43268   3.320   7.534  13.912 -0.0457  0.2300  0.0464
27800W        W43269   6.291   8.816  13.589 -0.3089 -0.2372 -0.3665
27801W        W43270   1.788  18.164   1.793  0.0669  0.2197  0.1124
27802W        W43271   3.749  13.864   1.323  0.0078 -0.0900 -0.0532
27803W        W43272   4.376   6.762  11.730 -0.1171  0.2316 -0.1605
27804W        W43273  16.711  13.240   0.249 -0.0177  0.2465  0.1865
27805W        W43274   8.922  17.811   6.076  0.0848 -0.1639 -0.0484
27806W        W43275   3.054   4.184   5.935  0.2268  0.2324 -0.3526
27807W        W43276   7.848  17.182   5.168 -0.4114  0.2125  0.0063
27808W        W43277  13.059   6.863  13.652 -0.0723  0.0870  0.0683
27809W        W43278  16.970   6.360   0.120 -0.1645 -0.1079 -0.0370
27810W        W43279  16.734   6.918  13.179 -0.2698  0.2109  0.0490
27811W        W43280  17.627   9.338  13.882 -0.3864  0.1921  0.3767
27812W        W43281   5.985  18.042   3.453 -0.1294  0.0261 -0.2134
27813W        W43282  17.581  14.449   3.686 -0.0146  0.2125  0.2390
27814W        W43283  13.470   1.413   3.680 -0.1560  0.0029 -0.1707
27815W        W43284   0.289   7.800  11.688  0.3542 -0.2499 -0.1188
27816W        W43285   2.648  17.643   2.517  0.0326  0.2615 -0.1143
27817W        W43286   4.771   6.921   3.718  0.0332 -0.2013 -0.0959
27818W        W43287   1.043   1.073   0.649  0.3551  0.1437 -0.1052
27819W        W43288  16.947   7.119  14.152 -0.0771  0.0887 -0.1449
27820W        W43289   6.603   6.796  12.131  0.0406  0.0740  0.2295
27821W        W43290   4.073   4.610   1.109 -0.3016 -0.0284 -0.1260
27822W        W43291  13.482   9.442  15.427 -0.0776 -0.0690 -0.0026
27823W        W43292   3.273  16.875  10.894 -0.1134 -0.0175  0.1774
27824W        W43293  10.918   8.843   5.131 -0.3278  0.3206 -0.2547
27825W        W43294  12.652   1.822   1.683  0.0445  0.0992  0.1671
27826W        W43295  10.677  13.682  15.259 -0.0405  0.2529  0.1262
27827W        W43296  17.227  16.184   5.086  0.0344 -0.0328 -0.1355
27828W        W43297  18.210  15.663   3.992  0.0963 -0.0859 -0.1234
27829W        W43298  14.453  14.825  10.654  0.1432  0.0394  0.2702
27830W        W43299  13.578   5.105   2.966  0.0567  0.0824  0.2167
27831W        W43300   2.058  14.823  10.219  0.0536 -0.2613  0.0381
27832W        W43301   1.068   8.923   9.842  0.0340 -0.0310 -0.1845
27833W        W43302   5.601  12.342  14.980 -0.2532  0.1385 -0.2750
27834W        W43303  17.501   0.902   5.544 -0.0076  0.0650  0.0661
27835W        W43304   5.176   2.235   1.183  0.2234 -0.0665 -0.1881
27836W        W43305   6.403  12.712   0.498 -0.0973 -0.0016 -0.0733
27837W        W43306  12.163  13.491  12.763 -0.1856 -0.0107 -0.1248
27838W        W43307   3.060  15.677  12.501  0.0667 -0.2997  0.1421
27839W        W43308   3.645  16.736  11.209  0.1191  0.0346 -0.0415
27840W        W43309   3.256  10.894   2.746 -0.1388 -0.2499 -0.0181
27841W        W43310  12.752   9.659   4.616 -0.1395 -0.1945 -0.2925
27842W        W43311   2.255  15.834   5.577  0.0407  0.5068  0.0680
27843W        W43312   2.459   6.022   1.097  0.0576  0.2141  0.0430
27844W        W43313  17.590  14.062   2.320  0.1465  0.0004 -0.0345
27845W        W43314   2.414  15.368  12.067 -0.1370  0.1567 -0.0484
27846W        W43315   8.309   5.662   5.064  0.0325  0.3520  0.1043
27847W        W43316   9.850   1.293   5.773  0.2927 -0.1911  0.1907
27848W        W43317  17.289  15.952   3.654  0.1678 -0.1948 -0.1557
27849W        W43318   3.707  10.067  15.830  0.3741 -0.1165  0.0246
27850W        W43319   1.747  17.325  11.679  0.2936 -0.1190  0.2043
27851W        W43320  10.890  17.060   2.293 -0.2447  0.4703  0.0905
27852W        W43321   3.886   6.635  11.240  0.6717 -0.0018  0.0230
27853W        W43322  16.062   1.274  12.036  0.2081 -0.0123 -0.1888
27854W        W43323   1.717   6.746   1.644  0.1640 -0.2586  0.1200
27855W        W43324   7.268  10.848  11.037 -0.2223  0.3125  0.1456
27856W        W43325   0.804   3.897   2.970  0.0596 -0.1813  0.2168
27857W        W43326   2.710  12.812  12.801  0.0071  0.0451 -0.0432
27858W        W43327   6.404  13.233  10.407 -0.1597 -0.2397 -0.0958
27859W        W43328   7.346  15.418  13.793  0.1561  0.0076  0.0805
27860W        W43329  10.172   3.171   5.126  0.0770  0.0043 -0.0455
27861W        W43330  11.276   9.149  10.890  0.1833  0.2708  0.2204
27862W        W43331   9.538  14.491   0.893  0.3233 -0.1725  0.1452
27863W        W43332  11.547   4.151   5.130  0.1865  0.1212 -0.1176
27864W        W43333   1.499   4.614   4.929 -0.1251  0.0057 -0.1313
27865W        W43334   6.014   8.356  14.898  0.1998  0.1779 -0.2704
27866W        W43335   5.944   9.257  14.848 -0.1986  0.1996  0.1899
27867W        W43336   4.358  17.324  11.380  0.1165  0.1042  0.1059
27868W        W43337  14.089   9.075   5.135  0.2502 -0.2346  0.0784
27869W        W43338   4.266   6.076  14.451  0.0228  0.1620 -0.2664
27870W        W43339  10.038  13.533  11.505 -0.3551 -0.2229  0.2805
27871W        W43340   5.967   3.210   5.044  0.0340  0.0903 -0.0062
27872W        W43341   7.391   9.949   4.111  0.2502  0.2247 -0.2717
27873W        W43342  12.112  15.514  13.261  0.1170 -0.1149  0.0596
27874W        W43343   5.879   9.199   1.050 -0.1531  0.1248  0.1557
27875W        W43344  13.450   1.059   3.295  0.1536 -0.1153 -0.0405
27876W        W43345  15.983   0.319   3.743 -0.2756 -0.0550 -0.2808
27877W        W43346  12.289   3.785   4.582 -0.2251 -0.1862 -0.0219
27878W        W43347  12.801  10.287   1.911  0.1015 -0.0266  0.0969
27879W        W43348  15.495  12.190   3.483  0.0932  0.1154 -0.1473
27880W        W43349  16.386  14.966  10.969 -0.1250  0.2026  0.2819
27881W        W43350   6.741  11.527   3.418  0.2933  0.2118  0.1621
27882W        W43351   7.731  16.920   5.598  0.1704  0.0845  0.0545
27883W        W43352  15.481   7.200   4.302  0.0516  0.0763 -0.0795
27884W        W43353   5.761  13.993   3.025  0.1165 -0.0916  0.2492
27885W        W43354   0.990  12.140  12.008 -0.0240  0.1110  0.0235
27886W        W43355  15.369   2.451  14.264  0.4399 -0.1299 -0.1653
27887W        W43356  13.650   6.187  12.867  0.0766 -0.1590 -0.1332
27888W        W43357   9.152  11.517  13.666 -0.3603  0.1056 -0.0601
27889W        W43358  17.461   7.149  15.536 -0.1866  0.0097  0.0708
27890W        W43359   2.406  13.828  14.887  0.1899  0.1335 -0.2242
27891W        W43360  18.107   1.087   1.720  0.1479  0.4459  0.1038
27892W        W43361  13.872  12.417  13.643 -0.1306 -0.1552 -0.1336
27893W        W43362  13.733   9.672   3.842  0.0795  0.0332 -0.0026
27894W        W43363   1.106   7.827  11.251  0.2799  0.0294  0.0898
27895W        W43364   6.485   0.410  13.455  0.0434 -0.0980 -0.3311
27896W        W43365   8.400   4.750   3.684  0.0461  0.1457 -0.2471
27897W        W43366   0.700   5.510   4.210 -0.1311 -0.0237 -0.3669
27898W        W43367  14.906   4.607   2.940 -0.0103 -0.3012 -0.0222
27899W        W43368   8.947  16.026  11.730 -0.1936 -0.0827 -0.3125
27900W        W43369  12.592   1.714   4.122 -0.3700  0.3520 -0.1749
27901W        W43370   3.721   1.811   3.694  0.0771  0.0549  0.1266
27902W        W43371   6.785   0.987  11.067 -0.0873  0.1806  0.2996
27903W        W43372  13.941   8.640  14.085 -0.0223 -0.0538  0.1890
27904W        W43373  17.412  11.905   0.344  0.1104  0.2733 -0.1031
27905W        W43374   9.247  11.734  11.928 -0.1244 -0.0183 -0.1803
27906W        W43375  12.623  12.738   2.474  0.1462  0.1714  0.3854
27907W        W43376  15.319  16.501  15.903 -0.2814 -0.0728 -0.1805
27908W        W43377   6.513  17.555  13.305  0.0782 -0.2820 -0.4099
27909W        W43378  15.507   8.781   4.162  0.0943  0.3042 -0.4113
27910W        W43379  10.067  14.241   2.651 -0.0492  0.1723  0.3049
27911W        W43380  13.307   3.331  15.809 -0.3007  0.0968  0.0263
27912W        W43381  14.821   1.504  13.477  0.1881 -0.1357  0.1052
27913W        W43382   6.905   3.957  12.255 -0.2128  0.0922 -0.0013
27914W        W43383  12.233   3.424   1.416 -0.1564 -0.3754 -0.1562
27915W        W43384  15.081   1.593  13.009  0.0295  0.2603 -0.3479
27916W        W43385   5.260  14.928  11.409  0.2054  0.0253  0.2212
27917W        W43386   6.240   4.207   0.474 -0.0010 -0.1801  0.0856
27918W        W43387  13.839  12.878  15.068  0.1777 -0.3375 -0.1575
27919W        W43388   1.678  13.537  11.396 -0.2558  0.0552 -0.1976
27920W        W43389  15.510  10.904  13.263 -0.0817 -0.0648 -0.1094
27921W        W43390  16.788  11.667  10.572  0.0274 -0.1089  0.1325
27922W        W43391   4.121  18.006  15.130  0.0770  0.1004  0.1301
27923W        W43392   3.666  15.394  13.008 -0.0419  0.0492  0.4569
27924W        W43393  10.345   1.595  10.478 -0.4276 -0.1098 -0.1680
27925W        W43394  13.469  10.768  15.280 -0.1409 -0.0425  0.1520
27926W        W43395   6.826  12.693   5.827  0.2868  0.0152 -0.5155
27927W        W43396   1.375  13.668  14.087 -0.1641  0.0744 -0.1720
27928W        W43397   4.414  15.514   2.025 -0.1661 -0.0033  0.1791
27929W        W43398  12.920  15.762   4.815  0.1308 -0.0527  0.5456
27930W        W43399  15.025  11.913   0.592  0.1383 -0.3257 -0.1600
27931W        W43400   6.844   9.704   0.937 -0.0610 -0.5123  0.0585
27932W        W43401  10.030   7.603  12.527  0.0377 -0.2314 -0.1010
27933W        W43402   1.363   7.724  11.890  0.0141 -0.3180  0.0086
27934W        W43403   2.782  13.473  10.464  0.1389  0.1021  0.0421
27935W        W43404   9.232   9.633   0.905  0.1984 -0.0919 -0.1059
27936W        W43405   7.065  12.333   4.579 -0.2380  0.1644 -0.2061
27937W        W43406  15.818   5.275   2.618  0.0287 -0.0704  0.0099
27938W        W43407  13.275  17.677  12.540 -0.1124  0.2797 -0.0783
27939W        W43408  11.330  14.754  15.560 -0.1080 -0.0370 -0.1455
27940W        W43409   2.644  16.445   1.063 -0.4762  0.2046 -0.0029
27941W        W43410  18.382   6.758   2.580 -0.0847  0.0052  0.2982
27942W        W43411   9.169   2.628  14.828 -0.0490 -0.4786  0.0292
27943W        W43412   2.603  10.141   1.556  0.3760  0.0370  0.0475
27944W        W43413  15.174  14.375   2.092 -0.1657 -0.0147 -0.1822
27945W        W43414   9.798  11.730   4.944  0.0321  0.2065  0.0915
27946W        W43415  13.177  14.189   2.707  0.2706 -0.0812 -0.0976
27947W        W43416  14.306   8.379   3.554  0.0253 -0.3206 -0.0555
27948W        W43417   2.245  15.689   1.488 -0.1870 -0.0333  0.1268
27949W        W43418   6.934   2.249   0.838 -0.0979 -0.1328  0.3607
27950W        W43419   0.845   3.077   3.385 -0.1696  0.1108  0.1631
27951W        W43420   4.007  12.899  14.591 -0.0049  0.0378  0.1149
27952W        W43421  18.037  11.624   4.805  0.3083 -0.1879 -0.3582
27953W        W43422   6.672  14.486  13.917 -0.1618 -0.2650 -0.5262
27954W        W43423  10.496  11.233   4.916 -0.1195 -0.1506  0.1305
27955W        W43424   0.778  12.434  15.203 -0.0081  0.3001 -0.1161
27956W        W43425   1.503  14.698   4.710 -0.0674 -0.1339  0.2912
27957W        W43426   1.956  11.732  11.155  0.4044  0.0282  0.0428
27958W        W43427  11.614   3.065  11.435 -0.1759  0.2395 -0.0049
27959W        W43428  11.923  10.267   1.522  0.1399  0.1521  0.1072
27960W        W43429   2.140  17.359   3.386 -0.2712  0.0526  0.0523
27961W        W43430   9.130   2.515  13.153  0.0469  0.0968 -0.0409
27962W        W43431   4.532  10.846   1.110  0.0335  0.0830  0.0408
27963W        W43432   5.510   8.125   1.977 -0.1375 -0.0634  0.0914
27964W        W43433   0.768  14.577   0.892 -0.0706 -0.1686  0.2578
27965W        W43434  12.041  12.767   0.514 -0.2144 -0.0810 -0.0021
27966W        W43435   2.406  14.185  10.993 -0.2521 -0.0107  0.0372
27967W        W43436   6.006  13.780  15.192 -0.1087  0.0465  0.3285
27968W        W43437   7.177   8.302  12.548 -0.3795 -0.0474  0.3322
27969W        W43438   2.986  16.205   3.004 -0.2122  0.1197  0.0186
27970W        W43439   5.944   4.917   3.630 -0.0325 -0.0691  0.2105
27971W        W43440  18.178   9.423  11.009 -0.2028  0.0589  0.3153
27972W        W43441   3.314   6.625  13.652 -0.0015  0.1791 -0.0534
27973W        W43442  11.597   4.502   4.679 -0.3189 -0.1669 -0.4226
27974W        W43443   4.928   2.857   4.144  0.0585 -0.2363 -0.1286
27975W        W43444  12.473  14.920  11.853  0.1562 -0.2272  0.1878
27976W        W43445  14.234  13.899  14.027  0.0378 -0.1980  0.0724
27977W        W43446   2.783  12.778   1.186 -0.0537 -0.3265  0.1578
27978W        W43447   4.803  11.372  14.307 -0.0268  0.4242  0.3200
27979W        W43448   6.356   3.597   5.049  0.0439  0.0831  0.3121
27980W        W43449   1.498   9.486  11.782  0.2171  0.0687 -0.3004
27981W        W43450  11.265   5.851  13.332  0.1437  0.1019  0.2675
27982W        W43451  13.370  12.073   4.014  0.2905  0.3048  0.0587
27983W        W43452   8.967   6.185   2.542  0.1981  0.0198 -0.1749
27984W        W43453   6.285  14.786   2.994 -0.0013 -0.0579 -0.0566
27985W        W43454  10.427   1.035  14.365  0.0711 -0.2635 -0.0779
27986W        W43455  18.069  18.195  13.273  0.1240  0.5256 -0.0345
27987W        W43456  15.086   8.330  10.896  0.3587  0.0342 -0.1554
27988W        W43457  16.286  12.628   0.745  0.1157 -0.2630 -0.2131
27989W        W43458   2.909   3.962   1.486 -0.0601  0.1800 -0.5770
27990W        W43459   8.131   2.557  12.137 -0.1885  0.0475 -0.0207
27991W        W43460  12.494  15.365  14.917  0.2267  0.0356  0.0583
27992W        W43461   5.921   9.610  15.247 -0.1512 -0.1182  0.1713
27993W        W43462  16.342   6.162  12.136  0.1101  0.1426  0.0830
27994W        W43463   2.819   9.017   3.508 -0.2243 -0.0040  0.1081
27995W        W43464  14.286   3.868  10.918  0.0003 -0.0925 -0.1797
27996W        W43465  11.331   8.939   3.771  0.3290  0.4393  0.0955
27997W        W43466  10.448   4.892  10.914  0.1546  0.0749  0.1361
27998W        W43467  13.070   6.125   5.266 -0.0383  0.1746  0.1070
27999W        W43468  16.991   6.412   4.290  0.0346 -0.0596 -0.1850
28000W        W43469  17.025  13.779   1.145  0.0499  0.2158  0.1708
28001W        W43470  11.986   9.614   4.940  0.2266  0.2628 -0.1982
28002W        W43471  14.079   4.796   1.989  0.0069  0.2119  0.1646
28003W        W43472   6.061  18.302   2.687 -0.1821  0.0499 -0.0526
28004W        W43473  12.822  10.870   2.716 -0.1824 -0.1882  0.1651
28005W        W43474   6.190  15.670  15.244 -0.1934 -0.1238  0.1489
28006W        W43475   7.119  16.173   0.578 -0.1068 -0.3097  0.0573
28007W        W43476   6.987   7.652   4.807  0.0812  0.3464  0.0964
28008W        W43477   7.650  14.277  15.597  0.1497 -0.0424  0.1214
28009W        W43478   7.461   4.579   2.115  0.1615  0.1432  0.2360
28010W        W43479  15.458  13.772  14.879 -0.0227 -0.2900 -0.1128
28011W        W43480   8.300  15.815   3.334 -0.1469 -0.2393 -0.0703
28012W        W43481   0.900  14.538  13.664 -0.2159  0.0776 -0.2142
28013W        W43482   5.722   0.954  12.159  0.1065 -0.0187 -0.0292
28014W        W43483   4.878   0.751  12.867 -0.1234 -0.2246  0.0736
28015W        W43484  15.088   8.203  15.423 -0.1530 -0.4592  0.2420
28016W        W43485   9.243  14.857  15.561 -0.1976  0.1170  0.1200
28017W        W43486  15.734   3.110   0.758 -0.2346  0.1600  0.0386
28018W        W43487  12.555  11.460   0.963  0.1551  0.0466  0.1038
28019W        W43488   7.768   9.249   2.630  0.1230  0.0093  0.1591
28020W        W43489  11.537   9.244   1.581 -0.0202  0.0687 -0.0067
28021W        W43490  12.189   2.882   3.640 -0.0524 -0.0358 -0.1765
28022W        W43491  15.200   3.600   2.895  0.0777  0.0091  0.0590
28023W        W43492  14.076   8.609  13.142  0.0029 -0.5151  0.1158
28024W        W43493   7.974  12.117  11.619  0.0896 -0.1306 -0.0289
28025W        W43494  13.329   0.573   1.242 -0.1094  0.0212  0.1385
28026W        W43495   9.530   9.028  11.965  0.1996 -0.2085  0.2109
28027W        W43496   9.332  14.543   3.036 -0.2665 -0.1768  0.1379
28028W        W43497  17.986  11.955  11.209 -0.0621 -0.3066  0.1064
28029W        W43498  11.105   9.033  14.889 -0.2511 -0.1395 -0.2441
28030W        W43499   5.392   6.305  10.891  0.1249  0.0747  0.2438
28031W        W43500   5.486   4.086  13.601  0.2707 -0.0785 -0.2335
28032W        W43501   4.150  11.063  11.414  0.0688  0.1431 -0.1078
28033W        W43502  17.595   0.126   3.860 -0.2950  0.1767  0.3180
28034W        W43503  10.740  17.765   5.912 -0.0995  0.1117  0.1754
28035W        W43504  10.891   0.413   3.581 -0.0143  0.0645  0.1644
28036W        W43505   2.316  10.219   3.484  0.2221 -0.1840  0.2316
28037W        W43506  12.051   4.766   2.478  0.0255 -0.4050  0.2338
28038W        W43507  11.285  17.804  11.190 -0.2318 -0.0951  0.1632
28039W        W43508  10.382  12.027  11.856  0.0264 -0.0119 -0.0406
28040W        W43509   2.085   6.383   5.297 -0.2363  0.0336  0.1960
28041W        W43510  14.376   4.460  15.836 -0.3630  0.1847 -0.0496
28042W        W43511  13.892  12.587   3.730  0.1912  0.1775 -0.1073
28043W        W43512  15.990  11.939  15.392  0.3326  0.1027 -0.1150
28044W        W43513   6.476  18.362   0.676 -0.1051  0.2237 -0.0871
28045W        W43514  10.300   9.930  13.699  0.0529  0.0141  0.1161
28046W        W43515  11.196  18.412  12.483  0.3878  0.0786  0.0036
28047W        W43516   7.369   0.036   5.789 -0.4092  0.0126  0.3087
28048W        W43517  11.321   3.091  13.671  0.2975 -0.0442  0.3590
28049W        W43518  17.500   2.195  13.849 -0.0207  0.0760  0.1061
28050W        W43519   8.531  15.971  15.801  0.1298  0.0368  0.0304
28051W        W43520   9.807  15.036  13.289 -0.1328  0.1553  0.0007
28052W        W43521  16.242  10.052   1.623 -0.0755 -0.0246  0.0818
28053W        W43522  10.272  11.325  12.947  0.0948  0.0052 -0.2935
28054W        W43523  16.840   0.799  12.120  0.0307  0.0660 -0.2154
28055W        W43524  13.036   8.764  13.942 -0.1052  0.1982 -0.0612
28056W        W43525   0.659   8.533   1.271  0.0720 -0.0560 -0.0024
28057W        W43526  18.441   4.714   1.473 -0.2714  0.1707  0.1092
28058W        W43527   2.711  14.438  12.588 -0.1037 -0.1906 -0.1643
28059W        W43528   6.388   5.692   4.385 -0.1332 -0.1140  0.2252
28060W        W43529   5.406  12.608   9.831  0.0307 -0.2215  0.1334
28061W        W43530   8.430   1.522   2.515  0.0976 -0.0831  0.1943
28062W        W43531  16.495  13.029   9.539  0.2255  0.2301  0.2278
28063W        W43532   3.191  12.052   9.691 -0.1839  0.0921  0.0163
28064W        W43533  11.255   6.526  12.809  0.1556 -0.0270  0.0525
28065W        W43534   5.668   7.075  14.794 -0.1244 -0.0347  0.3586
28066W        W43535   2.663  18.046   2.801 -0.0524 -0.0528  0.0020
28067W        W43536   5.159  13.725  11.253  0.0038 -0.2317  0.1857
28068W        W43537  15.466  12.674   0.863  0.1440  0.1113  0.1326
28069W        W43538  13.820   1.297   1.671  0.2501  0.2651  0.1468
28070W        W43539  18.252   8.994   2.414 -0.0179 -0.2474  0.1291
28071W        W43540   2.675   4.070   2.917 -0.0193 -0.1452 -0.0008
28072W        W43541  18.419  16.652  11.667  0.0394 -0.4546  0.0229
28073W        W43542   7.270   4.365  14.171  0.1877 -0.0684  0.2708
28074W        W43543   6.317  12.720  13.057  0.3183  0.1029 -0.1360
28075W        W43544   1.273  11.262   4.323  0.0102  0.3036 -0.2867
28076W        W43545   3.447   5.535  13.472 -0.3077 -0.1421 -0.0256
28077W        W43546   4.992   3.180   6.243  0.0429 -0.1530 -0.1293
28078W        W43547  14.133   8.112  12.472  0.2207 -0.1017 -0.1776
28079W        W43548  14.948   1.666   3.292  0.2274  0.0517 -0.3519
28080W        W43549   7.128  14.233   3.735  0.0012 -0.0564  0.1343
28081W        W43550  11.297  15.875   5.646 -0.5022 -0.2264 -0.1213
28082W        W43551   4.913  12.688   4.207  0.4138 -0.1966  0.2907
28083W        W43552   8.345  17.349  13.491 -0.0919  0.0246  0.0990
28084W        W43553   8.155  16.527   2.643 -0.1800 -0.2150 -0.1363
28085W        W43554   8.416  17.893   6.116  0.0716 -0.1474  0.2697
28086W        W43555  17.631  12.276  14.442  0.1227  0.2458 -0.1357
28087W        W43556   7.027   2.292   2.127  0.1899 -0.0768  0.1380
28088W        W43557   8.085  13.930  13.467  0.1909 -0.1131  0.3304
28089W        W43558   8.540   7.683   4.042  0.1445  0.1423  0.1323
28090W        W43559  12.363  15.979  13.343  0.0919  0.2346  0.2567
28091W        W43560  16.093  15.179   4.150  0.0381  0.2086 -0.0705
28092W        W43561  10.836  18.356  11.423 -0.2139 -0.0187  0.0810
28093W        W43562   4.713   3.555  13.214  0.1377 -0.0208 -0.1636
28094W        W43563   4.415   6.893   4.661 -0.1219 -0.0678  0.1604
28095W        W43564   3.596  15.938  11.908  0.0544 -0.1127 -0.3073
28096W        W43565  12.220   7.446  11.332 -0.0269  0.3331  0.0589
28097W        W43566   4.592   0.938   4.143 -0.0419 -0.0309  0.0264
28098W        W43567   5.324   1.916   4.043 -0.1930  0.1235 -0.0864
28099W        W43568   5.110  13.958   2.399 -0.0671 -0.2184  0.1157
28100W        W43569   9.651  11.673  14.733  0.3428 -0.1886  0.1672
28101W        W43570   8.327  14.744   4.407  0.1002  0.3743  0.2928
28102W        W43571  10.723   2.402   1.351  0.1207  0.1156  0.2624
28103W        W43572   1.815  12.729   2.151  0.1356 -0.3054 -0.1242
28104W        W43573   5.200  15.630  15.195 -0.0036 -0.0419 -0.1428
28105W        W43574   0.377   3.377  15.488  0.2202  0.4215 -0.0553
28106W        W43575   0.840   6.371  13.773 -0.2794  0.3792  0.2096
28107W        W43576   6.933  13.947  13.275 -0.1759  0.1298 -0.0524
28108W        W43577   8.052   3.404   5.519 -0.0150  0.4922 -0.3353
28109W        W43578   5.606   7.502  12.218  0.2546 -0.1557  0.3914
28110W        W43579   4.041  18.264   6.023  0.2452  0.0105 -0.0608
28111W        W43580  16.752  17.406  15.741 -0.3410 -0.1675 -0.2153
28112W        W43581  15.405  14.007   0.049 -0.0099  0.2520  0.2273
28113W        W43582  17.541  13.568  14.192 -0.0058  0.0417  0.1582
28114W        W43583   3.198   3.606   5.759  0.2221 -0.0891 -0.1932
28115W        W43584   4.649   0.018   4.149 -0.1451  0.0153  0.1029
28116W        W43585  14.695  12.599   0.965  0.4274 -0.1705  0.0258
28117W        W43586  10.520   4.491  13.825 -0.1569  0.2481  0.2211
28118W        W43587   7.027   2.064   4.969  0.1853 -0.2412  0.2535
28119W        W43588   4.806  10.944   3.666 -0.1332  0.3173 -0.1544
28120W        W43589  15.755  17.396  12.748  0.2137  0.0523  0.1352
28121W        W43590  11.249   6.957  10.093 -0.0663 -0.0411  0.1067
28122W        W43591  11.599  14.306  13.116  0.1806 -0.2996 -0.2366
28123W        W43592  14.377   8.329  11.437 -0.2049 -0.1041 -0.0182
28124W        W43593  17.547   6.296  13.529  0.0154  0.1383  0.4347
28125W        W43594   5.448  15.293   0.575 -0.2985  0.1927  0.0186
28126W        W43595   9.807   0.070  11.422 -0.0087  0.1893  0.1533
28127W        W43596   3.547   2.209   2.868 -0.3016  0.2389 -0.0790
28128W        W43597  15.883   1.241  15.854  0.1285  0.0880 -0.0750
28129W        W43598   3.551   0.538  10.784  0.0642  0.1371 -0.2972
28130W        W43599   9.050  15.170  13.258 -0.0280 -0.0884 -0.0215
28131W        W43600  16.056   1.738   1.183 -0.0151  0.0959 -0.0227
28132W        W43601  10.675   4.793  12.763 -0.1804 -0.0604 -0.0129
28133W        W43602  13.419  16.116   0.410  0.0702  0.2493  0.0869
28134W        W43603  14.105  12.382   0.884 -0.0322 -0.1357  0.0243
28135W        W43604  17.772   0.308  13.128  0.1950  0.1221 -0.3406
28136W        W43605  18.481  15.959   0.868 -0.1462 -0.1128  0.1754
28137W        W43606   2.356  10.921   4.330  0.1531 -0.1251  0.1060
28138W        W43607  11.401   0.754  14.338  0.1013 -0.0404 -0.0240
28139W        W43608   8.820   5.205  10.687  0.2268  0.1292  0.0347
28140W        W43609   0.702   2.547  12.549  0.1288 -0.0772  0.0498
28141W        W43610   2.092  12.053  15.234 -0.4308  0.3734  0.0021
28142W        W43611   6.850   0.694   5.888 -0.0752  0.1823 -0.2764
28143W        W43612  13.926   7.793   0.278 -0.0465 -0.0953 -0.1275
28144W        W43613  12.418  14.381  15.226  0.0129  0.1584 -0.1740
28145W        W43614   5.361   9.670  11.956  0.1814  0.5336 -0.0301
28146W        W43615   2.072  17.382   4.104  0.1340 -0.0615  0.0145
28147W        W43616   7.732  11.781   3.028 -0.0240  0.3047 -0.0820
28148W        W43617   5.989  11.335  12.007 -0.1399 -0.2415 -0.1848
28149W        W43618   0.028   7.185   5.115  0.0093  0.1180 -0.1426
28150W        W43619   6.063  16.558   4.289  0.0953 -0.0159 -0.0819
28151W        W43620   5.755  17.870   1.074 -0.0559  0.0326  0.0949
28152W        W43621  13.991   0.348  14.075 -0.0632 -0.0678 -0.1966
28153W        W43622  17.538  11.759  14.072  0.0840 -0.2403 -0.0407
28154W        W43623   3.160   1.441   1.973  0.2734 -0.1799 -0.0860
28155W        W43624   9.510  10.782   2.397  0.0113  0.2339 -0.1650
28156W        W43625   6.882   4.150  11.821  0.2026  0.1162 -0.1403
28157W        W43626  11.520  12.616  15.067 -0.0575  0.2771 -0.0661
28158W        W43627  17.522  17.670  13.438  0.1358 -0.1518 -0.0811
28159W        W43628   2.918  12.943   3.108 -0.2653  0.0275  0.2984
28160W        W43629   7.520   4.282   0.010 -0.0598  0.0297 -0.5089
28161W        W43630  10.173  16.798   4.453 -0.3190  0.3002 -0.2883
28162W        W43631  10.815  16.049   4.801 -0.0141  0.0885  0.1413
28163W        W43632  16.943   0.641   2.779 -0.2115  0.0732  0.0202
28164W        W43633   6.966  16.779   0.531  0.2529  0.2049  0.1429
28165W        W43634   0.561   6.680   4.084 -0.0211 -0.3207 -0.1395
28166W        W43635   5.559  14.552   5.302  0.1310 -0.0954  0.0873
28167W        W43636   8.972  14.905   5.690 -0.1613  0.2404 -0.0016
28168W        W43637  12.293   1.416   1.928 -0.1977  0.0717  0.0431
28169W        W43638   5.999   8.716   1.997  0.5595  0.0699  0.0633
28170W        W43639  15.321   6.169   5.357 -0.1644 -0.1390 -0.0806
28171W        W43640   2.500   4.817  13.308  0.1667  0.2748  0.1331
28172W        W43641  18.337  17.441  12.108 -0.0781  0.0264 -0.2205
28173W        W43642  13.520   6.016  11.052 -0.2069  0.2335  0.1641
28174W        W43643  12.431  12.200  15.289 -0.0455  0.0534  0.0927
28175W        W43644   4.641  18.371   1.552  0.1345  0.1972 -0.3790
28176W        W43645   6.382  11.947  13.426  0.0643  0.1471  0.0023
28177W        W43646   2.789   0.175  14.884  0.1762 -0.1099  0.2237
28178W        W43647  17.171   1.713  12.602  0.0069 -0.2390  0.2544
28179W        W43648   9.678  15.817  11.511  0.3373  0.2937  0.0764
28180W        W43649  12.474  17.361  12.438 -0.1080 -0.0901 -0.2805
28181W        W43650  18.258   9.112   4.762 -0.3029  0.1119  0.5465
28182W        W43651   8.135  11.506   3.195 -0.0132  0.3632 -0.2340
28183W        W43652   7.626  16.928  10.684  0.5486  0.0728 -0.0060
28184W        W43653  10.279  14.968   5.328  0.2929 -0.0502  0.0408
28185W        W43654   5.436  12.467   0.599  0.2727  0.2302 -0.0217
28186W        W43655  15.242   8.612   2.508 -0.0921  0.4377  0.3190
28187W        W43656   4.377   9.681  10.765  0.0174 -0.0514 -0.1992
28188W        W43657  12.499  14.796   3.433 -0.0312 -0.3614 -0.1211
28189W        W43658   1.971  17.764   2.111 -0.0595  0.1096 -0.0276
28190W        W43659   0.571   3.063  13.072 -0.0539 -0.0764 -0.1238
28191W        W43660   8.568   9.147   1.798  0.0742 -0.1958 -0.0099
28192W        W43661   1.184  12.005  13.798 -0.1075 -0.1117 -0.1966
28193W        W43662   9.267   3.465  11.968  0.0675 -0.4198 -0.0060
28194W        W43663  14.825   7.539   4.807 -0.1119 -0.4211 -0.2503
28195W        W43664  16.694   8.855   4.102 -0.3571  0.2401  0.0860
28196W        W43665   9.478  15.597   1.795  0.0080  0.0510  0.2652
28197W        W43666  11.351   8.207   1.342 -0.0924 -0.2236  0.0193
28198W        W43667   0.010   6.201   2.657  0.1609 -0.1740  0.1942
28199W        W43668  15.835  14.624   5.566  0.1711 -0.1814  0.2118
28200W        W43669   3.974   4.118   4.346  0.0065 -0.1408  0.1819
28201W        W43670   5.249   1.167   0.293  0.1017  0.1813 -0.1054
28202W        W43671   0.168  14.022  11.476 -0.3695  0.0170 -0.0093
28203W        W43672  11.036   8.208  14.224  0.3102  0.0900 -0.0046
28204W        W43673  12.185  12.191  10.033 -0.0971 -0.0271  0.0651
28205W        W43674  18.377   9.988   4.233  0.0683 -0.2992  0.0449
28206W        W43675   4.106  15.820   5.412  0.0715 -0.0433  0.0112
28207W        W43676  17.302   5.914  13.107  0.0651 -0.0291  0.2523
28208W        W43677   3.028   1.457   2.439 -0.0197  0.0154  0.3813
28209W        W43678  13.034   7.794   4.817 -0.0111 -0.1359  0.1011
28210W        W43679   9.191  11.078  15.444  0.2626  0.0640 -0.0301
28211W        W43680   3.151  11.327   0.576  0.0192 -0.2492 -0.1471
28212W        W43681  17.720   2.147   1.544 -0.0610 -0.0538  0.0202
28213W        W43682  10.667  10.037  10.674  0.0461  0.0966 -0.0053
28214W        W43683   3.651   0.286  14.474 -0.0603 -0.0521  0.0054
28215W        W43684   3.119   1.280  14.480  0.0205  0.3721  0.1079
28216W        W43685   0.940   6.700  13.407  0.2066 -0.2840 -0.1014
28217W        W43686  14.665   6.745  12.568  0.0860  0.1155 -0.2341
28218W        W43687  12.141  10.601   0.196  0.3759 -0.1382  0.1860
28219W        W43688   6.799   2.564   1.761  0.0602 -0.1549 -0.2670
28220W        W43689   5.339  11.929   2.353  0.1954  0.0446  0.1512
28221W        W43690   6.798  11.767   3.010 -0.0406  0.0120 -0.1128
28222W        W43691  13.950  15.789   3.663 -0.0496 -0.0579 -0.3918
28223W        W43692   0.775  10.400   0.041  0.0592 -0.0241 -0.1693
28224W        W43693   4.407  17.320  13.874  0.0887 -0.2770 -0.2454
28225W        W43694  10.068   0.895   5.420  0.1024  0.0209 -0.1476
28226W        W43695  14.516   2.021  14.289  0.1151  0.1640  0.2458
28227W        W43696   1.211   9.637  13.600  0.0691  0.0187 -0.3210
28228W        W43697   5.741   0.292  12.920 -0.1915 -0.3479 -0.1462
28229W        W43698   1.221  11.888  14.835 -0.1103 -0.1724 -0.3242
28230W        W43699   9.700   9.838   0.933 -0.2504 -0.0012 -0.1064
28231W        W43700   5.767   0.699  10.725 -0.0522 -0.1684  0.0968
28232W        W43701  10.218   2.912   4.667 -0.1657 -0.1388  0.1589
28233W        W43702  10.817   9.105   5.527 -0.0887 -0.1936  0.4329
28234W        W43703  11.390   4.659   1.408 -0.0289 -0.0684 -0.1579
28235W        W43704  15.804  15.675  11.486  0.0525 -0.3435  0.1312
28236W        W43705  13.597  18.443  12.172 -0.0998 -0.4590  0.1867
28237W        W43706   5.690   2.536  11.257  0.2602  0.1903  0.2536
28238W        W43707  15.420  11.063  13.776  0.2086 -0.3286  0.3335
28239W        W43708   7.525   7.339   3.976  0.2600 -0.2236  0.3564
28240W        W43709  11.499   6.688   1.496  0.1890  0.2488 -0.1289
28241W        W43710  13.700  14.872  15.851  0.1436  0.1056 -0.2660
28242W        W43711  12.483   4.337   1.855  0.1245 -0.1428  0.4258
28243W        W43712   7.221   1.832  11.219 -0.2173 -0.0086 -0.1255
28244W        W43713  16.685   6.061   4.487  0.2855 -0.1013 -0.0143
28245W        W43714  10.190   0.063   1.956 -0.2471  0.0309 -0.0872
28246W        W43715   0.686   7.986   4.485 -0.1532  0.1888 -0.2249
28247W        W43716  12.053   8.825   3.244 -0.1409 -0.2636 -0.4599
28248W        W43717   3.587   9.038  12.652 -0.0710 -0.1973  0.0992
28249W        W43718   5.427  14.564  15.443 -0.0066 -0.0860  0.2358
28250W        W43719   8.510  12.008   1.233 -0.1265  0.1097  0.2231
28251W        W43720   2.392  13.858   4.814  0.1702 -0.0491  0.0422
28252W        W43721  14.042  18.300  12.491  0.1002  0.2675 -0.1099
28253W        W43722  16.037  12.270  11.700 -0.0592 -0.4235 -0.2980
28254W        W43723  12.005   3.611   2.706  0.1268  0.1350 -0.2624
28255W        W43724  10.556   1.637  15.593 -0.2895  0.1947 -0.0342
28256W        W43725   0.120  12.059  11.447  0.0077  0.2471  0.3447
28257W        W43726   7.665  17.475  15.646  0.0761 -0.1662 -0.0828
28258W        W43727   2.183  16.628   0.969 -0.1274  0.2464 -0.0369
28259W        W43728   7.159  13.169   0.184 -0.3190  0.0481  0.1907
28260W        W43729   8.692  18.134   0.391  0.0484 -0.0878  0.3457
28261W        W43730   5.868   8.424  15.374  0.0472 -0.0159  0.1136
28262W        W43731   6.578  12.384   1.724  0.0066 -0.2361 -0.1897
28263W        W43732  15.382  17.319  10.330 -0.1483 -0.1090 -0.0752
28264W        W43733  17.092   6.300   2.511  0.1696 -0.0288  0.0106
28265W        W43734  11.238   0.319  12.203 -0.1404 -0.1666  0.1286
28266W        W43735  15.320   9.524   4.435  0.0494  0.3741 -0.0196
28267W        W43736   8.200   3.575  15.336  0.1851  0.2295  0.2973
28268W        W43737  12.043   9.262   1.286 -0.2006  0.0960  0.1984
28269W        W43738   9.849  10.257   4.305  0.3187  0.1855  0.0544
28270W        W43739  15.856   1.578   3.301  0.1441  0.2833 -0.1457
28271W        W43740   1.614  10.948   5.544  0.2633  0.0492 -0.0855
28272W        W43741  14.209  14.340   3.793  0.1014  0.1521  0.0705
28273W        W43742   2.718   5.179  13.681  0.2956 -0.1271  0.0736
28274W        W43743  14.000   9.981  14.731 -0.1257  0.2428 -0.0569
28275W        W43744  17.891   1.280   4.754 -0.2487 -0.0610  0.4196
28276W        W43745  15.758   8.465   1.612  0.1805 -0.1867  0.1187
28277W        W43746  14.428  14.103  13.324  0.3325  0.5621 -0.0066
28278W        W43747  16.141  16.366   5.584 -0.1441  0.1467 -0.1783
28279W        W43748   0.703   8.485   4.339 -0.0745 -0.0197  0.1122
28280W        W43749   3.009  12.204  12.233  0.0716 -0.0427 -0.2851
28281W        W43750   4.687  14.947  13.733  0.1080 -0.2440 -0.1753
28282W        W43751   6.008  16.038   4.174  0.0650 -0.1302  0.1925
28283W        W43752   2.056   8.099   5.519 -0.2945 -0.0494  0.1216
28284W        W43753   0.921   7.749   5.037 -0.0756 -0.0593 -0.0770
28285W        W43754   7.413  12.791   3.871  0.1148  0.1395 -0.0534
28286W        W43755   3.740   0.195  13.444  0.0408 -0.0725  0.1815
28287W        W43756  15.520  18.414   4.919 -0.0413 -0.0013 -0.1986
28288W        W43757  14.739   6.205  11.136 -0.1362 -0.2655  0.1628
28289W        W43758  15.552  12.308  11.155  0.1513 -0.0178 -0.0094
28290W        W43759  17.728   2.773   4.696 -0.2689  0.2127 -0.2220
28291W        W43760  11.122   0.514   5.375 -0.1827  0.1248  0.0868
28292W        W43761   7.376   4.127   2.291 -0.3096  0.2823 -0.0352
28293W        W43762  10.572   1.155   3.300  0.1495 -0.2753  0.0242
28294W        W43763   4.553  11.258   4.007  0.0807 -0.0202  0.1740
28295W        W43764  16.521  17.744  10.836  0.0648 -0.0217 -0.0079
28296W        W43765   9.097  16.620  14.242  0.0838  0.0199 -0.2007
28297W        W43766   8.154   0.243  14.799  0.0207  0.1399 -0.0699
28298W        W43767   6.885   8.460  11.149  0.0136 -0.1195  0.1926
28299W        W43768   7.206  11.828  10.401 -0.0450  0.1526 -0.1212
28300W        W43769   2.807   4.805  12.944 -0.1246  0.1501 -0.0113
28301W        W43770   8.138  13.124  10.552  0.0704 -0.1661  0.1702
28302W        W43771  10.858   7.436  10.961  0.0845  0.1000  0.0380
28303W        W43772  15.981   4.629   5.699  0.1917  0.1127  0.3674
28304W        W43773   9.590  13.006   1.190  0.5300  0.0452  0.1367
28305W        W43774   1.349   3.229  12.909  0.2080 -0.1568  0.3639
28306W        W43775   1.183   6.195  12.087  0.0197  0.1882  0.0177
28307W        W43776   2.179  14.005   2.492 -0.4377 -0.1501  0.0235
28308W        W43777   4.289   7.728   3.464  0.0437  0.1564 -0.2124
28309W        W43778   2.294   3.931  11.903  0.1434 -0.2239  0.0794
28310W        W43779   7.883   1.382   3.617 -0.0706  0.1437  0.2211
28311W        W43780   2.647   1.374  14.547 -0.0014 -0.3308  0.2480
28312W        W43781  13.712   0.928   0.190 -0.0808  0.0456  0.2647
28313W        W43782   4.055  13.935   4.779  0.2865  0.1881 -0.0959
28314W        W43783   0.175  12.929  11.985  0.0214 -0.0097 -0.1041
28315W        W43784  14.706   1.815  11.080 -0.0947 -0.3174 -0.0930
28316W        W43785   1.727   5.559   0.490  0.0195 -0.0148  0.1970
28317W        W43786  11.415   2.582   5.535  0.1104 -0.0373  0.4022
28318W        W43787  15.520  13.990   2.026 -0.0525  0.2583  0.1348
28319W        W43788   3.779   2.148   1.944 -0.0585 -0.2468 -0.0575
28320W        W43789  10.629   0.794  10.624  0.0266 -0.0672 -0.0066
28321W        W43790  13.940   2.421   0.109 -0.0803 -0.1732  0.0045
28322W        W43791  14.969   7.245   3.304  0.0795 -0.0735  0.1310
28323W        W43792   8.615   1.745   1.086 -0.1635  0.1913  0.0152
28324W        W43793   6.230   9.408   3.036  0.1780 -0.3028  0.0227
28325W        W43794   6.954  15.529  14.074  0.0306  0.1378  0.2520
28326W        W43795  10.780  11.014  11.468  0.1183  0.0100  0.1131
28327W        W43796  15.368   8.459  13.463  0.1792 -0.2379 -0.1749
28328W        W43797  16.995   4.556  15.079  0.2405 -0.0125  0.1678
28329W        W43798   8.309  10.923   5.455 -0.0707  0.0776  0.1499
28330W        W43799   3.746   2.496   3.272  0.2575  0.1253 -0.1655
28331W        W43800   3.322  18.002  14.319  0.0894  0.0106 -0.0370
28332W        W43801  16.092   3.169   1.683  0.0676  0.1115  0.0075
28333W        W43802  17.912  11.965   1.631 -0.0917 -0.0344 -0.1677
28334W        W43803  10.878   3.038   3.867 -0.1802  0.1149 -0.1995
28335W        W43804   5.284   6.589  11.814  0.3823  0.1680  0.2949
28336W        W43805  15.725  10.871   3.973  0.2107 -0.1214  0.0710
28337W        W43806  17.815  15.919  12.596 -0.0045  0.2893 -0.1758
28338W        W43807  16.972  12.549   3.897  0.0004  0.3488 -0.1652
28339W        W43808  15.856   4.853  12.824  0.0198 -0.1457  0.2564
28340W        W43809  14.521  16.010   5.556  0.0546 -0.4071  0.1487
28341W        W43810   9.951   2.261  15.565  0.0899 -0.3098  0.0810
28342W        W43811  14.399   4.865  15.369  0.2484 -0.0371 -0.2650
28343W        W43812   1.686  17.053   4.192 -0.1639 -0.2894  0.0040
28344W        W43813   6.030   8.639   2.488  0.1044  0.2233  0.2999
28345W        W43814   3.967   7.459  11.180 -0.1048  0.3331  0.1587
28346W        W43815  16.848   3.118   4.577  0.0368 -0.4057  0.1178
28347W        W43816  17.964   3.601   0.750  0.2203  0.0605  0.1969
28348W        W43817  15.224   8.775   1.604  0.2541  0.1171  0.1882
28349W        W43818   6.626  12.841   3.752  0.2191 -0.0686 -0.1490
28350W        W43819   0.504   3.908  10.998 -0.0990  0.1015 -0.0846
28351W        W43820   1.748  11.090  13.289  0.1738  0.0352 -0.1223
28352W        W43821   8.989  17.110  14.065  0.0269 -0.2163  0.1362
28353W        W43822  16.596  10.113  15.033 -0.0769  0.0659  0.2707
28354W        W43823  15.080  15.082  14.813  0.1267 -0.1028 -0.0127
28355W        W43824   7.854   9.354  13.507 -0.3697  0.0814  0.2540
28356W        W43825  12.367   2.375   4.722  0.1296 -0.1660 -0.0587
28357W        W43826  14.631  11.672  13.580 -0.0226  0.0230 -0.1863
28358W        W43827   7.627   6.849   3.786 -0.0855 -0.1999 -0.1248
28359W        W43828   4.492   9.013  10.724 -0.0429 -0.0188  0.1032
28360W        W43829  14.965   6.299   5.759  0.0929  0.0269  0.2289
28361W        W43830   0.749   9.768  15.874  0.2322 -0.3711 -0.1210
28362W        W43831   4.393   6.919   5.813  0.3117 -0.0304 -0.0072
28363W        W43832  16.679   1.402  12.601 -0.1736 -0.2583 -0.1572
28364W        W43833   1.580   2.089   5.107  0.1623  0.2090 -0.1908
28365W        W43834   2.504   3.817  15.171 -0.0963  0.1239 -0.0454
28366W        W43835  15.305  16.693   3.135 -0.1054 -0.2218 -0.1157
28367W        W43836   6.038   3.988  13.478 -0.1235 -0.2575 -0.1909
28368W        W43837   6.735  11.830   1.159  0.1322  0.1081 -0.0027
28369W        W43838   6.620   1.947  13.763 -0.1347 -0.2177  0.0359
28370W        W43839   6.674   9.578   1.424 -0.0266 -0.0413 -0.2789
28371W        W43840   3.427   6.666  10.909  0.0826  0.2423 -0.0679
28372W        W43841   8.485   7.635  12.452  0.2755  0.2752  0.0490
28373W        W43842   5.064  14.403   2.657  0.1525  0.2756 -0.1811
28374W        W43843  15.632   2.258  12.803 -0.0011 -0.0565 -0.0235
28375W        W43844   9.126   3.741  12.682  0.1287  0.3621 -0.3346
28376W        W43845  16.311  14.718  13.999  0.2594 -0.3285  0.1945
28377W        W43846   8.916  11.757  14.462 -0.2008 -0.4285 -0.2451
28378W        W43847  18.127  16.982  11.879  0.0125  0.1325  0.2557
28379W        W43848  14.217  15.033  12.345  0.2636 -0.0368 -0.0398
28380W        W43849   7.166   9.042   1.925  0.1449  0.0812  0.0150
28381W        W43850   5.342  16.028   5.222 -0.4957  0.0912 -0.3443
28382W        W43851   1.853   5.388  13.083 -0.1125  0.1027  0.0074
28383W        W43852  16.460  11.282  11.387  0.2345  0.1634 -0.1206
28384W        W43853   7.579  12.638  12.145 -0.0839 -0.0550  0.1345
28385W        W43854   6.580   4.188   5.796 -0.3576 -0.2147 -0.2057
28386W        W43855   8.396   9.881   2.830 -0.0539 -0.0707  0.3762
28387W        W43856  11.447   6.125   5.375 -0.0855  0.1626  0.1033
28388W        W43857  17.638   9.801   0.781  0.1878  0.1695  0.0826
28389W        W43858  16.209   4.883   4.619  0.3401 -0.1572  0.3465
28390W        W43859   7.479  15.651   3.008 -0.0701 -0.0107 -0.3312
28391W        W43860   9.920   6.834  11.847  0.1933 -0.0923  0.1566
28392W        W43861   3.020  14.677  11.351 -0.0839  0.5030  0.0987
28393W        W43862   5.437  13.739  12.336 -0.4111  0.0714  0.0479
28394W        W43863   1.282   6.275  14.634  0.0098  0.2555  0.0099
28395W        W43864   5.652   5.646  12.563  0.2258  0.1492  0.3315
28396W        W43865   1.970   1.997   2.717 -0.0697 -0.4154 -0.0222
28397W        W43866   2.947  11.417  15.380  0.0346  0.3626 -0.1674
28398W        W43867   7.959  13.132  13.403  0.0762  0.2591  0.1237
28399W        W43868  16.337   6.204   4.803  0.1183 -0.0144 -0.3027
28400W        W43869   2.296   8.132   2.436  0.0278  0.1085 -0.1964
28401W        W43870   5.834  11.543   2.712  0.4855 -0.0920  0.0389
28402W        W43871   1.275  11.410   1.158 -0.1174  0.0128  0.3480
28403W        W43872  10.791  14.273   0.398  0.1450  0.0099  0.0660
28404W        W43873   2.304   2.987  11.631  0.2544 -0.0539  0.4240
28405W        W43874  18.326  13.035   3.473 -0.2058 -0.0084 -0.2187
28406W        W43875   0.597   1.998   2.215  0.0994 -0.0932  0.0711
28407W        W43876   0.851  10.120  14.366 -0.2485  0.3830  0.0721
28408W        W43877  16.346   2.126   3.568  0.1701 -0.0360 -0.0403
28409W        W43878   9.467   1.800  11.671  0.0326 -0.1410  0.0617
28410W        W43879   2.904   6.328   5.090 -0.0263 -0.1197 -0.0324
28411W        W43880   3.744  11.669  11.918 -0.0110 -0.0422  0.0270
28412W        W43881   2.992  15.916  13.473  0.0469 -0.1385  0.2097
28413W        W43882   1.228  15.803   3.418 -0.2046 -0.1931 -0.0495
28414W        W43883   2.995   3.300  13.751  0.0533  0.3578  0.1172
28415W        W43884  15.064   0.998  15.814  0.1990 -0.0656  0.0675
28416W        W43885  17.859  10.021   4.429  0.2857  0.1377 -0.0008
28417W        W43886   8.498   6.085  10.673  0.2288 -0.2376 -0.3286
28418W        W43887  11.859   6.247   4.569  0.0672 -0.1770  0.2610
28419W        W43888   5.861   8.161   2.578 -0.0665 -0.0132  0.1297
28420W        W43889   2.728  14.399   1.541 -0.0417  0.4173  0.0843
28421W        W43890   8.420   9.442   4.574 -0.0601  0.1591  0.4375
28422W        W43891  15.414   4.538   2.913 -0.0713  0.0974 -0.0330
28423W        W43892  18.405   9.798  13.391  0.1378 -0.1232  0.0923
28424W        W43893   1.021  11.043   4.746  0.0775 -0.0216  0.1362
28425W        W43894   3.910  15.291  14.618 -0.0202 -0.2507 -0.3567
28426W        W43895  10.906  14.019  11.384  0.1574 -0.2308 -0.0729
28427W        W43896  13.450   4.106  11.758 -0.1364 -0.2727  0.0137
28428W        W43897  12.579  16.997   0.270 -0.0306  0.0222 -0.0383
28429W        W43898  11.012   4.778   0.087 -0.0474  0.2527 -0.1147
28430W        W43899   1.299   2.416  11.822  0.2640 -0.0185  0.0549
28431W        W43900  18.473   9.886   1.716 -0.0035 -0.0399 -0.1755
28432W        W43901  18.075   8.009  10.985 -0.0270 -0.2011 -0.1584
28433W        W43902   9.520  13.574   1.082  0.1950  0.0233  0.1274
28434W        W43903   9.112   9.513  15.585 -0.1388  0.4430 -0.2495
28435W        W43904   5.124   3.758   1.411 -0.2688 -0.1238  0.3537
28436W        W43905   5.046   4.158  10.640  0.0543 -0.0596 -0.3704
28437W        W43906   8.027   9.647  14.556 -0.1428 -0.0198  0.1557
28438W        W43907  17.126  10.751  12.902  0.0678  0.3475  0.1067
28439W        W43908  16.625   7.370  11.438  0.0105 -0.0111  0.2697
28440W        W43909   1.516   4.463   1.369  0.1279  0.0072  0.1320
28441W        W43910  12.289   3.424  12.938 -0.1573 -0.0018  0.2008
28442W        W43911  18.387  13.220  14.549 -0.1683 -0.0151  0.1710
28443W        W43912   5.079   9.795   0.927  0.0290  0.0597 -0.1117
28444W        W43913   8.547   4.728   1.829 -0.2159  0.0525 -0.1575
28445W        W43914   7.530   0.164  15.147  0.0674 -0.4128 -0.0811
28446W        W43915  10.713   4.587   0.427 -0.1488 -0.1167  0.2743
28447W        W43916  13.708   2.502   4.529 -0.1076  0.0865  0.1012
28448W        W43917   8.002  10.290  14.734 -0.0656  0.1184  0.2518
28449W        W43918   4.516  18.147  14.793 -0.1319 -0.2606 -0.3594
28450W        W43919   3.639   2.062   5.528  0.0016  0.0518 -0.0364
28451W        W43920   1.802  17.646   3.706  0.5328 -0.1659  0.1776
28452W        W43921   4.820  11.872  14.355 -0.0267 -0.1786 -0.1093
28453W        W43922   5.448   1.646   2.652  0.4061  0.1245  0.1711
28454W        W43923   8.398   3.077   5.216 -0.1200 -0.1356 -0.2866
28455W        W43924  13.544  14.238  14.552 -0.1403 -0.0665 -0.2063
28456W        W43925   2.235  12.807   3.968  0.2777  0.0121  0.2514
28457W        W43926   8.950  11.599   4.152  0.0083  0.2119 -0.3004
28458W        W43927   1.004  16.683  13.159 -0.1590 -0.1070  0.3305
28459W        W43928   7.313   9.279   4.839  0.5062  0.1625  0.2012
28460W        W43929   3.267   2.102  11.991  0.3682  0.2574 -0.1668
28461W        W43930   0.528   4.385  15.840  0.2636  0.0101  0.2270
28462W        W43931   1.689   0.341   1.085 -0.1104 -0.3221 -0.1017
28463W        W43932   9.142   0.493  11.934 -0.0267 -0.1006  0.2697
28464W        W43933   1.649   7.501  14.567  0.0372 -0.0413 -0.2316
28465W        W43934  11.734   1.905  13.638 -0.1814 -0.1834  0.0803
28466W        W43935  14.997   8.368   0.974  0.4408 -0.0301  0.0142
28467W        W43936  13.617  14.541  15.498 -0.0380 -0.2200 -0.0872
28468W        W43937   2.956  12.278   0.112  0.0593 -0.1408  0.1118
28469W        W43938  11.016  13.193   4.787  0.0646 -0.1216  0.1091
28470W        W43939   4.379   2.874  15.128 -0.1652 -0.1129 -0.0593
28471W        W43940  16.408   1.830   1.648 -0.3833 -0.0277  0.0101
28472W        W43941   8.949  16.311  14.893  0.2446 -0.0061 -0.2257
28473W        W43942  11.318  11.781  13.325 -0.5704 -0.0048  0.2115
28474W        W43943  16.767   9.750   3.658 -0.1245 -0.2941  0.1019
28475W        W43944  16.252   0.052   5.715 -0.4856  0.1988 -0.0318
28476W        W43945   9.994   5.106  12.372  0.2320 -0.1193  0.0342
28477W        W43946  12.606   7.329  12.629  0.0291  0.0006  0.0980
28478W        W43947   0.265  17.456   3.568 -0.0383 -0.0038 -0.1212
28479W        W43948   6.061  14.739  10.464  0.3159  0.0025  0.2678
28480W        W43949  17.870   5.878  11.877  0.3260 -0.4214  0.1775
28481W        W43950   9.099   1.190   0.806 -0.1370 -0.3501  0.1914
28482W        W43951  17.207  17.274  14.699 -0.1416 -0.0285  0.2186
28483W        W43952   4.158   6.284  13.101  0.0202 -0.0568  0.2656
28484W        W43953   0.831   5.639  11.378 -0.1737  0.1921  0.2481
28485W        W43954  16.402  16.919  12.380 -0.1102  0.4024  0.1448
28486W        W43955   0.389  16.462   0.882 -0.2757  0.0703 -0.1306
28487W        W43956  11.521   9.212   2.080 -0.2223  0.0835 -0.0046
28488W        W43957  18.360   7.751   5.595 -0.1502 -0.1430 -0.4377
28489W        W43958   8.541  18.015  11.122  0.0177  0.2219  0.3477
28490W        W43959   8.119   1.878   3.802 -0.4986 -0.0753 -0.3784
28491W        W43960  11.419   7.692   0.014  0.0064  0.0476 -0.0478
28492W        W43961   4.569   4.754  10.176 -0.0061 -0.3309 -0.0341
28493W        W43962  11.486  17.948   2.868 -0.0562  0.0664  0.0739
28494W        W43963  14.654   2.014  12.406  0.2352 -0.0906  0.0749
28495W        W43964   5.974  13.606   3.191  0.2253 -0.1065 -0.0376
28496W        W43965   4.917   7.107  15.551 -0.2114  0.0688  0.3553
28497W        W43966   9.663   1.821   5.078 -0.1000  0.3900  0.3638
28498W        W43967  16.336   9.719  15.135  0.1686 -0.0869 -0.0651
28499W        W43968  17.181   3.162  12.617  0.1679 -0.0450 -0.5524
28500W        W43969   2.211   8.903   1.812  0.1773  0.0852  0.1410
28501W        W43970   8.911   5.346   1.190 -0.2474 -0.0265  0.2478
28502W        W43971  16.344  10.526  14.817 -0.1249  0.2086 -0.2553
28503W        W43972   5.476   6.479   3.815 -0.3906  0.0173 -0.0410
28504W        W43973   5.057   4.219  12.580 -0.1592 -0.1702  0.0206
28505W        W43974   1.026  16.342   1.449  0.1992 -0.2432 -0.0607
28506W        W43975   7.613   2.407  13.028 -0.0733 -0.0304 -0.2153
28507W        W43976   1.547   6.591  15.056  0.0741  0.3994 -0.1190
28508W        W43977   0.623   3.414  12.604  0.2038  0.0920  0.1275
28509W        W43978  16.405  14.344   9.728 -0.1182 -0.0754 -0.0388
28510W        W43979   2.710   8.391   5.100 -0.1185  0.0673 -0.0869
28511W        W43980   2.396   4.113  14.818  0.0922  0.2207  0.1508
28512W        W43981  11.930  10.968   2.821 -0.2413 -0.1209  0.3015
28513W        W43982   7.250   9.228   2.520  0.1566  0.0418 -0.1995
28514W        W43983   9.903   8.567  11.347 -0.0026 -0.1718  0.0383
28515W        W43984  18.090  10.184   1.687  0.1660  0.2490 -0.2219
28516W        W43985   9.824   3.417   2.080  0.1579  0.2159  0.1750
28517W        W43986   2.059  10.601   3.117 -0.0879  0.1534  0.0905
28518W        W43987  12.469  15.065   0.351  0.2173  0.2962  0.2750
28519W        W43988  16.689  18.089   1.136  0.0747 -0.0537 -0.0466
28520W        W43989  11.296   4.846  11.157 -0.1437  0.2424  0.0678
28521W        W43990   6.735   9.959  14.958  0.0027 -0.1096  0.0567
28522W        W43991  11.958   5.909  10.798  0.2784  0.2265  0.1866
28523W        W43992  17.926  11.169  10.439  0.0072 -0.1206 -0.1626
28524W        W43993   1.810   5.767   3.908  0.3314 -0.1811 -0.0490
28525W        W43994   5.211   8.581  15.811 -0.2174 -0.2694  0.1887
28526W        W43995  17.816   6.352   3.724  0.1176 -0.1798  0.2277
28527W        W43996   7.385  11.983   3.932  0.0383 -0.1441 -0.1426
28528W        W43997   4.225  11.337  14.465  0.0734 -0.1168 -0.2082
28529W        W43998   0.167  11.749  13.580 -0.0819 -0.2487 -0.1875
28530W        W43999  13.545  12.783   0.383  0.2234  0.0924 -0.0647
28531W        W44000  14.194   6.689  10.564  0.2224 -0.0569 -0.2501
28532W        W44001  15.316   4.224   2.077 -0.0758 -0.1405 -0.2021
28533W        W44002   9.967   5.089  13.902 -0.3238  0.1181  0.2296
28534W        W44003  13.666  12.160  14.545 -0.0442 -0.0760 -0.0090
28535W        W44004   7.858   3.510  13.981  0.0991 -0.0359  0.0827
28536W        W44005  16.263   3.809   6.035 -0.0572  0.0356 -0.2583
28537W        W44006  11.062   1.628  14.636  0.2453 -0.0614 -0.0414
28538W        W44007   5.618   2.499   5.587 -0.0473  0.0571  0.0887
28539W        W44008   9.434  13.444  11.524  0.1178  0.4882 -0.2572
28540W        W44009  13.243   5.014  12.858 -0.0492 -0.4839 -0.2688
28541W        W44010   6.830  15.747   2.543  0.0585 -0.0026 -0.0540
28542W        W44011  14.760  10.398   0.323 -0.0114  0.2130 -0.0121
28543W        W44012  15.419   0.318   1.567 -0.1092 -0.1090 -0.0338
28544W        W44013  17.762   7.585  12.093 -0.1135  0.0900  0.0012
28545W        W44014  15.718   1.729  14.867 -0.1956 -0.0517 -0.0092
28546W        W44015  14.429   6.685   2.626  0.1686 -0.0926  0.3615
28547W        W44016   1.363   6.887  12.454  0.0386  0.0656 -0.1029
28548W        W44017  18.238   8.299   4.635 -0.2250  0.0829 -0.4088
28549W        W44018  13.250   2.137   2.640  0.0596 -0.0905 -0.1911
28550W        W44019  10.471   2.340  12.282  0.1478  0.0241  0.1615
28551W        W44020   1.976  15.232   4.993 -0.2243 -0.0014 -0.1018
28552W        W44021   5.570  16.861  13.543  0.1922  0.2675  0.0299
28553W        W44022   8.633   1.200  15.725  0.2376 -0.0256 -0.0301
28554W        W44023  15.158  15.997   5.350  0.1988 -0.2402  0.0964
28555W        W44024  10.653   4.183   1.603  0.1125  0.0671 -0.0637
28556W        W44025  16.274  13.202   9.966 -0.0566 -0.0254  0.2493
28557W        W44026   1.013   5.223  14.457 -0.0501  0.1346 -0.1645
28558W        W44027  13.374   0.287   0.820  0.0806  0.3052  0.1118
28559W        W44028   2.286   5.726  11.950 -0.0734 -0.0414  0.2685
28560W        W44029  12.989  11.319  13.490 -0.1044 -0.1910 -0.1978
28561W        W44030  14.978   5.237  12.743  0.0270 -0.0161 -0.2524
28562W        W44031   9.079   2.011   0.881  0.0583 -0.0653 -0.2764
28563W        W44032   7.766   3.398  12.560  0.3035  0.0289 -0.3502
28564W        W44033   5.491   1.669   3.356  0.0036 -0.0378  0.1575
28565W        W44034  17.229   1.664  11.801 -0.0468  0.0895  0.1465
28566W        W44035  10.423   2.761   0.539 -0.0238  0.1478 -0.0805
28567W        W44036   8.419  16.196  13.064 -0.1722  0.1436  0.1686
28568W        W44037  16.904  15.017  14.747 -0.0241 -0.1476 -0.1237
28569W        W44038  11.751   2.595   0.683 -0.0614 -0.1241 -0.3114
28570W        W44039  12.163  17.711  15.106 -0.1675  0.1189 -0.1549
28571W        W44040   4.095   2.558  12.803 -0.2958 -0.2145  0.2925
28572W        W44041  11.476  12.772   1.623 -0.1803  0.0949  0.1399
28573W        W44042  17.724  14.694   4.198 -0.0130  0.0999  0.1000
28574W        W44043   5.670   5.876  13.127  0.0754 -0.0640  0.3177
28575W        W44044   4.161   3.348   2.693 -0.1931  0.1345  0.5446
28576W        W44045   9.727  14.128  10.127 -0.1475 -0.1202 -0.3027
28577W        W44046  14.020   8.962  14.918  0.0831 -0.1065  0.0923
28578W        W44047   3.456   2.392  14.117  0.0192  0.0700  0.1058
28579W        W44048   2.875  13.219   4.819  0.2694 -0.1489  0.1320
28580W        W44049  17.161   6.511   3.065  0.1289  0.3696  0.3870
28581W        W44050   4.543   7.905   0.221  0.0560 -0.0734 -0.4722
28582W        W44051   3.410   5.392   3.447 -0.3104 -0.0502  0.2467
28583W        W44052  17.594   6.427   1.693  0.2099  0.2257  0.1069
28584W        W44053   7.216  13.767  15.415 -0.0428  0.3082  0.1202
28585W        W44054  14.147  11.741  12.384 -0.1213 -0.1667  0.1234
28586W        W44055   2.292   6.130   3.184 -0.1101 -0.2062  0.0816
28587W        W44056   0.055   6.706   0.287  0.0011  0.1694 -0.0132
28588W        W44057   2.121  14.064  14.006  0.0922 -0.0326 -0.1139
28589W        W44058  10.764   7.199  12.235  0.3039 -0.3189  0.1037
28590W        W44059  15.326  10.302   1.184 -0.2553 -0.0813 -0.1307
28591W        W44060   3.969   1.416  14.220 -0.0148  0.1768 -0.0365
28592W        W44061   1.795   0.775  14.754  0.1634  0.2177  0.1215
28593W        W44062  13.881  17.452   2.801 -0.1241  0.2501 -0.3378
28594W        W44063  10.511  12.013   3.312  0.0133 -0.0475  0.2490
28595W        W44064   0.112  14.355   3.430 -0.1715  0.0916  0.0732
28596W        W44065  10.967   5.641   4.745 -0.2455  0.1518 -0.0016
28597W        W44066   9.908  14.378   1.589 -0.0231  0.0358  0.1236
28598W        W44067  16.352   0.749  11.914  0.3639 -0.0837 -0.0126
28599W        W44068   0.240   0.328   6.142 -0.2329 -0.0053  0.0031
28600W        W44069  15.026  12.436   0.622 -0.1826  0.0599 -0.0291
28601W        W44070   7.333   3.626   4.317  0.1637  0.2391  0.0948
28602W        W44071   9.784   3.019   5.384 -0.0564  0.1394  0.1062
28603W        W44072   6.375   5.769   2.804  0.0665 -0.1956 -0.1035
28604W        W44073  14.796  14.017   4.336  0.3195 -0.1391  0.1932
28605W        W44074   6.118   0.443   4.559 -0.1615  0.2164 -0.2798
28606W        W44075   2.243  17.937   3.568  0.0153  0.1985 -0.0617
28607W        W44076   8.284   6.378  13.905 -0.0655  0.0566 -0.3095
28608W        W44077   0.158  14.496   5.966  0.1528 -0.3500  0.4589
28609W        W44078   1.686   1.772  10.350  0.1110 -0.3448  0.2296
28610W        W44079   4.368  16.112   1.804 -0.0500 -0.0625  0.0055
28611W        W44080   7.729   6.842  14.905 -0.3226 -0.2350 -0.0077
28612W        W44081  14.466   9.387   0.784 -0.1129 -0.2213  0.4125
28613W        W44082   7.118   2.255  15.645  0.0180 -0.1420  0.2367
28614W        W44083  17.806  10.957  10.979  0.2863 -0.4991 -0.0336
28615W        W44084  11.944   9.032  15.010  0.1732  0.0507  0.2124
28616W        W44085   8.154  17.102  12.440 -0.0972 -0.0199 -0.3466
28617W        W44086   9.379  10.052   4.728  0.2679 -0.1138 -0.1934
28618W        W44087   0.979   1.736  15.114 -0.3277 -0.4452  0.1342
28619W        W44088   9.261  12.367   0.046  0.3416  0.1275  0.0910
28620W        W44089   9.830  14.437   0.301  0.3083  0.1378  0.0463
28621W        W44090   3.969  17.642   2.468  0.0653 -0.2075 -0.1213
28622W        W44091   4.953  13.793   4.172 -0.1400  0.1367  0.0417
28623W        W44092   3.898   6.383   2.904  0.1495  0.0546 -0.1190
28624W        W44093   6.319  15.944  12.759 -0.2164  0.3112  0.0354
28625W        W44094   6.474  10.456   5.749 -0.0249 -0.0686  0.2516
28626W        W44095  15.026   4.036  11.985 -0.0499 -0.1275 -0.0248
28627W        W44096  14.630  11.292   2.194  0.3080 -0.1124 -0.0316
28628W        W44097   5.205  16.382   4.021 -0.2134  0.1110 -0.0945
28629W        W44098   7.988  17.820   2.458  0.0486  0.0317  0.3018
28630W        W44099  15.408   3.600   1.485 -0.1351  0.0695 -0.2297
28631W        W44100   1.569  15.378  13.644 -0.1563  0.0549 -0.2736
28632W        W44101   7.010   5.343   3.364 -0.0491  0.0018  0.2457
28633W        W44102   5.266  17.451  15.037  0.2200  0.2099  0.1089
28634W        W44103  16.969  10.608   2.615 -0.1553 -0.1272 -0.0822
28635W        W44104   5.014   8.899  11.412 -0.3644  0.2956  0.0783
28636W        W44105  10.857  13.291  13.051 -0.1431  0.0204  0.0361
28637W        W44106   6.846   8.560   4.096  0.1877 -0.0650 -0.5692
28638W        W44107  17.388  17.565  12.473  0.0363 -0.2229 -0.0625
28639W        W44108   5.769  10.554  11.732 -0.3321 -0.1862  0.2072
28640W        W44109   2.664   1.450   3.486 -0.1908 -0.1745 -0.0413
28641W        W44110  11.614   8.687   4.692 -0.3063 -0.3162  0.3358
28642W        W44111   3.176   4.934  11.271  0.2544  0.0582  0.0534
28643W        W44112  13.605  13.657   0.316 -0.0741  0.0169 -0.0595
28644W        W44113   8.455   9.533  11.130  0.0708  0.0333 -0.1313
28645W        W44114   2.479   2.347   4.040  0.0192  0.4610 -0.0443
28646W        W44115   8.846  17.209  12.845 -0.0747 -0.1372  0.3495
28647W        W44116  16.107   8.524  11.544 -0.1216  0.0140 -0.4049
28648W        W44117   5.481  15.638  11.077  0.4345  0.1102  0.2510
28649W        W44118  10.954  12.952   1.831  0.2518  0.0468 -0.0834
28650W        W44119  17.153   5.629   0.824  0.1280 -0.0497  0.3225
28651W        W44120   5.509  13.693  14.866 -0.1429 -0.0762  0.1302
28652W        W44121   2.584   3.981   0.547 -0.1786 -0.0876  0.0806
28653W        W44122   0.990   2.840   2.711  0.0244 -0.0366 -0.0127
28654W        W44123   3.162   6.213  12.375 -0.2878  0.0823  0.0627
28655W        W44124  15.502   8.553   0.298 -0.0717 -0.0151 -0.0281
28656W        W44125   4.292   0.295   0.669  0.0015  0.1286  0.0483
28657W        W44126  11.004  17.269  13.076  0.0323 -0.1578  0.0564
28658W        W44127   4.434   3.369   3.552 -0.0660  0.0120  0.1123
28659W        W44128   1.447   5.020  13.739  0.0786 -0.2771  0.1821
28660W        W44129   6.149  16.833   3.770 -0.1965 -0.0890  0.1951
28661W        W44130  13.885   3.661   3.211  0.1754 -0.3013 -0.3842
28662W        W44131   3.383   7.796   1.545  0.1479 -0.1342  0.0681
28663W        W44132   7.350  12.712   2.197  0.1538 -0.2803 -0.3988
28664W        W44133  15.508   0.656  10.928  0.3137  0.1497 -0.0492
28665W        W44134  13.051   1.266   3.985 -0.2501  0.1404 -0.1185
28666W        W44135   9.051   6.564   5.526  0.0682  0.1646  0.1633
28667W        W44136  11.423   5.472  11.674  0.2031  0.0298  0.1340
28668W        W44137   5.936   5.815   0.354 -0.0384 -0.1975 -0.2066
28669W        W44138   0.463   8.224   0.512  0.2248 -0.0504  0.0969
28670W        W44139   3.595   8.364   3.661  0.0644 -0.3077 -0.0693
28671W        W44140   4.310   1.193  12.140 -0.1693  0.1646 -0.0206
28672W        W44141   1.837   1.388   3.455 -0.0282  0.0321  0.3946
28673W        W44142   3.310   1.514   3.722  0.0862  0.0483  0.0669
28674W        W44143   8.904  12.070  15.158  0.0958 -0.1822  0.1299
28675W        W44144  12.170   3.869  11.031  0.0313 -0.1634  0.0557
28676W        W44145  12.678  13.184  13.966 -0.0726 -0.0616 -0.3648
28677W        W44146   2.964  15.402  11.950 -0.0553  0.0440  0.1580
28678W        W44147  11.478  15.872   4.681 -0.1920 -0.1141 -0.1016
28679W        W44148   7.063  14.390   4.217  0.0461  0.0586 -0.1772
28680W        W44149  13.245  16.273   0.926 -0.3296  0.2109  0.1499
28681W        W44150  11.626  12.482   2.060 -0.1875  0.1607 -0.0738
28682W        W44151   2.632   2.930   2.560  0.0433  0.0296  0.2651
28683W        W44152  13.362  15.963   3.759  0.2159 -0.1056 -0.2575
28684W        W44153   6.294  14.945  11.805 -0.2696 -0.2886 -0.1335
28685W        W44154  14.819  17.397  12.464  0.1938 -0.0862 -0.1742
28686W        W44155  10.182  15.563  14.912 -0.3352  0.1576  0.1715
28687W        W44156   6.082   4.222   1.643 -0.1909  0.0981  0.2761
28688W        W44157  17.871   0.993  14.035  0.1543 -0.1133 -0.1373
28689W        W44158  15.814  14.381   2.878  0.2164 -0.3214  0.0672
28690W        W44159   3.804   6.993   5.214  0.0046 -0.3254  0.0113
28691W        W44160  17.191  17.843  15.794  0.1897  0.2060  0.2158
28692W        W44161   0.292  18.349   0.282 -0.0723  0.2269 -0.3074
28693W        W44162  13.008   1.289  12.878  0.1675  0.0320  0.1850
28694W        W44163  16.821  18.278  10.559 -0.0205 -0.0249 -0.1467
28695W        W44164   2.287  12.511  11.775 -0.1020  0.0428  0.3790
28696W        W44165  14.340   1.475  11.628 -0.0876 -0.0278 -0.1882
28697W        W44166  16.890  17.751   0.827  0.0287 -0.0312 -0.1353
28698W        W44167  12.816  13.832   2.871 -0.1937  0.1225  0.2082
28699W        W44168   3.752   8.718  11.339  0.0603 -0.1551  0.0017
28700W        W44169   3.520   5.578  11.162  0.2459  0.1982  0.1386
28701W        W44170  11.208   4.844  13.501  0.2790  0.3747  0.0258
28702W        W44171  10.366   0.017  11.878 -0.2347 -0.2145 -0.0264
28703W        W44172  17.913  11.759   3.971  0.0494  0.0426  0.2263
28704W        W44173  10.078  14.854   1.736  0.0978 -0.0595 -0.4241
28705W        W44174  14.816   3.143  14.209 -0.2267 -0.2925  0.0978
28706W        W44175  17.779  16.552   0.751  0.2984  0.0944 -0.0301
28707W        W44176   0.406  12.103  15.405  0.1464 -0.1366 -0.2558
28708W        W44177   9.559   4.284   0.151 -0.3154  0.1358 -0.3177
28709W        W44178  15.440  13.858  14.385 -0.0810 -0.3184 -0.2366
28710W        W44179  16.964   7.610  12.462  0.1292  0.0450  0.1546
28711W        W44180   9.222  11.291   2.431 -0.0459  0.1915  0.1344
28712W        W44181   8.562   7.525   0.745 -0.0181 -0.0502 -0.1354
28713W        W44182   6.897  17.701   5.427  0.0214  0.0577  0.0622
28714W        W44183  11.427  17.954  13.197  0.2229 -0.0825 -0.0037
28715W        W44184   2.040  12.366  12.262 -0.2886 -0.1064 -0.0048
28716W        W44185   6.020   2.380   1.680 -0.0570  0.1103  0.1783
28717W        W44186  13.366   4.744   1.928  0.0372 -0.2145 -0.0494
28718W        W44187   0.911   3.026  12.731 -0.0499  0.0540  0.0388
28719W        W44188  11.238   1.162  13.327 -0.1438  0.0505  0.0124
28720W        W44189  14.726   0.862   1.881 -0.0480 -0.0191 -0.0491
28721W        W44190   0.713   0.525   0.160  0.0775 -0.2051  0.1721
28722W        W44191   0.365   6.381   1.366  0.1029  0.0759 -0.1656
28723W        W44192   0.409  14.202   0.993  0.2374 -0.1932  0.1610
28724W        W44193  11.756  10.013   5.298 -0.1546 -0.3210 -0.0857
28725W        W44194   7.013   8.697   3.503  0.0362 -0.0996 -0.0681
28726W        W44195  12.415  12.031   1.959 -0.0402  0.1192 -0.1377
28727W        W44196  18.261  11.407   0.448  0.1026 -0.0577  0.1893
28728W        W44197   7.146  11.373   2.913  0.3260 -0.0156  0.0665
28729W        W44198  11.682  13.293  15.706  0.0041 -0.1412  0.1000
28730W        W44199   9.368   8.656   0.012  0.0834  0.2015  0.0200
28731W        W44200   6.880  14.803   2.509  0.0517 -0.0114 -0.0109
28732W        W44201   3.323   0.176  13.679  0.0762  0.1898  0.1899
28733W        W44202  18.217   9.626   4.603 -0.0889  0.0309  0.1772
28734W        W44203   9.542   7.536   0.862  0.1520 -0.2453 -0.1087
28735W        W44204  10.607  10.234  15.482  0.0318 -0.0593 -0.1110
28736W        W44205  14.497  11.860  14.587  0.0032 -0.0475 -0.1416
28737W        W44206   3.022  17.397  10.555  0.0559 -0.4186 -0.1254
28738W        W44207  18.170  15.048   4.788  0.1484 -0.1574 -0.1446
28739W        W44208   6.930  10.009  12.926 -0.1476 -0.0159 -0.0194
28740W        W44209  15.313  13.388  14.571  0.0968  0.0568  0.0626
28741W        W44210   8.118  10.615   5.046  0.2455 -0.0846  0.0142
28742W        W44211  18.283   1.937  11.686  0.1970  0.2788  0.0086
28743W        W44212  18.110  11.912   2.099 -0.0539  0.2033 -0.0176
28744W        W44213   2.573   2.945  13.237 -0.0556 -0.4763  0.1273
28745W        W44214   7.680   7.035  14.039  0.3078 -0.0521  0.0107
28746W        W44215   5.286   8.582  14.365 -0.0131  0.1695 -0.2448
28747W        W44216   4.597   7.467  12.502  0.0202  0.0865 -0.1038
28748W        W44217   6.687  13.496  13.223  0.1438 -0.0608  0.3945
28749W        W44218  11.085   8.686   4.641  0.0879  0.1278  0.1768
28750W        W44219   4.121   6.393   3.428 -0.1072 -0.0565  0.1760
28751W        W44220   1.784   3.724   4.696 -0.0067 -0.1981  0.1020
28752W        W44221   3.046  12.905  11.240 -0.0502  0.1137 -0.0236
28753W        W44222  12.796   6.651  14.910  0.1232  0.1405  0.0061
28754W        W44223   4.321   0.607  12.735 -0.0970  0.2119  0.0632
28755W        W44224  13.016  12.294  10.502  0.0578  0.1575 -0.1998
28756W        W44225   1.991   2.772   4.439 -0.2829 -0.2364 -0.3776
28757W        W44226   1.657   9.764  15.623  0.0162 -0.2319 -0.0070
28758W        W44227   8.917   3.347   5.535 -0.1125 -0.0348  0.0094
28759W        W44228  16.430  15.206  14.352 -0.0755  0.1790  0.1584
28760W        W44229  11.898   0.097  13.211 -0.0966  0.0102 -0.0157
28761W        W44230   4.663  10.863  15.899  0.0542  0.2054  0.4658
28762W        W44231  15.406  16.969  14.175 -0.1058 -0.3031 -0.0505
28763W        W44232   8.323   7.545   4.783 -0.1827 -0.0806  0.0100
28764W        W44233   9.239   2.479  14.050 -0.0592  0.1475  0.1721
28765W        W44234   3.993  13.374  14.420 -0.0601 -0.0094  0.2968
28766W        W44235   3.796   0.608  15.353  0.3174 -0.2813  0.0301
28767W        W44236   7.509  17.963   1.185 -0.0265  0.1197 -0.0402
28768W        W44237   3.387   2.379   4.158  0.0214  0.3024  0.2593
28769W        W44238   4.465   0.937  11.295  0.0253 -0.2414  0.1048
28770W        W44239  13.549   2.149  11.612 -0.0600  0.0357 -0.0003
28771W        W44240  14.307  13.987   2.029 -0.1358 -0.2473 -0.0967
28772W        W44241   3.079   6.395   5.559  0.0234  0.2613  0.1570
28773W        W44242  13.603  17.167   4.713  0.0966  0.1801  0.2088
28774W        W44243  14.275   8.518   3.985  0.2277 -0.1844 -0.2538
28775W        W44244   9.981   6.073   4.104 -0.1158 -0.0438  0.1094
28776W        W44245   6.958  16.166  15.585 -0.2628 -0.0425  0.0513
28777W        W44246   5.902  12.629   0.552  0.1394  0.1364  0.2780
28778W        W44247   4.307   6.950   5.312  0.1834 -0.0209 -0.3273
28779W        W44248   0.954   9.466  11.646  0.1447  0.3043 -0.1772
28780W        W44249   2.645   0.529  15.201  0.2242  0.1581 -0.1911
28781W        W44250  18.190  10.024  11.046 -0.3473  0.1026 -0.2933
28782W        W44251  17.289   8.737   0.969 -0.0176  0.0129  0.0966
28783W        W44252   2.904  15.524   5.033 -0.0722 -0.2700 -0.0293
28784W        W44253   4.084  14.542  11.210  0.3640  0.0739  0.0141
28785W        W44254   2.195  14.070  11.553 -0.1169 -0.0898 -0.1499
28786W        W44255  14.178   1.707  15.819 -0.1342  0.0071  0.3135
28787W        W44256   0.480  11.755  14.398  0.0271  0.1228 -0.1728
28788W        W44257  18.359   9.260   4.278  0.2970  0.1653  0.1392
28789W        W44258  13.781  14.715  14.758 -0.0088  0.0425 -0.1518
28790W        W44259  14.931   3.844   0.561  0.3817 -0.0571  0.1195
28791W        W44260   4.665   2.841  13.173  0.1483  0.0375 -0.1219
28792W        W44261  15.704   9.496   2.309 -0.0492 -0.4631 -0.0970
28793W        W44262   7.276   3.633   4.805 -0.0221 -0.0583 -0.4025
28794W        W44263  14.204  16.374  14.485 -0.0521  0.1837  0.2400
28795W        W44264  11.521   3.605   2.884 -0.0680  0.0565 -0.0891
28796W        W44265  12.966   1.432   4.444  0.2382  0.0622 -0.3261
28797W        W44266  16.321   8.427  10.997  0.0847 -0.0498 -0.1364
28798W        W44267  16.850   7.374  12.983 -0.1018  0.1856 -0.0411
28799W        W44268  14.204  14.654  12.036 -0.2023  0.3024  0.2313
28800W        W44269  11.691  11.481  15.334  0.6842  0.0502 -0.3120
28801W        W44270   0.843  17.540  12.185 -0.1796  0.1173  0.1147
28802W        W44271  12.521  11.041  11.468 -0.3019 -0.1221 -0.3591
28803W        W44272  10.668  10.453   3.999  0.1515  0.0087 -0.2601
28804W        W44273   8.679  15.103   4.128  0.0470 -0.1445 -0.1731
28805W        W44274   8.418   5.651   3.742 -0.0578  0.2008 -0.1066
28806W        W44275   6.642   1.468  10.997 -0.3254  0.1281  0.0077
28807W        W44276  10.556   0.169   5.626 -0.5385 -0.0934 -0.0936
28808W        W44277   3.023  10.318   1.386 -0.0619 -0.1330  0.0835
28809W        W44278   2.190  15.844  15.216 -0.1127 -0.1052  0.3246
28810W        W44279  18.339   1.512  13.079  0.0300 -0.1116  0.0905
28811W        W44280   6.880  14.246  10.869  0.1667 -0.3285  0.1001
28812W        W44281   5.833   1.862   2.364 -0.0948  0.1683 -0.0796
28813W        W44282   4.724   8.532  11.603 -0.1376  0.1076  0.1044
28814W        W44283  12.226  15.492   4.214  0.3655  0.1151  0.0032
28815W        W44284   1.721  17.130   5.207 -0.2851  0.1542 -0.0136
28816W        W44285   4.280  11.377   4.402  0.1854 -0.2190  0.1096
28817W        W44286   9.990   1.602   1.417  0.4532  0.2098 -0.2923
28818W        W44287  10.184   7.045   2.997  0.1104 -0.2809  0.0807
28819W        W44288   0.868   0.053  15.825 -0.0066 -0.1539  0.1507
28820W        W44289  12.141  13.207   3.236 -0.0093 -0.0073  0.1426
28821W        W44290   9.945  18.354  13.921 -0.1165  0.0429  0.3039
28822W        W44291  17.362   7.335  12.747  0.0742 -0.2710  0.1099
28823W        W44292  12.699   4.226  15.460 -0.3382 -0.3867  0.0567
28824W        W44293   6.697  16.163   4.907  0.1138  0.2144  0.1685
28825W        W44294   4.066   6.155  11.071 -0.1088  0.1074 -0.1270
28826W        W44295  13.098  13.318  12.571  0.1176  0.1677 -0.2145
28827W        W44296  17.044   9.400   3.437  0.0669 -0.1385 -0.2386
28828W        W44297   9.229   0.643  11.126 -0.0971 -0.1414  0.1377
28829W        W44298  16.512   1.962   1.042 -0.2972  0.4183 -0.0845
28830W        W44299   5.612   5.535   4.231  0.0079  0.1002 -0.0362
28831W        W44300  10.614  10.666   2.311 -0.1505 -0.2552 -0.2288
28832W        W44301  10.583  12.147   4.240 -0.1739  0.1868  0.0069
28833W        W44302  17.863  13.390   4.095 -0.3001  0.2432  0.0322
28834W        W44303  14.951  12.394   2.138  0.3528  0.1579 -0.1126
28835W        W44304   6.429   2.476   0.882 -0.0192  0.1887  0.0059
28836W        W44305   2.324  12.101  10.248 -0.0482 -0.0356 -0.2863
28837W        W44306  13.253   5.855  13.987 -0.0874 -0.0377  0.2534
28838W        W44307   9.604   9.458   0.040  0.2760  0.0109 -0.1886
28839W        W44308  12.302  11.371   5.522  0.0006  0.1547  0.0825
28840W        W44309  11.029  10.269   0.814  0.0344  0.3109  0.1225
28841W        W44310  14.452  12.436  12.792  0.0609 -0.0663  0.2091
28842W        W44311   7.941  16.455   5.548 -0.0004  0.1181  0.1040
28843W        W44312   2.828  15.670  11.084  0.1010 -0.1531 -0.0084
28844W        W44313   6.702  17.980  11.953 -0.1175  0.0927 -0.3720
28845W        W44314   0.258   5.594   0.608  0.0538 -0.1759 -0.2017
28846W        W44315   0.725  15.648   0.277  0.1531 -0.1577  0.1093
28847W        W44316   2.065   0.857  12.780  0.2301 -0.0633 -0.1834
28848W        W44317   0.680  14.214   0.460 -0.0333 -0.1210 -0.1304
28849W        W44318   8.761   4.489   4.685  0.0110 -0.1298 -0.2711
28850W        W44319  15.499   6.855  12.214 -0.3544  0.1577 -0.2193
28851W        W44320   7.677   3.062   3.377 -0.0050 -0.0511  0.2456
28852W        W44321   2.968   4.378   1.207 -0.0169 -0.0586  0.2634
28853W        W44322  17.835  17.775   3.396 -0.1032 -0.1026 -0.0944
28854W        W44323   8.418   1.264  11.667 -0.0368  0.2117 -0.2542
28855W        W44324   0.184  14.211  12.720  0.0227 -0.2234 -0.1039
28856W        W44325   3.248   1.376  11.951  0.3048 -0.0836 -0.0095
28857W        W44326  12.659   9.116   1.543  0.0596  0.0584 -0.2202
28858W        W44327  15.499   0.695  11.422  0.0764  0.1789  0.1765
28859W        W44328   2.971   2.999  12.303 -0.2716  0.1720  0.1223
28860W        W44329   3.513  13.500  14.490  0.0948 -0.0358 -0.2834
28861W        W44330   9.337   3.098   3.564  0.4085 -0.0948 -0.0611
28862W        W44331   4.051   2.533   2.059  0.0195 -0.2805  0.1191
28863W        W44332   6.905   1.344   0.076  0.4176  0.0735  0.0975
28864W        W44333  14.520  18.081  10.131 -0.3317 -0.1543 -0.1064
28865W        W44334   5.926  11.031  10.685  0.1829 -0.0771  0.1132
28866W        W44335   3.722  16.906  12.731 -0.0897  0.2052 -0.1510
28867W        W44336   5.108   2.388  15.470 -0.4034  0.1289 -0.3200
28868W        W44337  13.695  11.912  13.792  0.2881 -0.0204  0.0642
28869W        W44338  13.502  15.246  13.447  0.0008 -0.1371  0.0114
28870W        W44339  10.028   0.498   6.263 -0.1479 -0.0804 -0.0360
28871W        W44340   5.670   1.348   5.089  0.0345  0.1080  0.1572
28872W        W44341  14.932  10.971   1.031 -0.0826 -0.3330  0.2465
28873W        W44342  11.730  18.316  15.092 -0.1658  0.1901 -0.1773
28874W        W44343  17.493   5.511   2.181  0.1053  0.1198 -0.1647
28875W        W44344  17.355   8.684  14.249 -0.0942  0.0626  0.0820
28876W        W44345   9.418  16.006  12.968  0.1465  0.4796 -0.2246
28877W        W44346   0.606   9.895   3.540  0.0114  0.1721  0.0679
28878W        W44347   3.610   1.144  15.794 -0.0392 -0.0034  0.4832
28879W        W44348  15.238   6.370   2.057 -0.2286 -0.2273 -0.0263
28880W        W44349   2.320   8.686   0.534 -0.0394  0.0883 -0.1287
28881W        W44350   1.895   0.486  12.508  0.0559 -0.1688  0.1162
28882W        W44351  16.463   1.258  13.020  0.1382  0.0656 -0.0669
28883W        W44352   2.789  13.034   5.391  0.0530 -0.1387 -0.1523
28884W        W44353   4.694  14.184   0.950  0.0686  0.0067  0.2131
28885W        W44354   8.689  10.091   4.113 -0.4049 -0.1387 -0.0032
28886W        W44355  15.884  16.624  11.769  0.2861 -0.1978 -0.2765
28887W        W44356   7.679   8.041   1.888 -0.0638  0.3980 -0.0098
28888W        W44357   4.319  10.067  11.393  0.1122  0.1352 -0.2394
28889W        W44358   1.539  11.276  11.253 -0.2895  0.3166 -0.1985
28890W        W44359  16.133   9.078   5.946 -0.1211 -0.0522 -0.0186
28891W        W44360   1.043  12.972   1.437  0.1949 -0.0874  0.1073
28892W        W44361  12.787  16.280  14.878  0.1561  0.2043 -0.3918
28893W        W44362  17.230   9.134  13.531  0.3889  0.3803  0.0227
28894W        W44363   4.109  15.467   0.647  0.1227  0.0255 -0.1051
28895W        W44364   2.100  10.177  10.601  0.2398 -0.2663  0.0831
28896W        W44365  12.387   8.006  11.960  0.0904  0.1221  0.2820
28897W        W44366   5.271   0.338   5.607 -0.1248 -0.2995 -0.1135
28898W        W44367  17.385  17.139  12.276 -0.3105  0.0177 -0.3851
28899W        W44368  15.309   1.522   1.538  0.2964 -0.3318  0.0564
28900W        W44369  15.311  15.771   2.450  0.2409 -0.0210 -0.0320
28901W        W44370  12.884   2.144   3.025  0.0294  0.0993  0.0868
28902W        W44371   9.425   6.721  13.697  0.0504 -0.0235  0.1763
28903W        W44372   5.495   5.636  11.849 -0.1379 -0.0285  0.1320
28904W        W44373   0.658   4.782   2.567 -0.0291 -0.2490  0.0992
28905W        W44374   7.628  13.600   3.091  0.0260 -0.1638  0.0807
28906W        W44375   1.307  14.098  14.848 -0.3987  0.3379  0.1141
28907W        W44376   9.409   9.405  14.108  0.2513  0.0346  0.3429
28908W        W44377   8.992  14.075   4.582 -0.3195  0.0599  0.1788
28909W        W44378   5.891  13.186  13.719 -0.3285 -0.2144 -0.0979
28910W        W44379   4.766  16.599   4.244 -0.0111 -0.0735 -0.0423
28911W        W44380   0.644   5.237   2.155 -0.4104 -0.0797 -0.0717
28912W        W44381  13.706  11.405   4.013 -0.1694  0.1093  0.1762
28913W        W44382   0.589  11.918   2.544 -0.2432  0.1181 -0.1680
28914W        W44383  11.079   0.948   3.468  0.3877  0.0857 -0.2754
28915W        W44384  11.965   9.119  14.549  0.0896  0.3139  0.0538
28916W        W44385   4.916   0.707  15.525 -0.2222  0.0474  0.0500
28917W        W44386   2.487   9.501  14.799 -0.0818  0.2620  0.0758
28918W        W44387  16.573   6.809   0.304  0.2293  0.0336 -0.0805
28919W        W44388   5.133   3.089   3.276  0.0287  0.2044  0.0682
28920W        W44389  17.435  13.386   5.100 -0.2475 -0.3956 -0.0109
28921W        W44390  12.193  16.074   0.914  0.2866  0.1633 -0.2559
28922W        W44391  16.935   5.954  14.165  0.3836  0.0707 -0.2408
28923W        W44392  14.057   9.749  13.285 -0.0709  0.0257  0.1574
28924W        W44393  12.640   8.151   4.824 -0.1586 -0.0804 -0.1110
28925W        W44394   6.456   3.752  11.650  0.2662 -0.3129  0.2238
28926W        W44395   3.640   9.353   0.422  0.1613 -0.1757  0.0744
28927W        W44396  15.878   0.849  11.732  0.1647  0.0941  0.0604
28928W        W44397  12.240   2.902  15.848 -0.5878  0.1231  0.1153
28929W        W44398  17.311   0.792   1.229  0.1173  0.0782  0.1491
28930W        W44399   8.127  11.657  11.275  0.0823  0.0157 -0.1048
28931W        W44400  16.995  15.792  13.022  0.1750 -0.0446 -0.0915
28932W        W44401   5.791   7.105  15.295  0.1090  0.1710 -0.0938
28933W        W44402   8.579   6.628  12.802  0.2256  0.0847  0.0347
28934W        W44403  14.471  16.122   1.178 -0.1630  0.0205 -0.4147
28935W        W44404   2.837   2.850   6.357  0.2938  0.2008 -0.1303
28936W        W44405  18.163  17.899   2.977  0.2204  0.1227  0.0727
28937W        W44406  16.725   9.226  11.380  0.0328  0.1431  0.0169
28938W        W44407   0.977  13.119  14.383 -0.0584 -0.0403  0.1354
28939W        W44408   7.503   4.110   4.376  0.1146 -0.2314 -0.1288
28940W        W44409   4.792   7.011   0.103  0.1208  0.1095 -0.1438
28941W        W44410   6.529  13.691  15.057  0.1217 -0.0304  0.0464
28942W        W44411   1.466  12.803   1.195 -0.1214  0.0906 -0.2116
28943W        W44412  10.655   2.162  11.880 -0.3482  0.0263 -0.0125
28944W        W44413   0.780   6.834   2.091 -0.1337 -0.0908 -0.0312
28945W        W44414  12.279  15.700  12.793  0.2888  0.5384  0.2265
28946W        W44415  15.538  15.596   1.436  0.0325 -0.1084 -0.0076
28947W        W44416   7.391   5.649   4.377 -0.0943  0.1686  0.1190
28948W        W44417   3.987   8.195   4.982 -0.1104  0.0397 -0.2680
28949W        W44418  11.422   3.517  14.964  0.0122  0.1529 -0.0189
28950W        W44419  15.930   7.484  12.464  0.0949 -0.0609 -0.0024
28951W        W44420   0.413  16.646   2.742  0.1841  0.0245  0.1820
28952W        W44421   8.732   2.100  14.922  0.0294 -0.1809 -0.1966
28953W        W44422   0.806  10.734  13.041 -0.2791 -0.3038 -0.3597
28954W        W44423  15.392  10.035  15.166  0.1637 -0.3248 -0.0113
28955W        W44424   2.090   1.157   5.285 -0.1791 -0.4367  0.2939
28956W        W44425  18.393  11.429  10.404  0.0471 -0.0359 -0.4636
28957W        W44426   7.237  16.968   1.022  0.3740  0.1552 -0.0146
28958W        W44427  14.596   2.546   0.583 -0.1031 -0.3561  0.0973
28959W        W44428   4.837   0.515   0.570 -0.1727  0.3041  0.1556
28960W        W44429  17.516   5.810   4.213  0.0253 -0.0921 -0.2655
28961W        W44430  14.741   7.730   4.262 -0.1618 -0.0255 -0.0296
28962W        W44431  15.458   3.734  14.769  0.2135  0.1012 -0.2610
28963W        W44432  12.683  14.365   2.968 -0.2901 -0.0793 -0.0032
28964W        W44433  17.309   4.770  13.636 -0.1104  0.1914 -0.1691
28965W        W44434   3.923   4.440   0.657 -0.1589 -0.0666 -0.2404
28966W        W44435   8.088  18.029  12.320  0.2671 -0.1599  0.0518
28967W        W44436  14.238  10.981  15.570 -0.2814 -0.2329  0.1290
28968W        W44437   7.640  17.650   2.089 -0.2569  0.0655 -0.1469
28969W        W44438   8.481   6.300   2.756  0.0453 -0.1838  0.1590
28970W        W44439   3.650   4.687  15.443 -0.1697 -0.2293 -0.2678
28971W        W44440  10.737   0.290   5.119 -0.2255  0.0205 -0.2076
28972W        W44441  16.277  18.446   2.877  0.1521  0.1966  0.3863
28973W        W44442  11.766  12.728  14.655 -0.1221 -0.0296 -0.0602
28974W        W44443  12.441   5.817   1.538 -0.0746  0.1643  0.0911
28975W        W44444  12.213   2.789  10.663 -0.1194  0.3515  0.0152
28976W        W44445  15.504   4.928  11.004 -0.0321 -0.1772 -0.2557
28977W        W44446  18.404   5.959  11.232  0.2067  0.1119  0.1293
28978W        W44447   4.210   8.343   3.024 -0.3925  0.2499 -0.2922
28979W        W44448  13.540   6.487   4.199 -0.1878  0.0164  0.0135
28980W        W44449   1.403   3.747  13.716  0.2588 -0.1518 -0.2105
28981W        W44450  10.461  17.774  13.441  0.2529 -0.0159  0.3059
28982W        W44451   3.080  11.790  13.851 -0.2240  0.0880 -0.1919
28983W        W44452   7.054   9.970   1.375  0.0198 -0.0788  0.0548
28984W        W44453   8.687   2.110  13.973  0.0453  0.0810 -0.0355
28985W        W44454   8.238  16.129   1.850 -0.0552  0.0650 -0.0574
28986W        W44455   5.366   2.551  11.658  0.2668  0.1051 -0.1152
28987W        W44456   2.287  14.381   0.737 -0.1249  0.3943 -0.0154
28988W        W44457  16.587   9.670   2.611  0.1329  0.1079  0.1136
28989W        W44458   9.145   0.535   1.740 -0.0835  0.1086 -0.0444
28990W        W44459   4.931   6.601   9.838  0.2263  0.1111  0.0612
28991W        W44460   9.902  17.205   5.079  0.3789 -0.2957  0.1165
28992W        W44461   8.447  17.235   0.451 -0.0189  0.3040  0.3082
28993W        W44462  15.771   6.279  11.554  0.3000 -0.0600  0.2791
28994W        W44463   0.989   3.246  13.527  0.4070  0.3451 -0.1613
28995W        W44464   7.626   1.786   4.628 -0.0982 -0.2146  0.0490
28996W        W44465   2.186  15.768  14.256 -0.0324  0.2119 -0.1478
28997W        W44466  15.993   9.151  13.871  0.1422 -0.1295  0.0477
28998W        W44467   4.497   1.396   0.809 -0.1065 -0.1114  0.2876
28999W        W44468   3.693   1.334  12.826 -0.3483 -0.0746 -0.1168
29000W        W44469  16.992  15.444   1.937 -0.2517  0.1163 -0.0079
29001W        W44470  14.321   3.674  14.684  0.0577  0.4281 -0.0610
29002W        W44471   1.818   5.604   4.901 -0.3386 -0.0419  0.2894
29003W        W44472   1.956   8.857  10.328  0.0621  0.0081 -0.2265
29004W        W44473   0.575   3.821  14.716  0.0490 -0.0427 -0.0266
29005W        W44474   5.849  16.235   1.115  0.2558 -0.2210  0.0537
29006W        W44475   4.465  17.455  11.890 -0.6125  0.3000 -0.2792
29007W        W44476   8.091   8.737  15.202 -0.0272 -0.0751  0.0816
29008W        W44477   1.580  10.192   1.219  0.4146 -0.1026 -0.2757
29009W        W44478   4.559   1.715   0.111 -0.1325 -0.3495 -0.2586
29010W        W44479  10.882   2.237  10.584 -0.0694 -0.3108  0.0108
29011W        W44480  10.907   0.665   3.123  0.2910  0.0118 -0.1214
29012W        W44481   8.457   7.340   0.271 -0.2492  0.0808  0.1144
29013W        W44482  17.961  12.643  13.006 -0.1925  0.2440  0.3153
29014W        W44483   9.928   0.507   0.442 -0.0736  0.1150  0.1272
29015W        W44484  12.446   6.234  14.255  0.2844 -0.3243 -0.0249
29016W        W44485  16.641  16.231  10.612  0.1266 -0.0891  0.0859
29017W        W44486   4.406  12.588  11.340 -0.1188 -0.3590  0.0843
29018W        W44487   6.904  14.857   1.488  0.1843  0.0669  0.3263
29019W        W44488  17.550  10.754   1.301 -0.0862  0.1761 -0.4593
29020W        W44489   3.592  14.488  14.527 -0.3534  0.2674 -0.2847
29021W        W44490   7.387  17.431   1.187  0.0406  0.1874 -0.3081
29022W        W44491   0.198  14.691   0.133  0.0947 -0.2738 -0.3504
29023W        W44492   4.446  18.168   5.271 -0.0792  0.0768  0.0566
29024W        W44493   6.646  12.913   1.904  0.4622 -0.1062 -0.1607
29025W        W44494  16.463   9.598   1.993 -0.1504  0.0532  0.1229
29026W        W44495   4.754  17.595   4.472  0.2183  0.0609  0.1411
29027W        W44496  12.357   8.629  12.506 -0.4126 -0.0611  0.1705
29028W        W44497   7.703  15.024   3.782 -0.0825  0.0807 -0.0669
29029W        W44498   0.404  18.367  13.485 -0.0173 -0.3203  0.1805
29030W        W44499   0.879   5.357  12.601  0.1814  0.2616  0.2803
29031W        W44500  10.549   3.902  15.033 -0.0958 -0.0532  0.0777
29032W        W44501  12.516   5.091  15.348  0.0646  0.2037  0.1049
29033W        W44502  14.662   2.791  14.521  0.1448 -0.0160  0.1907
29034W        W44503   8.914  11.676  11.469 -0.0249 -0.2579  0.0396
29035W        W44504  15.429   0.971  12.177 -0.2581 -0.0254 -0.0110
29036W        W44505  16.642   2.005  13.693 -0.3090 -0.1693 -0.1365
29037W        W44506  13.992  12.745   4.714 -0.2137  0.0362  0.1343
29038W        W44507  12.955  10.315   3.008 -0.0049 -0.0905  0.5324
29039W        W44508   9.681   4.318   1.123 -0.1569 -0.4626  0.3017
29040W        W44509  16.113   9.118   0.069  0.0103  0.0905 -0.2636
29041W        W44510  15.964   5.472  15.070 -0.0498 -0.0281 -0.1127
29042W        W44511  11.874   1.627  15.246 -0.1284 -0.0866 -0.1595
29043W        W44512   5.104   6.515   3.461 -0.1191 -0.0284  0.1919
29044W        W44513   9.328   6.711  11.966 -0.1866 -0.0098  0.1331
29045W        W44514   5.517   8.114  15.002  0.0824 -0.0589  0.2522
29046W        W44515  15.140  10.227  13.608 -0.0917 -0.0483  0.2310
29047W        W44516  11.560   0.730   3.603  0.3603  0.5473  0.1174
29048W        W44517   8.887  10.164   2.188  0.2482 -0.3366  0.1806
29049W        W44518  16.824   5.747  10.907  0.0525 -0.0807  0.1076
29050W        W44519   4.509   9.803   3.951  0.0975  0.0118  0.1306
29051W        W44520   4.512  12.215  14.508  0.2032 -0.1889  0.0275
29052W        W44521  12.857   6.321   4.385  0.1065  0.0590 -0.1709
29053W        W44522  13.057  13.520  14.984  0.1632 -0.1025 -0.2428
29054W        W44523   5.630  15.439   2.042 -0.4429 -0.0166 -0.2060
29055W        W44524   9.531  14.460   2.386  0.0596 -0.0638 -0.2164
29056W        W44525   3.871  11.639   3.632  0.0651 -0.1103  0.2734
29057W        W44526   5.414   0.808   2.437  0.3336  0.1269 -0.0670
29058W        W44527   7.932  14.028   3.346  0.1111  0.0697  0.4164
29059W        W44528  14.296   2.728  12.566 -0.0384  0.5643  0.1448
29060W        W44529  16.053  16.547   2.568 -0.1699  0.4247  0.2362
29061W        W44530  18.125  14.323   2.547 -0.2310 -0.3211 -0.0879
29062W        W44531  17.574  17.857   4.426 -0.0010 -0.5224  0.2047
29063W        W44532  14.153   4.281  11.291  0.3094 -0.0849 -0.1682
29064W        W44533  12.714   3.212  13.065 -0.0099 -0.1775 -0.1626
29065W        W44534  16.854   8.247   0.205 -0.1709 -0.2234  0.0226
29066W        W44535  12.147   2.053   1.723 -0.0972  0.2269 -0.3282
29067W        W44536   1.161  12.387  14.878 -0.2504  0.0560  0.3597
29068W        W44537   3.531   7.332  14.560 -0.0453 -0.2655 -0.1887
29069W        W44538   1.899   1.196   4.041 -0.1520  0.2781  0.0419
29070W        W44539   6.664   3.431   3.747 -0.0952 -0.1004  0.0919
29071W        W44540  17.986   4.997   2.839 -0.0618 -0.0727 -0.0532
29072W        W44541  17.092  12.718   0.810  0.1005 -0.1340 -0.3767
29073W        W44542   1.025   4.301  12.325 -0.3162 -0.1578 -0.0126
29074W        W44543  17.319  10.802   2.204 -0.0316 -0.2196  0.2278
29075W        W44544  16.985   8.367  14.317 -0.1327  0.1970  0.2394
29076W        W44545  15.762   4.005   1.020  0.0129 -0.1577  0.1988
29077W        W44546   2.913   4.972  14.790  0.0608 -0.0162 -0.2329
29078W        W44547   1.966  14.318   2.949 -0.2885  0.2489 -0.0043
29079W        W44548   4.854   9.016   1.066 -0.3438 -0.1968  0.0213
29080W        W44549   3.837   7.707   1.458 -0.0831  0.1179 -0.1568
29081W        W44550   6.965   7.801   0.766  0.0639  0.0113 -0.0498
29082W        W44551  11.321  12.451  12.727 -0.2231  0.0067 -0.1228
29083W        W44552  15.849   3.871   4.163  0.1193  0.1640  0.1296
29084W        W44553   8.883  15.916  12.236 -0.2631  0.2049  0.2748
29085W        W44554  16.402   6.344  11.483 -0.3193 -0.1533 -0.0649
29086W        W44555   9.671  16.181   5.460 -0.2087  0.0730  0.0093
29087W        W44556   8.255   7.868   4.380  0.1117  0.1252  0.0575
29088W        W44557  10.255  17.032   3.623  0.0819 -0.3373  0.1064
29089W        W44558  18.191  14.223  13.442  0.0708 -0.0554 -0.1355
29090W        W44559   9.214  17.572   2.153 -0.0026 -0.0634  0.0872
29091W        W44560   7.178  11.702   3.302  0.1761  0.0702  0.0269
29092W        W44561   7.913   8.388   3.231  0.2642 -0.1426 -0.3452
29093W        W44562  14.711   4.107   3.783  0.0365  0.0810 -0.0328
29094W        W44563   3.912   6.903  11.669 -0.1621 -0.0421 -0.3556
29095W        W44564   1.671  17.568  15.898  0.0911 -0.1191  0.1772
29096W        W44565   8.329  18.436   1.160 -0.0092  0.0038  0.2266
29097W        W44566   6.353  15.362   4.940 -0.1250  0.1630  0.0894
29098W        W44567  17.668   4.526  11.923 -0.0785  0.1323 -0.0968
29099W        W44568   2.698   2.636  12.480  0.2856  0.1095 -0.0646
29100W        W44569   3.542   4.312   5.554 -0.0535  0.3734 -0.1670
29101W        W44570   5.295   6.941   3.616  0.1527 -0.0201  0.3218
29102W        W44571  18.040   2.368   3.486  0.4510 -0.1845 -0.2810
29103W        W44572   8.338  11.085   2.903  0.0564 -0.3101 -0.3418
29104W        W44573  14.211   9.944  12.667  0.0685 -0.1468 -0.3845
29105W        W44574   6.478  14.301  15.713  0.1966 -0.3909 -0.0923
29106W        W44575   0.783  12.263   3.855 -0.1301 -0.0516  0.1593
29107W        W44576  14.784   9.870  11.535 -0.4120  0.2506  0.0129
29108W        W44577  10.508   3.750   3.083  0.0781 -0.1418 -0.1971
29109W        W44578   6.414  17.879   0.999  0.0698 -0.2516 -0.0291
29110W        W44579   4.819   2.704   6.187 -0.0107 -0.0279 -0.0009
29111W        W44580  16.189  11.525   4.488  0.0665  0.2092  0.4359
29112W        W44581   0.999  13.417   1.942  0.0283  0.2134 -0.0528
29113W        W44582   0.843  17.900  12.643 -0.1121  0.2072 -0.1076
29114W        W44583   5.545   7.150   1.714  0.1431 -0.1106 -0.0803
29115W        W44584  10.423   2.240  13.436  0.1666  0.0595  0.4105
29116W        W44585  12.394  15.551   0.020 -0.0639  0.1363  0.0436
29117W        W44586  13.172   3.786  11.998  0.2552  0.0808  0.1695
29118W        W44587   3.140   2.573   4.958  0.1181 -0.2121 -0.0820
29119W        W44588   7.044   7.904  15.743 -0.1359  0.0480 -0.1405
29120W        W44589   6.666  17.606   3.628  0.0373 -0.0002 -0.2228
29121W        W44590   2.711   0.781  12.007  0.0409 -0.0479 -0.0437
29122W        W44591   7.887  15.970  12.195 -0.0122  0.0897 -0.1879
29123W        W44592   9.967  14.710  14.473 -0.0384  0.1982  0.1559
29124W        W44593  12.805  16.923   1.096  0.0224  0.2631 -0.0155
29125W        W44594   3.428  15.309  14.574 -0.1449  0.0267 -0.0235
29126W        W44595  11.663  15.909   3.522  0.0219 -0.2511  0.1581
29127W        W44596  14.053   6.758  13.414 -0.0092  0.1814 -0.1125
29128W        W44597   6.841   4.847  15.847  0.1212  0.1041  0.0342
29129W        W44598   6.666  10.381  12.672  0.0985  0.1011 -0.1892
29130W        W44599   8.096   6.497   1.418  0.2153 -0.3383 -0.1505
29131W        W44600   9.740   7.926   4.695  0.0117  0.0526 -0.1132
29132W        W44601  14.720   4.061   1.705  0.0665  0.0644 -0.2975
29133W        W44602   9.885  16.238  13.331 -0.2299  0.0274 -0.3064
29134W        W44603  12.289   7.629  12.842 -0.0231  0.1168  0.2019
29135W        W44604  15.990  12.175  14.886  0.0053 -0.2243  0.0327
29136W        W44605  15.782  10.467  13.296 -0.0955  0.0027  0.1576
29137W        W44606  17.518   7.256   4.287 -0.0786 -0.0417 -0.0484
29138W        W44607   8.283   1.604  13.057  0.1644  0.1733  0.2322
29139W        W44608   1.142   6.466  14.238  0.2694  0.0346  0.1318
29140W        W44609   3.551   4.311  11.866 -0.0353  0.2638  0.0259
29141W        W44610   9.460  14.438  12.458 -0.3741 -0.2318 -0.0653
29142W        W44611   6.204  15.825  14.212  0.0347 -0.0805 -0.1780
29143W        W44612   1.582   0.585  13.614  0.0936 -0.0304 -0.1132
29144W        W44613   9.186   7.890  15.386 -0.1033 -0.0093 -0.1862
29145W        W44614   6.345   8.927  12.095  0.1483  0.2041  0.3325
29146W        W44615  13.452   8.864   4.597 -0.1413 -0.3120  0.1224
29147W        W44616   7.539  18.094  12.575 -0.0418  0.4159 -0.0434
29148W        W44617   7.198   1.463  14.918 -0.3261  0.0824  0.0774
29149W        W44618   7.862   1.916  14.873 -0.3567 -0.0709  0.2811
29150W        W44619   2.727   6.624  15.575  0.0407 -0.0888  0.2645
29151W        W44620   9.516  12.843  15.862  0.0347 -0.0303  0.0645
29152W        W44621   7.022   6.683  11.628 -0.2063  0.2080 -0.0342
29153W        W44622  15.474   5.557   3.233  0.2410  0.2295 -0.0245
29154W        W44623   9.667   6.125  11.102 -0.1430  0.1475  0.0984
29155W        W44624   7.927  15.218   1.456 -0.0480  0.1023 -0.0654
29156W        W44625  17.693  10.619  15.071 -0.1343 -0.1344  0.1390
29157W        W44626   0.111  10.715   4.631 -0.1503 -0.1505  0.0819
29158W        W44627   8.898  15.946   0.631  0.0688  0.0778 -0.5878
29159W        W44628  17.882   3.133   5.539 -0.0313 -0.0664  0.0313
29160W        W44629   8.996  12.819  12.974  0.1303 -0.0782  0.1888
29161W        W44630   8.756  14.975  15.726  0.4797  0.1828  0.0617
29162W        W44631   1.926  14.233  14.479 -0.2510  0.3518 -0.0491
29163W        W44632   0.858  16.440   0.603  0.0590 -0.2659 -0.0883
29164W        W44633  17.012   5.604  14.591 -0.2256  0.0817  0.0754
29165W        W44634   5.366   3.589   0.465  0.2703 -0.3196 -0.2108
29166W        W44635   6.238   9.338  11.801 -0.0925  0.1285  0.1452
29167W        W44636   9.214   9.973   1.761  0.2787 -0.1128 -0.1012
29168W        W44637  10.438   6.623   3.277  0.0665  0.0294  0.0349
29169W        W44638  16.540   8.253   0.618  0.2676  0.1435  0.0491
29170W        W44639   6.286   6.706  13.102 -0.0203  0.1039 -0.2327
29171W        W44640  16.534  17.001  14.893 -0.1773 -0.2470 -0.0478
29172W        W44641   9.160  11.248  12.143 -0.1299 -0.1395 -0.2705
29173W        W44642   1.610   4.529  15.354 -0.3437 -0.1016  0.1137
29174W        W44643   5.942   5.957  12.108 -0.0512 -0.0409 -0.1111
29175W        W44644  15.160  13.900  11.110  0.0436 -0.3073  0.1303
29176W        W44645  15.605  10.618   3.536  0.4709  0.0591 -0.1102
29177W        W44646   7.305  12.705  11.438  0.4073 -0.2102 -0.1163
29178W        W44647   1.229  10.818   2.493 -0.0703 -0.0179 -0.2372
29179W        W44648   3.038  13.961   0.884  0.1549 -0.1117  0.2612
29180W        W44649   3.909  12.266  12.310  0.0183 -0.2239  0.0311
29181W        W44650   9.665  16.060   5.967  0.0571  0.1476  0.2110
29182W        W44651  12.341   8.915  14.125  0.1704  0.3461 -0.0493
29183W        W44652   0.248  18.144  14.782 -0.1407  0.3591 -0.0455
29184W        W44653  11.158   5.615   3.020 -0.2463  0.0071  0.0599
29185W        W44654   7.757  14.961   3.028  0.1694 -0.0757 -0.3210
29186W        W44655  12.105  16.037   2.330  0.1513  0.2138  0.2496
29187W        W44656  14.943  18.276  12.239  0.0587  0.0835 -0.2459
29188W        W44657  12.257  10.018   2.349  0.1352  0.3086 -0.0027
29189W        W44658   0.625  14.709   2.293 -0.1106  0.0941  0.1327
29190W        W44659   1.205  17.209  12.172  0.4099 -0.1153  0.0077
29191W        W44660   7.036   2.065   3.340  0.1325 -0.0162 -0.0533
29192W        W44661  14.827  11.323  11.637 -0.1150 -0.2595 -0.2271
29193W        W44662   0.146   5.526  11.873  0.2907 -0.0357  0.0806
29194W        W44663  14.221  11.682  11.846  0.1040 -0.2845 -0.2818
29195W        W44664   5.187   0.182   0.767 -0.1394  0.0294 -0.0038
29196W        W44665   2.432  16.681   4.922 -0.0368 -0.1967  0.1677
29197W        W44666   8.651  14.896   3.604 -0.0240  0.2294  0.0729
29198W        W44667  11.548  16.534   4.594 -0.1001 -0.0940  0.0763
29199W        W44668  16.218  12.933  15.199  0.2597  0.0574 -0.0960
29200W        W44669   6.218  13.733  13.055  0.0394 -0.0119  0.0839
29201W        W44670  10.415  10.811  10.130  0.0223 -0.1917  0.1369
29202W        W44671  14.161  13.351  15.778 -0.1138 -0.2873  0.2445
29203W        W44672   5.212  18.000  12.003  0.4087  0.1339  0.0409
29204W        W44673  18.179  14.104  14.789 -0.0876 -0.1635 -0.2628
29205W        W44674  10.246   7.277   1.535  0.0459  0.2003  0.0620
29206W        W44675   8.195   7.814  14.037  0.0797  0.5038  0.0549
29207W        W44676   3.573   8.182   2.374  0.1623 -0.2160  0.2592
29208W        W44677   2.077  11.741   3.281 -0.0226 -0.0284 -0.0787
29209W        W44678  17.453   6.250  14.645  0.1400  0.2045 -0.0619
29210W        W44679   0.141  15.313   5.808 -0.0157  0.2212 -0.0038
29211W        W44680   4.385  14.447  13.612 -0.1618 -0.0267  0.0714
29212W        W44681   6.434   6.410  12.751 -0.0344 -0.0625 -0.0103
29213W        W44682   2.368   1.004   3.617  0.1552  0.1586 -0.0436
29214W        W44683   8.957  10.072  13.694  0.0531 -0.1902 -0.1874
29215W        W44684   2.720   8.352   4.064 -0.1529 -0.1173 -0.0970
29216W        W44685  13.117  15.092  11.789 -0.1158  0.1481 -0.0194
29217W        W44686   8.902   2.497  13.651  0.1311  0.1907  0.1216
29218W        W44687  15.549  10.049   2.926  0.2143 -0.1196  0.1359
29219W        W44688  14.979   7.646   2.220 -0.2600 -0.1185 -0.0351
29220W        W44689   4.058  10.057  10.714  0.2770  0.1518 -0.1967
29221W        W44690  14.330  16.567  11.998  0.0217 -0.0595 -0.0354
29222W        W44691   7.869  15.225  11.971  0.2910 -0.1756  0.2483
29223W        W44692  11.104  11.750  14.024  0.2147  0.0761 -0.0391
29224W        W44693  15.508   2.764   1.736  0.1225 -0.1736 -0.0572
29225W        W44694   9.278   2.174  14.945 -0.1985 -0.0028  0.0791
29226W        W44695   4.149   4.631  15.275 -0.1212 -0.0065 -0.0039
29227W        W44696   8.748   7.416   9.681 -0.1246 -0.0180 -0.0197
29228W        W44697  13.422   6.857   2.616  0.1605  0.2570 -0.1027
29229W        W44698  14.326  14.084  15.540  0.0758  0.0057 -0.0915
29230W        W44699  13.884   5.700   3.505 -0.0828 -0.1204  0.1096
29231W        W44700   5.401   3.150  14.423  0.0974  0.1207  0.0250
29232W        W44701   0.211   2.459   3.105 -0.2485 -0.1418  0.1096
29233W        W44702  13.786   8.732   2.820  0.2188  0.3016  0.2542
29234W        W44703  12.350  14.360  13.659 -0.0402  0.2137  0.0094
29235W        W44704  10.426   2.787   5.923 -0.1560 -0.0866  0.2012
29236W        W44705  15.023  15.889  13.185 -0.1035  0.1217  0.2534
29237W        W44706  11.774  13.894  13.894 -0.0302 -0.1362 -0.2746
29238W        W44707   3.389  13.020   2.874 -0.2588  0.4986 -0.2171
29239W        W44708  17.993  13.002  14.771  0.2154  0.2062 -0.0341
29240W        W44709  11.655  17.012   4.767 -0.1072 -0.0621 -0.1739
29241W        W44710   1.390  18.077   0.178  0.0875 -0.0822  0.4258
29242W        W44711   5.782  15.947  15.072  0.0794 -0.1834  0.0269
29243W        W44712   1.455   3.027  14.405  0.0214 -0.0812  0.0619
29244W        W44713   6.684   5.642   2.449  0.1988 -0.1003 -0.1264
29245W        W44714  11.407  12.549   3.922  0.0093 -0.2846  0.1032
29246W        W44715   4.126  17.279   2.150 -0.1163  0.1893 -0.1474
29247W        W44716   1.178   4.729   2.710  0.1237  0.1852 -0.4434
29248W        W44717   9.578  11.982   1.407 -0.1536 -0.1457 -0.2870
29249W        W44718  10.793   6.188   3.525 -0.1852  0.0209 -0.2116
29250W        W44719  18.300   5.182  14.560 -0.0168 -0.0052  0.1651
29251W        W44720  14.661   8.771   3.787 -0.3251 -0.1741  0.1314
29252W        W44721  12.157  13.001  12.678  0.2426 -0.1612 -0.0374
29253W        W44722   6.619  11.212   3.020 -0.0193  0.1543 -0.1061
29254W        W44723   5.793   3.827   3.378  0.3082  0.4853  0.2236
29255W        W44724  15.536  12.964  14.238 -0.0122 -0.1751 -0.5088
29256W        W44725   4.010   9.589   3.728 -0.2826 -0.1020  0.0890
29257W        W44726   4.568  17.611  14.870  0.1437  0.2265 -0.0823
29258W        W44727   0.367   0.162  13.058 -0.1284 -0.0131 -0.1836
29259W        W44728   4.648   4.722   1.817 -0.3180 -0.1580  0.0600
29260W        W44729  10.744   9.493   1.943  0.0756 -0.1989  0.2147
29261W        W44730   4.265   4.963  11.939  0.3501 -0.0846  0.4773
29262W        W44731   9.174  12.879  11.306  0.0232  0.1070 -0.1993
29263W        W44732  11.195   2.834   4.544 -0.2676 -0.1267 -0.1011
29264W        W44733  10.121  14.141   1.232  0.1703  0.0054 -0.0753
29265W        W44734  10.091  14.909   4.636 -0.1777  0.0273 -0.1988
29266W        W44735  14.332   4.623  14.015  0.0907 -0.0230 -0.1997
29267W        W44736   1.124   0.598   2.620  0.0159 -0.2522 -0.0410
29268W        W44737   4.654   4.199  14.834 -0.1613  0.0854 -0.0723
29269W        W44738  17.265   5.696   5.108  0.0444 -0.1121  0.1935
29270W        W44739  10.289  11.010   6.092  0.0672  0.0678 -0.1750
29271W        W44740   0.386   8.622  13.677 -0.0702 -0.2708  0.0313
29272W        W44741   1.551  18.172  13.711 -0.1856  0.3159  0.0513
29273W        W44742  11.446   3.553   3.435  0.2642  0.0227 -0.0746
29274W        W44743   6.963   6.547   0.222  0.1799 -0.0370 -0.0019
29275W        W44744  12.753  12.378   2.145  0.0060  0.2230  0.2707
29276W        W44745  13.669   8.326   4.486 -0.3273 -0.1521 -0.1373
29277W        W44746  14.810  12.771   0.287 -0.1008 -0.1162  0.1171
29278W        W44747  10.240  15.919  13.298 -0.3968  0.1327  0.0111
29279W        W44748  15.280  12.608   4.347  0.2587  0.3414  0.3738
29280W        W44749   8.368  16.764   3.672  0.2839  0.0041  0.1225
29281W        W44750   9.911   9.120   3.073  0.0794  0.0279 -0.0410
29282W        W44751  14.841   1.596  10.691  0.1098  0.0630  0.2919
29283W        W44752  16.391   4.174   2.637 -0.0973  0.0012  0.2545
29284W        W44753  10.746  17.334  14.352 -0.1509 -0.1497  0.4450
29285W        W44754   5.969  13.183   2.884  0.0612 -0.1144 -0.2714
29286W        W44755   9.471   7.630  11.095 -0.0617 -0.4949  0.0133
29287W        W44756  10.105   5.075   1.514  0.1736 -0.0874  0.2876
29288W        W44757   9.509   9.114   0.664  0.0371  0.2015 -0.0739
29289W        W44758  12.202   2.858  12.905 -0.2734 -0.0773 -0.1809
29290W        W44759   9.699   3.622  14.053 -0.1052  0.2650  0.1771
29291W        W44760  15.123   4.555   0.493  0.2240  0.0746  0.1780
29292W        W44761   0.600   5.039  14.029 -0.0218  0.1012 -0.0718
29293W        W44762  10.535  15.089  10.665  0.1533 -0.0107 -0.3578
29294W        W44763   1.624   4.237   0.852 -0.0583  0.0017  0.0427
29295W        W44764   0.314   5.393  12.653 -0.1985 -0.5348  0.4743
29296W        W44765  11.627   6.996   5.864 -0.4155 -0.0528 -0.2716
29297W        W44766   8.382   2.555  12.685 -0.1668  0.2104 -0.2693
29298W        W44767  13.652  14.702   1.970 -0.0966  0.1281 -0.3890
29299W        W44768   6.229  16.536   2.167  0.2645  0.3018  0.1066
29300W        W44769  10.462  17.297   2.618 -0.1910  0.2522 -0.1697
29301W        W44770  11.214   6.441  11.077  0.0299  0.0482 -0.0598
29302W        W44771  17.201   7.361  10.986 -0.2475  0.2484  0.2117
29303W        W44772   9.623  12.890  15.351  0.0083 -0.0318  0.0122
29304W        W44773   8.019   3.908  13.643 -0.3818 -0.2343 -0.1816
29305W        W44774  13.018  15.156  13.030 -0.2410  0.2716 -0.0622
29306W        W44775  16.431  11.826   2.224 -0.0782 -0.0150  0.1783
29307W        W44776  12.350  10.509   1.699 -0.0133 -0.4600 -0.0230
29308W        W44777  11.469  11.445   5.895 -0.4317 -0.0714 -0.1813
29309W        W44778   3.069   7.940  15.321  0.0416  0.0726 -0.3121
29310W        W44779   6.944  15.945   3.717  0.1628 -0.4034 -0.1930
29311W        W44780  15.886  17.838   1.106  0.2233  0.0544 -0.1343
29312W        W44781   9.784  17.458  12.375 -0.0452  0.2216  0.1033
29313W        W44782   7.085  15.378   4.362 -0.0811  0.3856  0.1524
29314W        W44783  12.873  11.117  14.401 -0.1405 -0.2017 -0.0306
29315W        W44784   4.209  16.062   4.980  0.2546 -0.0138  0.2902
29316W        W44785   1.150   0.640   4.088 -0.0991 -0.0168 -0.1905
29317W        W44786  16.236   3.121  11.733  0.1174  0.0918 -0.1334
29318W        W44787   3.324  18.459  14.181 -0.1021  0.0823 -0.1006
29319W        W44788   0.926  13.453   2.472 -0.1260 -0.2853  0.2604
29320W        W44789  15.615  11.780  11.444  0.1888 -0.0518 -0.0212
29321W        W44790   7.878  13.378  14.193 -0.3251 -0.1128  0.1179
29322W        W44791   1.722  11.720   2.462 -0.4013 -0.3616  0.1446
29323W        W44792   2.980   3.954  15.280 -0.0381  0.3967  0.2208
29324W        W44793   1.496   8.540  15.817  0.0812  0.3016 -0.0310
29325W        W44794   9.048   2.919  13.848 -0.1262 -0.4629 -0.1152
29326W        W44795  16.586   3.845  15.691 -0.0208  0.0504 -0.1587
29327W        W44796  14.145   0.287   4.039  0.1195 -0.0299  0.0341
29328W        W44797   8.698  14.009   5.433 -0.3450  0.3472  0.0317
29329W        W44798   6.862   5.761  13.475 -0.1197 -0.0824  0.2719
29330W        W44799   6.783   2.802  13.749 -0.0058  0.2371 -0.0115
29331W        W44800  14.534  14.715   3.074 -0.0725  0.0366  0.0421
29332W        W44801   4.246   2.689  15.533  0.0581 -0.0582 -0.0839
29333W        W44802  17.581   4.096  11.623  0.0222 -0.1300 -0.0094
29334W        W44803   8.148   5.582   2.862  0.0750  0.0794  0.0252
29335W        W44804   5.570   4.081  10.748  0.1212  0.1448 -0.0566
29336W        W44805   1.194   5.776  12.509  0.2738  0.0053  0.2531
29337W        W44806  13.329   1.427  15.462  0.0317 -0.4176  0.0189
29338W        W44807  16.750  10.915  11.489  0.0329 -0.3199  0.0057
29339W        W44808   6.745   7.734  11.849  0.2149 -0.0447  0.3195
29340W        W44809  13.609   4.626   1.084  0.0693  0.1165 -0.2837
29341W        W44810  16.082   6.987  13.944 -0.3433 -0.3013 -0.1164
29342W        W44811  16.548  12.219  13.699 -0.0248 -0.1185  0.3203
29343W        W44812   4.108  12.294  10.881 -0.0449 -0.0916  0.0883
29344W        W44813   2.354   3.991  15.617 -0.2133 -0.4649  0.2311
29345W        W44814  13.295   9.782  12.752  0.4206 -0.1346  0.0749
29346W        W44815  14.303   2.518  14.379  0.0808  0.3523 -0.2371
29347W        W44816  16.058   6.429   3.079  0.1815 -0.0467  0.0999
29348W        W44817   1.830   0.248  14.768 -0.2535 -0.0156  0.2611
29349W        W44818  12.456   0.488  15.596  0.0975 -0.3691  0.0965
29350W        W44819   0.128   1.921   5.970 -0.1094  0.0267  0.0302
29351W        W44820  12.022  11.082  15.376  0.2319 -0.1514 -0.3515
29352W        W44821  16.004  17.595  12.146 -0.0865 -0.0521  0.1160
29353W        W44822   2.482   6.097  13.633  0.0958 -0.3664 -0.4518
29354W        W44823   4.185   3.595   2.235  0.1706 -0.1233  0.1035
29355W        W44824  15.929  13.885  13.268  0.1199 -0.1701  0.0124
29356W        W44825  12.085  10.737   2.029 -0.2343 -0.2425 -0.2785
29357W        W44826   0.202  12.208  14.474  0.1587 -0.0675  0.0485
29358W        W44827   7.631   0.117  14.616 -0.1187  0.0202 -0.2271
29359W        W44828  15.663  12.253  13.970 -0.1446 -0.5219 -0.0691
29360W        W44829  18.351   6.068  15.058  0.1910 -0.1771  0.2026
29361W        W44830   1.612   6.814  11.712 -0.1051 -0.0340  0.1341
29362W        W44831   1.163  16.253   3.929  0.0367  0.2359  0.2924
29363W        W44832  14.655  11.153  10.309 -0.1315 -0.2312 -0.1042
29364W        W44833  11.713  16.872  15.144  0.1206 -0.2458 -0.0584
29365W        W44834  14.873   6.389   4.805 -0.0279 -0.0313 -0.0816
29366W        W44835  14.006   9.511   5.727 -0.0166 -0.0010 -0.1136
29367W        W44836   1.764   4.229   4.776 -0.0825 -0.1307 -0.1092
29368W        W44837   9.245   7.914   4.603  0.1632  0.2403  0.2205
29369W        W44838   8.636  15.462  14.568 -0.2486  0.1516 -0.1030
29370W        W44839   3.778  15.084  15.865  0.0198  0.0398  0.0893
29371W        W44840  11.850  10.743   1.172 -0.0203  0.2003 -0.2426
29372W        W44841  14.052  18.055   1.953  0.0514  0.0937 -0.2817
29373W        W44842  13.376  10.679  15.801 -0.0217 -0.1140 -0.0297
29374W        W44843   9.471   5.297   4.465  0.1442 -0.0562  0.0452
29375W        W44844   8.490   6.197   1.312 -0.0232  0.1041  0.0265
29376W        W44845   1.959   2.648  11.427 -0.0322 -0.0521 -0.0665
29377W        W44846   6.546  12.460  10.990  0.1794 -0.1808  0.1529
29378W        W44847  11.281   0.616  13.208 -0.0977  0.0570  0.0825
29379W        W44848  16.512  10.763  12.086  0.1301  0.1356  0.1721
29380W        W44849  14.099  11.823   3.304 -0.1105 -0.3534  0.1847
29381W        W44850  15.754  10.274   9.730  0.0455 -0.2540  0.2721
29382W        W44851   7.971  11.925   2.637 -0.0294  0.0201  0.0942
29383W        W44852   1.770  16.450   5.342  0.1848 -0.1680  0.1783
29384W        W44853   7.768   2.747   0.048 -0.3638 -0.3699  0.0226
29385W        W44854  12.495   3.239   0.268 -0.0833  0.1865 -0.2047
29386W        W44855   8.722  14.261   4.955 -0.1283 -0.0179  0.0185
29387W        W44856   3.163   9.761   1.945 -0.3525 -0.2454 -0.1965
29388W        W44857  12.328  17.764   1.867  0.0227 -0.0044 -0.2110
29389W        W44858  15.354   4.778  12.129  0.0231  0.0440 -0.2371
29390W        W44859   5.789   7.909  10.068 -0.0024  0.1559 -0.0289
29391W        W44860   2.916  13.526   5.212 -0.1364  0.0341 -0.0048
29392W        W44861  11.467   4.192  11.420 -0.0119  0.0872  0.2248
29393W        W44862  10.425  18.230   3.508 -0.1718 -0.3041 -0.0786
29394W        W44863   6.856  13.801  11.206 -0.1245 -0.3872 -0.0577
29395W        W44864   0.231  14.358   0.532  0.3850 -0.2657  0.0174
29396W        W44865  10.240   8.568  14.631  0.0186 -0.1610 -0.1244
29397W        W44866  10.922  14.955   3.950 -0.1123 -0.0134  0.3623
29398W        W44867   4.551   6.550  13.029  0.1268 -0.0967 -0.1362
29399W        W44868   1.939   2.009   0.770 -0.0191 -0.1013 -0.0939
29400W        W44869  10.355   7.490   4.795 -0.2919 -0.0716  0.0725
29401W        W44870  13.871   4.678   0.068 -0.0047 -0.2892 -0.0326
29402W        W44871   6.514   6.938  11.150  0.0650  0.0055  0.0311
29403W        W44872   7.069   5.766  13.908 -0.0150 -0.0304  0.4790
29404W        W44873  15.615  16.403   3.970 -0.2967  0.1911 -0.0031
29405W        W44874   7.338   7.875   2.242 -0.0582  0.1028 -0.1321
29406W        W44875  14.559   9.814   0.913 -0.3352  0.2465 -0.0874
29407W        W44876   3.749  11.177   4.296  0.1023  0.0905 -0.1299
29408W        W44877   7.073  12.858   2.652 -0.3239 -0.0101 -0.2163
29409W        W44878   5.004   0.080   5.963 -0.0593  0.0193  0.2237
29410W        W44879   8.714  15.714   1.550  0.1140 -0.2423  0.0059
29411W        W44880   6.111   1.641  12.537 -0.3118  0.3380 -0.0163
29412W        W44881   8.097  17.747   5.741 -0.0315  0.1864 -0.1443
29413W        W44882   9.248   0.292   4.176 -0.0676  0.2173  0.0533
29414W        W44883   7.905  18.316  14.984 -0.0228  0.0729 -0.5672
29415W        W44884   3.802   6.946   1.826  0.3424 -0.1984 -0.1155
29416W        W44885  16.253   5.259   2.417  0.0395 -0.1977  0.0104
29417W        W44886  16.480  13.251  13.708  0.2905 -0.0627 -0.2238
29418W        W44887   9.710  13.251   2.022 -0.0267 -0.0794 -0.2176
29419W        W44888   5.491   1.356   1.761 -0.2602  0.2875  0.0709
29420W        W44889   5.245   2.879   3.753  0.1814  0.0199 -0.1266
29421W        W44890  17.313   1.456   3.919 -0.1294  0.3936 -0.1079
29422W        W44891   2.495  15.512  15.496 -0.2395 -0.0218  0.2989
29423W        W44892  14.053  18.155   0.169 -0.1463  0.1949 -0.0813
29424W        W44893   7.830  12.074   0.172  0.2913 -0.2913 -0.0293
29425W        W44894  17.514   0.335   1.486 -0.1625 -0.0057 -0.1829
29426W        W44895   3.076  10.151   0.071 -0.2383 -0.0844 -0.0761
29427W        W44896  16.282   3.507  12.916 -0.0334  0.2340 -0.0508
29428W        W44897  11.494   1.737   4.060 -0.0496 -0.0928 -0.1378
29429W        W44898  17.155  13.105  10.410  0.3068 -0.0813 -0.1526
29430W        W44899  15.339   1.339   9.914 -0.0749  0.0861  0.1554
29431W        W44900   0.597   9.787  12.220  0.0594  0.2911  0.0505
29432W        W44901   1.065  18.203  13.788 -0.0390  0.3198 -0.0191
29433W        W44902  10.424  12.751  11.226  0.3852  0.1398  0.1623
29434W        W44903  13.064   1.466   5.581 -0.1211  0.3818 -0.1052
29435W        W44904   2.150  15.857  13.729 -0.2143 -0.1852 -0.0594
29436W        W44905   1.621  14.093  11.442 -0.0866  0.4219 -0.2235
29437W        W44906  16.948  10.677  15.758  0.1398  0.1557  0.3551
29438W        W44907  11.676  11.635  14.032  0.0496  0.0199 -0.0728
29439W        W44908   9.730   8.141  11.030  0.0035  0.0222  0.0117
29440W        W44909  14.517   8.123   0.205 -0.0496 -0.2225 -0.1178
29441W        W44910   6.775   3.496  15.449  0.0681  0.0877  0.0207
29442W        W44911   9.759   9.861   3.302  0.2492  0.0118 -0.0503
29443W        W44912  17.480  15.309   1.184 -0.0688 -0.2013  0.2964
29444W        W44913  15.732  15.538   4.303  0.1825 -0.1725  0.0528
29445W        W44914   3.035   1.957   9.943 -0.3066 -0.0420  0.2549
29446W        W44915   9.175   2.664  11.523 -0.0309 -0.0241 -0.1845
29447W        W44916  15.436  14.805  11.121 -0.3532  0.0879 -0.2210
29448W        W44917  16.474  15.116   3.835  0.0656  0.2511  0.0036
29449W        W44918  11.812   8.942  11.083 -0.3401  0.2377 -0.0997
29450W        W44919   9.478   3.255  14.454  0.3806 -0.2457 -0.1464
29451W        W44920  14.068  16.139   5.782  0.0847  0.1937  0.0508
29452W        W44921  18.317  14.018  14.035  0.0998 -0.2815 -0.1416
29453W        W44922  17.894   0.680   5.215 -0.2124  0.0258  0.1800
29454W        W44923   7.090  16.854   5.609  0.1944 -0.0427  0.2402
29455W        W44924   2.204   1.395  11.562  0.0798  0.0411 -0.1663
29456W        W44925  17.825   7.822   5.169 -0.0137 -0.1077  0.0310
29457W        W44926  16.173   2.954   2.279  0.0955 -0.1501 -0.0199
29458W        W44927  14.999  15.238  15.768  0.1564 -0.0913  0.0877
29459W        W44928  16.176  15.276  12.874 -0.1128 -0.2330  0.2790
29460W        W44929  13.912  17.281   5.128  0.0532 -0.0404  0.0907
29461W        W44930  10.956   7.546  12.489 -0.1363 -0.1816 -0.0171
29462W        W44931  13.440  12.534  15.706  0.1508 -0.5907 -0.0228
29463W        W44932   2.184  12.960  13.878  0.0720  0.1168 -0.0363
29464W        W44933  10.347   7.153   3.891 -0.1146 -0.1973 -0.3284
29465W        W44934  16.237   8.510  15.027  0.1090  0.1448 -0.0695
29466W        W44935   7.555   2.204   1.966 -0.2206  0.1066  0.0913
29467W        W44936   6.738   2.855   0.343 -0.1393 -0.0974 -0.1006
29468W        W44937   0.763  11.062   4.284 -0.0459  0.2403  0.1331
29469W        W44938  14.521  12.476  15.888 -0.0526  0.3362  0.3251
29470W        W44939  14.742  10.099  13.089  0.0533  0.3389  0.2158
29471W        W44940  14.653  14.034   2.650  0.4903  0.3156 -0.2530
29472W        W44941   8.917   4.405  11.600 -0.1505  0.1012  0.2931
29473W        W44942  16.792  16.098  15.236  0.1668 -0.0870  0.2204
29474W        W44943   4.119  13.655   2.175  0.1327 -0.0053 -0.1779
29475W        W44944  18.148   3.613   6.305  0.0994 -0.2211 -0.0396
29476W        W44945   6.555  12.934   4.960 -0.1985  0.2188 -0.1401
29477W        W44946   2.379   5.768   4.668 -0.0471  0.3209  0.2801
29478W        W44947  15.580   3.330   2.470  0.1578  0.1135 -0.1487
29479W        W44948  11.894  13.105  15.009  0.2362  0.0663 -0.0826
29480W        W44949   5.600  10.082  11.491 -0.4195 -0.0281 -0.0499
29481W        W44950  12.882   6.822  12.799  0.0654  0.1889 -0.2343
29482W        W44951  18.326  11.727  14.484 -0.0524 -0.0014  0.1569
29483W        W44952   3.267  10.677   1.772  0.0343 -0.4759 -0.1427
29484W        W44953  11.914  12.563   0.983 -0.0746  0.1971 -0.3112
29485W        W44954  15.891   2.605   0.766 -0.2170  0.1411 -0.1412
29486W        W44955   8.739   0.037   0.049 -0.0458 -0.1538 -0.2852
29487W        W44956   9.462  16.805  13.945  0.0272  0.0492 -0.0274
29488W        W44957  18.453   5.625   5.504 -0.2159  0.0700  0.1709
29489W        W44958  14.173  11.362  10.957 -0.1371 -0.0854 -0.0169
29490W        W44959  11.414   1.168   3.846 -0.4855 -0.0381 -0.0465
29491W        W44960  11.795  17.875  15.392 -0.0261 -0.1846  0.0448
29492W        W44961   6.685  16.197  14.769 -0.1733  0.0097 -0.0159
29493W        W44962  10.646  16.966   4.523  0.1813  0.0332 -0.4394
29494W        W44963   6.350  14.405   5.330  0.0028 -0.0941  0.3068
29495W        W44964   2.180   1.144   1.800  0.1838 -0.0234  0.1729
29496W        W44965  15.210   5.511   0.730  0.2234  0.0427 -0.1376
29497W        W44966  10.869  11.595  15.503 -0.0888  0.1873  0.1024
29498W        W44967  12.390   8.349   0.388  0.0871  0.2906 -0.1271
29499W        W44968  13.676   8.099  15.093 -0.0687  0.2871  0.1413
29500W        W44969  16.846   7.871   2.000  0.0092 -0.2095 -0.2992
29501W        W44970  18.330   8.673   9.624  0.0953  0.0811  0.0223
29502W        W44971   1.443   4.091   2.297  0.1623  0.1505  0.0823
29503W        W44972  12.692  11.894   5.394  0.0154 -0.1745 -0.0390
29504W        W44973  17.850   1.128  14.939  0.1841 -0.0832  0.0634
29505W        W44974  16.089   4.627  14.911 -0.0959  0.2960 -0.0563
29506W        W44975   5.079   7.387  12.357 -0.0869  0.1575  0.0331
29507W        W44976  17.764   5.221   1.899  0.0593 -0.0783 -0.1983
29508W        W44977  14.610  17.935  12.520 -0.0975 -0.2993 -0.0788
29509W        W44978  11.403   0.237   2.218 -0.1582  0.3026  0.0436
29510W        W44979   0.009   8.698   4.708 -0.3465 -0.1108  0.0212
29511W        W44980  17.347   8.162  13.257  0.2315  0.1268  0.0662
29512W        W44981  17.246  11.935   0.840  0.1583 -0.2515 -0.3483
29513W        W44982   5.570  13.196   4.093 -0.1162  0.1257  0.1619
29514W        W44983  14.277   3.619  10.415  0.1104 -0.2716  0.3031
29515W        W44984   2.426  10.821   0.753  0.0364  0.0431 -0.0819
29516W        W44985  16.248   5.373  12.526  0.0395  0.1449 -0.1103
29517W        W44986   0.809  15.823   2.720  0.1737  0.1264  0.1687
29518W        W44987   2.888   4.863  12.182 -0.0815  0.0110 -0.3111
29519W        W44988   6.376  14.025  11.034  0.2601 -0.3301  0.0550
29520W        W44989   0.039   4.264  11.034 -0.0472 -0.1009 -0.0947
29521W        W44990   5.813   4.428   0.707 -0.1742  0.0327 -0.0844
29522W        W44991   9.238  17.449  13.004 -0.1616 -0.1798 -0.0030
29523W        W44992  10.180   8.471  14.154  0.0839  0.3283  0.0242
29524W        W44993   0.504   6.351   2.469  0.0271  0.2022 -0.1879
29525W        W44994   3.548  10.068  14.006  0.0862  0.0743 -0.0614
29526W        W44995   8.699   0.364  12.136 -0.0061  0.1586  0.1553
29527W        W44996   8.212  15.679  13.504 -0.0710 -0.0397  0.3690
29528W        W44997   3.912   8.697   2.781 -0.0532  0.0029 -0.3078
29529W        W44998   6.321  11.140   4.328 -0.0112  0.1139 -0.2173
29530W        W44999  15.452  11.526  12.680 -0.0761 -0.1827  0.2157
29531W        W45000  15.240   7.654   0.621 -0.0373 -0.3914 -0.1858
29532W        W45001   3.483  15.465  11.942 -0.0104  0.0178 -0.1688
29533W        W45002  12.525  14.363   1.030 -0.0994  0.1817 -0.2526
29534W        W45003   1.534  15.372   4.172  0.3115 -0.1544 -0.2443
29535W        W45004  17.986   4.708   1.716 -0.1563  0.0198 -0.0081
29536W        W45005  12.689  14.642  15.670 -0.0971 -0.1405 -0.0106
29537W        W45006  17.979   4.088  13.987 -0.0568  0.1974  0.2129
29538W        W45007   2.005   5.165   0.373 -0.2167 -0.1233 -0.2477
29539W        W45008   7.329   1.035   2.385  0.0379 -0.0216  0.0503
29540W        W45009  13.526  12.490  11.831  0.4082  0.4208 -0.0255
29541W        W45010  15.669  16.416   3.463 -0.0584 -0.0628  0.1836
29542W        W45011   6.711   1.914  11.323  0.0634 -0.0746 -0.3280
29543W        W45012  15.762  12.806   4.316  0.1083  0.1360  0.1843
29544W        W45013   2.248   9.672  15.875  0.1857  0.2842 -0.0369
29545W        W45014  16.427  12.432   3.929 -0.0737  0.4032 -0.0894
29546W        W45015  12.399  12.457   4.335 -0.0278 -0.0445  0.2228
29547W        W45016   6.636   0.631   1.381 -0.2066  0.1750  0.0059
29548W        W45017   2.451   2.747   4.333  0.1685 -0.0852  0.0838
29549W        W45018  12.670   7.119   0.414  0.1956  0.0087  0.0491
29550W        W45019  12.647   2.519   1.087 -0.0355  0.0251  0.3607
29551W        W45020   0.609  17.605  10.915  0.3810 -0.0051 -0.1333
29552W        W45021   6.802  15.843  11.618 -0.2622 -0.2822  0.2294
29553W        W45022  13.998   0.668  10.841 -0.0044 -0.4170 -0.0460
29554W        W45023  11.945  15.653   0.794 -0.0195 -0.4219  0.1876
29555W        W45024  12.087   1.802   3.950 -0.0658  0.4258 -0.3469
29556W        W45025   0.893   0.737  11.485  0.0729  0.2631 -0.1484
29557W        W45026  17.215   2.893   4.306 -0.0544  0.3610 -0.1219
29558W        W45027   7.402   3.542  14.192  0.2198  0.0644 -0.1992
29559W        W45028   5.165   3.354  11.428 -0.3800 -0.0651 -0.0063
29560W        W45029   4.269   9.709  12.296  0.2481  0.0879  0.1572
29561W        W45030   1.416   6.019  15.220  0.1642 -0.1044  0.3433
29562W        W45031  13.350   9.360   3.784 -0.0672  0.1311 -0.0201
29563W        W45032  13.663  13.657  14.537 -0.1359  0.2857  0.0572
29564W        W45033  11.069   6.997  10.985 -0.0818 -0.0384  0.1664
29565W        W45034   4.251  15.646   3.463  0.0177  0.2008  0.1240
29566W        W45035  10.569  16.035  14.827  0.1931 -0.0102  0.1987
29567W        W45036   3.877  15.691  13.816  0.1060 -0.1251 -0.0640
29568W        W45037   4.097  15.053   1.921 -0.1985  0.2849  0.2749
29569W        W45038  12.915  17.412  14.925  0.0103  0.0186 -0.0447
29570W        W45039  12.654   9.801  15.754 -0.2929  0.3404  0.1313
29571W        W45040   6.338  13.759   4.403 -0.1275  0.0540  0.0713
29572W        W45041   7.887  18.334   0.832 -0.2141  0.2612 -0.4194
29573W        W45042  16.601  16.999  13.432  0.1842 -0.1358  0.0837
29574W        W45043   6.990  13.018   2.220 -0.0679 -0.3148 -0.1224
29575W        W45044  16.933   7.354  15.277  0.3300  0.2807 -0.0172
29576W        W45045  15.548  11.586   1.617 -0.1271  0.1525 -0.1088
29577W        W45046   7.397   3.374   2.921 -0.2602  0.0872  0.1577
29578W        W45047   2.420  17.006   1.404 -0.0378  0.1684 -0.2234
29579W        W45048   9.790  11.595  14.258 -0.1944 -0.1049 -0.1255
29580W        W45049  14.645  12.263  14.883  0.2337  0.0875  0.0685
29581W        W45050   5.877  14.017   4.681  0.1379  0.0215  0.0089
29582W        W45051   9.807  12.691  11.085  0.1057 -0.2191 -0.1611
29583W        W45052  15.946  15.383  15.100 -0.0813 -0.2014  0.0486
29584W        W45053  16.270  11.383   4.971  0.1238 -0.2152  0.1735
29585W        W45054  13.747   9.973  12.452 -0.0685  0.1662 -0.3951
29586W        W45055  16.181  10.048  14.053 -0.0383  0.3574 -0.3229
29587W        W45056   6.872   8.352   1.437 -0.2098  0.2477 -0.0103
29588W        W45057  18.012   0.701  13.085 -0.2502 -0.2011  0.0699
29589W        W45058   9.477  18.239   4.914  0.0432  0.0505  0.1332
29590W        W45059  17.967   3.041  14.765 -0.1284  0.3000  0.2114
29591W        W45060  12.930   7.316   1.526  0.2131 -0.1856  0.1106
29592W        W45061  16.106  15.277  11.142  0.1725 -0.2356  0.2821
29593W        W45062   5.378   8.571  13.494  0.1559  0.2398  0.0744
29594W        W45063   8.532  12.504  10.846  0.3243 -0.1749 -0.0078
29595W        W45064   9.665   4.583  13.340  0.1098  0.0517  0.0899
29596W        W45065   2.536  18.291   1.446 -0.3369  0.1860 -0.2500
29597W        W45066   0.566   4.276   2.272  0.2338 -0.1805  0.1231
29598W        W45067   5.863   8.755   0.714 -0.0120  0.1912  0.0994
29599W        W45068   0.105   5.479   0.007 -0.3153  0.1280  0.0858
29600W        W45069  13.387  15.908   4.757  0.1184 -0.2455 -0.0875
29601W        W45070  15.752  17.131   5.276 -0.0664 -0.0448 -0.1520
29602W        W45071  11.794  18.312  14.057 -0.2976 -0.1711 -0.0970
29603W        W45072  14.543   6.697   4.225 -0.0354  0.1027 -0.1737
29604W        W45073  17.561   0.694  15.131 -0.1278 -0.0620 -0.0855
29605W        W45074  15.452  13.893  11.934  0.1372  0.2340  0.1002
29606W        W45075  15.869   5.359  12.922 -0.2194  0.0397  0.3333
29607W        W45076   4.567   2.910  14.602  0.1886 -0.1239  0.2272
29608W        W45077  12.193   5.207  15.764  0.1221  0.2408 -0.3016
29609W        W45078   1.565  15.990   2.101 -0.3345  0.2476  0.0321
29610W        W45079  13.752   9.459   5.220  0.2809  0.0488 -0.0527
29611W        W45080   0.904   4.503  11.793 -0.1456 -0.3739 -0.1252
29612W        W45081   0.161   0.613   4.151 -0.0493 -0.0844  0.0077
29613W        W45082   6.884   6.515  14.219 -0.0128  0.1440  0.2000
29614W        W45083  17.558   8.843  13.842 -0.2264 -0.0585  0.4352
29615W        W45084  11.634   6.023  14.876  0.0656  0.3166  0.0466
29616W        W45085   5.852  17.181  12.752  0.2303 -0.0267 -0.4042
29617W        W45086   7.780  11.735   1.456 -0.0536  0.0457 -0.4947
29618W        W45087   0.275   1.781   3.110  0.1014 -0.1577 -0.0942
29619W        W45088  18.340  11.064   0.904  0.0122  0.0792 -0.0354
29620W        W45089  10.814   1.125  12.409  0.2735  0.1361 -0.2025
29621W        W45090  13.653   2.579  13.725  0.1340 -0.2136 -0.0624
29622W        W45091   3.651  13.360   1.599 -0.0735  0.0193 -0.0366
29623W        W45092  16.711  14.078  10.326 -0.1622  0.0344  0.1681
29624W        W45093  11.812  14.266  11.478 -0.1795 -0.1433  0.1438
29625W        W45094  14.296  14.870   3.861  0.0795 -0.0491  0.2298
29626W        W45095  14.544  15.206  12.648 -0.1152  0.2315  0.0009
29627W        W45096   7.386   7.185  11.083 -0.0249 -0.1827  0.2845
29628W        W45097   7.881   8.950   0.434  0.0371 -0.0842  0.2088
29629W        W45098   6.922   3.920   5.543  0.2418  0.1985  0.2773
29630W        W45099   6.885   4.520   2.334 -0.2035 -0.1833 -0.0198
29631W        W45100  16.893  17.237  11.570 -0.4601 -0.1668  0.0565
29632W        W45101   2.100  17.670  15.644  0.1075  0.1727  0.0465
29633W        W45102  11.247  13.832  12.864 -0.0277 -0.1264  0.1148
29634W        W45103  11.858  14.829  14.261  0.2117  0.1636  0.1234
29635W        W45104  15.072   2.283  12.276 -0.1053 -0.0075  0.2128
29636W        W45105   0.940   3.356   2.977  0.2622  0.1438 -0.0753
29637W        W45106  15.960  11.222  15.553  0.0440 -0.1561  0.0698
29638W        W45107   2.937   6.073   0.995 -0.1560 -0.3175  0.2672
29639W        W45108  15.467   0.307  15.050 -0.0210  0.0763  0.0367
29640W        W45109   3.267   3.017   1.963  0.0437 -0.1389  0.2965
29641W        W45110  16.368   4.005   4.754 -0.1296  0.1306 -0.5021
29642W        W45111   3.584  17.557   3.232 -0.1511  0.2033 -0.1849
29643W        W45112   5.902   7.533  13.800  0.0124 -0.1749 -0.2327
29644W        W45113   4.853   6.305   0.666  0.0750 -0.2746 -0.2039
29645W        W45114   4.447   4.557   0.422 -0.3153  0.1901 -0.1058
29646W        W45115  17.756   7.545  10.774  0.0218  0.4230  0.2307
29647W        W45116  12.769   0.267   0.230 -0.1793  0.1262 -0.0748
29648W        W45117  12.575   4.132   1.440  0.0778 -0.0448  0.1367
29649W        W45118  14.724  15.232  10.963  0.0924  0.0033  0.0230
29650W        W45119  16.826  18.349   6.111  0.1721 -0.1120  0.0755
29651W        W45120  14.548   9.321  11.382  0.0644 -0.0963 -0.2815
29652W        W45121   7.256  11.336  10.869  0.0559  0.2471  0.2104
29653W        W45122  13.176   2.159  14.653 -0.3392  0.1773  0.0680
29654W        W45123   9.376   8.539   1.429 -0.5272 -0.1647  0.0267
29655W        W45124  17.856   7.049  15.172  0.0051  0.3516  0.1858
29656W        W45125   1.315   8.114   2.804  0.3559 -0.1712  0.1582
29657W        W45126   0.121   5.848  10.346 -0.0141  0.0095 -0.3027
29658W        W45127  18.205  11.448  15.822  0.0670 -0.1879 -0.0936
29659W        W45128   7.910  10.372   1.538  0.0726  0.2585 -0.1439
29660W        W45129   4.393   5.640   3.828 -0.1436  0.0858 -0.2142
29661W        W45130   0.193   7.921   1.914  0.0540 -0.1333  0.0314
29662W        W45131   4.308   6.888  14.191  0.2313 -0.0182 -0.0647
29663W        W45132   5.741   9.346  11.989  0.2061  0.1271 -0.1110
29664W        W45133   4.217   9.778  15.282  0.3996  0.1110 -0.0739
29665W        W45134   5.562   5.487   0.290 -0.0869  0.0535  0.2279
29666W        W45135   1.160   0.285  15.486 -0.2564  0.1821  0.4018
29667W        W45136   7.635   1.480  14.675 -0.0131 -0.1531 -0.0146
29668W        W45137  11.719   6.238  13.492  0.0214  0.1936 -0.3079
29669W        W45138  11.413   2.932   5.869  0.0892 -0.0782  0.0466
29670W        W45139  11.692  17.758  14.154  0.0151  0.0314  0.1145
29671W        W45140  17.090  16.507  10.964  0.1047  0.0435  0.0480
29672W        W45141  12.396   1.076  14.544  0.1431 -0.0579  0.0052
29673W        W45142   7.121  16.455  14.755  0.3295  0.0703 -0.1245
29674W        W45143  12.130   6.962  11.214  0.1923  0.0670 -0.0425
29675W        W45144  15.889  10.333   2.597 -0.1905 -0.0702  0.1715
29676W        W45145  10.815  10.271   2.605  0.0521 -0.0877 -0.2349
29677W        W45146  13.331   9.432  10.256 -0.0857  0.1142  0.2555
29678W        W45147   8.356   0.586   2.191  0.2521  0.5372 -0.0968
29679W        W45148  13.943  11.214   5.459 -0.1747  0.0513  0.2940
29680W        W45149  17.052   5.565   4.625 -0.1363  0.0014 -0.0390
29681W        W45150  15.399   2.602   5.183 -0.0525 -0.5328 -0.1642
29682W        W45151   6.896  13.469   5.449 -0.0744 -0.1319  0.2331
29683W        W45152  13.131   2.749  13.522 -0.0765  0.3501  0.1728
29684W        W45153  16.047  12.540   0.347 -0.3780  0.0043 -0.1559
29685W        W45154  10.337   0.065  15.688 -0.3721 -0.1103 -0.1454
29686W        W45155   3.721  10.386   3.126  0.3047  0.2342 -0.1378
29687W        W45156   5.425  15.935  13.761  0.1534  0.2490 -0.2425
29688W        W45157   3.319  14.291   2.549 -0.0508  0.0592  0.0493
29689W        W45158   7.326  10.089  13.814  0.4098  0.1399  0.1346
29690W        W45159  10.855   4.320   3.663 -0.2158 -0.4009 -0.1095
29691W        W45160  10.787   3.598  14.233  0.1993 -0.0320 -0.0121
29692W        W45161  15.209  16.589   5.123  0.1147  0.1671 -0.3216
29693W        W45162   3.207   2.079  15.779  0.3097  0.0755  0.3555
29694W        W45163   9.089   4.841  13.930  0.2375  0.1989  0.0427
29695W        W45164  13.892  16.281   9.884 -0.2910 -0.0627 -0.0617
29696W        W45165   9.482   8.129  13.098  0.1824 -0.2278  0.0149
29697W        W45166   6.139   3.696   2.294  0.1409  0.0024 -0.4708
29698W        W45167  16.187  13.169   0.993  0.1386 -0.2127  0.0694
29699W        W45168  12.895   2.836  12.175 -0.0719  0.0863  0.1812
29700W        W45169   5.765  15.766   2.498 -0.0209 -0.0039  0.0654
29701W        W45170  13.076  17.127   1.851  0.3850 -0.0940 -0.0769
29702W        W45171  14.172   4.881   1.429  0.1123  0.0166 -0.0311
29703W        W45172   8.033   5.856   1.173  0.1114  0.0648 -0.0408
29704W        W45173  10.430   0.377  10.939  0.1512 -0.2271 -0.1999
29705W        W45174  15.403   6.256   3.605 -0.1030 -0.5163  0.0205
29706W        W45175  16.881  16.601   4.216  0.1343  0.2887  0.0232
29707W        W45176  13.548  10.936  11.337  0.0327  0.0660  0.1485
29708W        W45177   4.814   5.531  13.542 -0.0969 -0.1958  0.0599
29709W        W45178   9.147   5.817  14.043  0.3338  0.0217  0.0786
29710W        W45179  11.811   8.556  12.536  0.1895 -0.1596  0.3748
29711W        W45180   3.641   6.269  12.741  0.1476 -0.0216  0.1821
29712W        W45181   1.259   4.080  15.314 -0.2914 -0.0638 -0.1507
29713W        W45182  17.167   6.341  11.079  0.2391  0.0645  0.1419
29714W        W45183  11.293   0.168  15.706  0.1194 -0.0600 -0.1329
29715W        W45184   8.965   6.940  13.501  0.0328  0.0755 -0.0067
29716W        W45185  11.159   9.512  15.268 -0.0360 -0.1265  0.0984
29717W        W45186  18.398  18.379  13.567  0.3573  0.0360  0.0145
29718W        W45187  17.001  12.145  11.412 -0.2729  0.1732  0.1235
29719W        W45188  16.205   0.666   5.003  0.0893  0.1291 -0.0041
29720W        W45189  14.466   4.228   1.286  0.1360  0.0017 -0.0225
29721W        W45190  18.010  15.218   2.494  0.2098 -0.0121 -0.2068
29722W        W45191   1.150   8.308  14.056 -0.0899 -0.1783  0.3005
29723W        W45192  10.871  13.093  14.467  0.0619  0.2020  0.0019
29724W        W45193   0.632   3.667   3.888  0.1543 -0.1042  0.2193
29725W        W45194   2.147   2.593  12.416 -0.0919  0.0988  0.2779
29726W        W45195   2.170   5.438  12.484  0.0508 -0.1378  0.2499
29727W        W45196  17.035  17.177   0.352 -0.0978 -0.0153 -0.1170
29728W        W45197   8.983   1.945  11.673 -0.1224  0.2970  0.0104
29729W        W45198  15.376   9.798  12.021  0.0888  0.1538  0.1189
29730W        W45199   2.770   4.302  13.116  0.0783  0.0660  0.1745
29731W        W45200   7.161   2.708  15.304  0.1007 -0.4787  0.1670
29732W        W45201   1.308  10.632   5.217 -0.0279  0.0783 -0.2395
29733W        W45202   8.725   8.152   2.257  0.1356 -0.0730  0.3207
29734W        W45203  13.037   7.296   5.770 -0.3195 -0.1219  0.1083
29735W        W45204   7.834   6.684   5.025 -0.2690  0.0763  0.0099
29736W        W45205  11.870   4.773   5.707  0.0663 -0.0947 -0.2838
29737W        W45206   1.855   0.503   1.934 -0.2360  0.0757 -0.0737
29738W        W45207   8.289   8.713   0.596 -0.1748 -0.1646  0.0523
29739W        W45208   0.665   8.552  14.072  0.0915  0.0624  0.4062
29740W        W45209  16.646  12.282   2.041  0.1336 -0.1583 -0.2329
29741W        W45210   6.572   1.642  12.218  0.1685  0.3378 -0.1528
29742W        W45211   3.400   3.999  15.859  0.0421 -0.1027 -0.0759
29743W        W45212   9.959  17.808  11.470  0.1543 -0.2511  0.0807
29744W        W45213  18.468   3.531   4.505 -0.0483  0.2725 -0.1653
29745W        W45214   0.015  16.508   2.402 -0.0309  0.0301 -0.1838
29746W        W45215   8.744   4.366  12.186 -0.1900 -0.3768  0.0724
29747W        W45216  16.379  14.002   5.685  0.1754 -0.2507 -0.0443
29748W        W45217   5.248  16.105  15.410 -0.0206  0.0808  0.0319
29749W        W45218  15.144  10.888  10.228 -0.1803  0.0167 -0.0335
29750W        W45219   8.609   3.373   1.680  0.3161  0.0256  0.0355
29751W        W45220  16.767  11.853   3.206  0.0329  0.2159 -0.0893
29752W        W45221  10.093   1.919  13.145  0.2041 -0.3790  0.1075
29753W        W45222   0.988   5.314   0.407  0.0171  0.1205  0.1367
29754W        W45223  16.996  15.743  11.239 -0.0694  0.0327 -0.0464
29755W        W45224   7.047   6.720  11.091  0.0476 -0.0601  0.2473
29756W        W45225   3.353  16.539  13.546  0.3235  0.2138 -0.2485
29757W        W45226   8.061  13.134   1.740  0.0212  0.1830  0.2173
29758W        W45227  10.860  15.275   2.660  0.1073 -0.0272 -0.1989
29759W        W45228  16.080  10.895  14.105  0.3454  0.0159  0.3561
29760W        W45229   9.042  13.610   5.605 -0.1654 -0.1569  0.0378
29761W        W45230   4.728   8.583   1.676  0.2137 -0.1772  0.3024
29762W        W45231  16.551   7.409   2.087  0.1932  0.2349  0.1071
29763W        W45232   6.319   6.466  11.715 -0.2625  0.0050 -0.0809
29764W        W45233  17.843  13.025   1.568  0.2320  0.1325  0.1532
29765W        W45234   9.881   1.889  11.142 -0.2260  0.1548  0.0220
29766W        W45235  10.066  13.286  14.583  0.1659  0.2326 -0.0713
29767W        W45236   7.428   8.519   3.113 -0.1760 -0.0687 -0.0183
29768W        W45237   7.991   0.776   2.459 -0.1335  0.1416 -0.1094
29769W        W45238  15.998  10.728  15.245  0.1865  0.0320 -0.1589
29770W        W45239   2.554   6.471   1.979 -0.0033 -0.1743 -0.0893
29771W        W45240  11.408   2.272  10.614 -0.0350 -0.0047 -0.1218
29772W        W45241  15.512  15.174   4.086 -0.1689  0.2653  0.0869
29773W        W45242   8.656   1.823  12.075  0.0177 -0.0566 -0.1206
29774W        W45243  12.077   9.822   1.330  0.0567  0.2759  0.4814
29775W        W45244   4.058   8.502  13.881 -0.1854 -0.2046 -0.1524
29776W        W45245   6.172  14.469  12.725  0.0394 -0.0059  0.0960
29777W        W45246  14.411   5.394   3.076 -0.0684  0.0788 -0.1826
29778W        W45247  16.182   5.471  11.217  0.0962 -0.2146  0.2284
29779W        W45248   1.182   9.874  11.860 -0.1487 -0.0719  0.0309
29780W        W45249  10.834   5.156  15.278 -0.0533 -0.0744  0.0325
29781W        W45250   4.969  11.800   1.502 -0.3388  0.1700 -0.0805
29782W        W45251   5.464  15.950   1.149  0.0168 -0.1830  0.0020
29783W        W45252   5.633  15.315  15.823 -0.1734 -0.0108  0.0609
29784W        W45253   2.122  15.771   2.679  0.1797  0.0740  0.0157
29785W        W45254   6.244   4.077   4.249 -0.0702 -0.1781 -0.2976
29786W        W45255  11.236  10.731   1.573 -0.2849 -0.0940 -0.1949
29787W        W45256   3.735  11.029  15.761 -0.2697 -0.0630  0.1388
29788W        W45257  15.672  13.925  13.717  0.3324 -0.0461  0.0410
29789W        W45258   7.961  15.666   2.460 -0.1022 -0.0779  0.1471
29790W        W45259  13.959  16.297   2.638 -0.2144 -0.2048 -0.1072
29791W        W45260   7.781   4.385   4.851 -0.1399 -0.2442 -0.0689
29792W        W45261  12.560  12.183  13.090 -0.0760  0.0646  0.3761
29793W        W45262  10.590  13.410  12.383  0.1271 -0.0690 -0.4567
29794W        W45263  12.631   7.150  13.604 -0.2631  0.0095 -0.1553
29795W        W45264  10.282   8.490  12.120  0.1951  0.2004  0.3336
29796W        W45265   8.262  14.926  13.027 -0.1339 -0.1450  0.2358
29797W        W45266  13.615   7.906  12.493  0.1829  0.0639  0.1662
29798W        W45267   1.900   7.220  11.524 -0.1732  0.0027  0.3787
29799W        W45268   1.074   1.161   5.186 -0.0279  0.0924  0.1698
29800W        W45269   3.569   3.811  12.389 -0.2889 -0.1504  0.2511
29801W        W45270   2.961   2.201  14.250  0.1239  0.0737 -0.0954
29802W        W45271   1.895   4.975  15.846 -0.0732  0.0596 -0.0765
29803W        W45272   2.271   2.948  11.129  0.0842 -0.1300 -0.1299
29804W        W45273   9.696  16.171  11.060  0.0066 -0.2467  0.0395
29805W        W45274  16.747   6.705  12.319  0.0321 -0.1048 -0.2148
29806W        W45275   8.740   3.283   1.159  0.0518 -0.2055 -0.0663
29807W        W45276   9.309   1.038  14.236 -0.1202 -0.1597 -0.1517
29808W        W45277   6.177  14.710  14.084 -0.1547 -0.0017 -0.2004
29809W        W45278   8.805  16.687  13.077 -0.0414 -0.1329  0.4721
29810W        W45279   5.529   9.497   2.625  0.0883 -0.0434 -0.1166
29811W        W45280  12.831   9.168  14.608 -0.0449 -0.3350  0.2301
29812W        W45281   0.239  12.334   3.903 -0.0489 -0.0928  0.0388
29813W        W45282   0.956  13.066   3.349  0.0393  0.1479  0.0854
29814W        W45283  10.414  11.428  12.470 -0.0652  0.5691 -0.4520
29815W        W45284   0.833  14.181   4.427  0.0364 -0.1666  0.2671
29816W        W45285   0.872   0.273   1.746 -0.1020 -0.1918  0.1978
29817W        W45286   6.885   9.750  10.314  0.0535 -0.2164  0.0769
29818W        W45287  15.644   3.175  13.202  0.1612 -0.0637 -0.2231
29819W        W45288   3.127  17.013  13.390 -0.0754 -0.1706  0.1211
29820W        W45289   7.662   6.596  12.928  0.0772  0.0149  0.1372
29821W        W45290   8.123   5.306   4.654 -0.3938 -0.0037 -0.2752
29822W        W45291  17.878  16.330   4.306  0.0322 -0.0370 -0.2271
29823W        W45292  16.656  16.574  15.201 -0.1413  0.1705  0.0967
29824W        W45293  10.709  12.408   4.689 -0.0558 -0.1828 -0.0126
29825W        W45294  10.112  10.883   3.741 -0.3049 -0.2003 -0.3387
29826W        W45295   5.748  14.352  10.237 -0.1278  0.0885 -0.2810
29827W        W45296   1.571  17.264  10.555  0.2283  0.2809 -0.2728
29828W        W45297  13.081  13.643   3.303 -0.2634  0.1289 -0.1473
29829W        W45298   3.848  13.818  14.754  0.0476  0.1607 -0.1350
29830W        W45299   7.689   9.236  12.544  0.0688 -0.0380  0.0181
29831W        W45300  12.203  13.514   4.980  0.1190 -0.2859  0.3485
29832W        W45301  18.249   3.632  13.162 -0.2679  0.0212  0.2239
29833W        W45302  16.748   0.176  14.934  0.1955 -0.0971 -0.1714
29834W        W45303  16.256   0.219  13.954  0.1838  0.4031  0.0845
29835W        W45304  13.760  13.779   3.934  0.2859 -0.0873 -0.2391
29836W        W45305   5.696  15.954  11.418 -0.0286  0.1077 -0.0910
29837W        W45306   0.391   6.144  11.591 -0.1126 -0.0377  0.2165
29838W        W45307  12.775   4.387  10.693 -0.1191  0.2275 -0.0778
29839W        W45308   7.563   9.747   1.707  0.2753 -0.2850  0.1057
29840W        W45309   5.940   2.264  14.570  0.1359 -0.2993 -0.2445
29841W        W45310  10.384   9.684   4.168  0.1147 -0.1684 -0.1144
29842W        W45311  18.404  13.700   5.001 -0.0106 -0.0704  0.1435
29843W        W45312   2.063  14.384  10.717  0.2049 -0.2249 -0.0623
29844W        W45313  15.488   3.574   0.970  0.5728  0.1808  0.0778
29845W        W45314  16.538   3.423   0.131 -0.0065 -0.1164 -0.1612
29846W        W45315   4.639  16.439  15.671 -0.0398 -0.1674 -0.1057
29847W        W45316  16.981   4.738  14.552 -0.0317  0.2299 -0.2086
29848W        W45317  11.974   5.286   2.547  0.2012  0.1122  0.1716
29849W        W45318  14.914  10.379   4.391 -0.2104  0.2138  0.0403
29850W        W45319  12.660   6.422   2.699 -0.0800  0.2999  0.0865
29851W        W45320  12.303   0.156   1.978 -0.0817 -0.1623 -0.0036
29852W        W45321   1.705  11.235   2.115 -0.1078 -0.0698  0.2225
29853W        W45322  14.698  14.737  13.341 -0.2644 -0.1626  0.0155
29854W        W45323   4.935   6.186   5.844 -0.0840 -0.1095  0.2524
29855W        W45324  15.252   2.817   3.538 -0.0817 -0.2842  0.0546
29856W        W45325  15.326  15.536   5.383  0.1138  0.0477  0.1143
29857W        W45326   6.839   0.557   3.286  0.1729  0.0912  0.1168
29858W        W45327  12.580   9.427  10.991  0.0653 -0.0184  0.3862
29859W        W45328   9.484  15.385   2.743  0.1188 -0.4378  0.1666
29860W        W45329  14.368   3.765   0.695 -0.2331  0.1000  0.0678
29861W        W45330   2.405   4.682   2.946 -0.0106  0.1277  0.0402
29862W        W45331   1.167  10.551  14.737 -0.0050  0.4008  0.0675
29863W        W45332   0.206  16.922  15.487  0.0922 -0.0492 -0.3325
29864W        W45333   7.721   3.875  12.290  0.0811 -0.2455  0.3079
29865W        W45334  12.251   0.783   4.304  0.0242 -0.2451 -0.1555
29866W        W45335  18.327  15.196  12.269  0.0861  0.0019 -0.0238
29867W        W45336   8.459  10.630   4.685  0.1823 -0.2672  0.2869
29868W        W45337  13.329   1.144  15.850 -0.0027  0.1417 -0.1034
29869W        W45338   3.773   5.128   0.499  0.1931  0.0667  0.0780
29870W        W45339   1.336   9.510   0.676 -0.1850 -0.1969  0.1792
29871W        W45340   7.901  11.297  15.067  0.1521 -0.0481  0.2526
29872W        W45341  13.198  16.726  15.658  0.0411 -0.1100  0.1269
29873W        W45342   1.062   8.680   3.006  0.1245  0.1999 -0.1922
29874W        W45343  12.577   6.192  10.127 -0.1868 -0.3466  0.0568
29875W        W45344   5.350   3.841  15.312 -0.2623 -0.0298  0.2496
29876W        W45345  16.637   8.378  13.717  0.0030  0.0451 -0.3834
29877W        W45346  11.796  10.662  11.705  0.3948  0.6667 -0.0844
29878W        W45347   3.061   7.598  14.614  0.0100  0.0586 -0.3106
29879W        W45348   9.402   4.660   2.737  0.2071 -0.1529 -0.0921
29880W        W45349  13.393  16.542   5.363  0.0281 -0.2818 -0.0689
29881W        W45350   4.624  17.850   1.644  0.0130  0.4791 -0.0878
29882W        W45351  14.374   7.253  12.961 -0.0509  0.0501  0.0084
29883W        W45352  15.651  15.487   1.903  0.3039  0.1014  0.2079
29884W        W45353   8.872  14.408   3.261 -0.3618  0.1594 -0.3855
29885W        W45354  13.150   7.166   0.553 -0.0143  0.0931 -0.0847
29886W        W45355   1.676  14.966   3.700 -0.3205 -0.1591 -0.0421
29887W        W45356  15.693  11.148  15.070 -0.4195 -0.0245  0.0582
29888W        W45357   1.598  13.072   3.275  0.0869  0.3463 -0.0040
29889W        W45358   9.228  10.640  12.522  0.1909  0.1357 -0.2984
29890W        W45359   1.638   4.459  12.977 -0.3681  0.1516 -0.0428
29891W        W45360   3.629  11.748  12.440  0.2357 -0.2417  0.0880
29892W        W45361  11.830   3.551  15.331 -0.0228  0.2069 -0.2257
29893W        W45362   6.736  12.530   2.771 -0.0768  0.1430  0.0909
29894W        W45363   2.524  12.193   0.954  0.0266 -0.1478  0.0147
29895W        W45364  14.741  11.559   0.382  0.3075  0.2984  0.0399
29896W        W45365  12.966  18.478  12.934 -0.0760 -0.0646 -0.3996
29897W        W45366   3.476   4.862   4.826 -0.0056  0.0375 -0.2965
29898W        W45367  10.207   4.589  12.614  0.0335  0.0933  0.0841
29899W        W45368  18.329  11.414  12.248  0.0588 -0.1194 -0.4558
29900W        W45369   1.261   6.315  13.390  0.3182  0.0911 -0.3853
29901W        W45370   1.819  15.267   0.901 -0.0760  0.2360 -0.0734
29902W        W45371   9.057   4.095  14.532  0.4765  0.2982 -0.0118
29903W        W45372  17.432   5.840  15.018 -0.1231 -0.0179 -0.0395
29904W        W45373  18.330  16.646   2.905  0.1801  0.0882 -0.0172
29905W        W45374   9.955  10.608  11.808 -0.0379 -0.0786  0.1557
29906W        W45375   2.153   4.240  12.460  0.0752  0.0445 -0.0173
29907W        W45376   3.319   6.916  11.895  0.0566  0.2071 -0.1094
29908W        W45377  15.967  12.012   0.342 -0.2207  0.4699  0.1792
29909W        W45378  13.926   3.623   4.606 -0.1599  0.0679  0.1036
29910W        W45379  12.067  15.303  14.158  0.1577 -0.0903  0.2952
29911W        W45380   8.871   9.758   3.137  0.0468  0.1161  0.0654
29912W        W45381  15.827   0.363  11.512 -0.0531  0.1956  0.1377
29913W        W45382  15.061  16.076  10.926 -0.2218 -0.2754  0.0801
29914W        W45383   5.783   3.500  14.271  0.1167 -0.1599 -0.1873
29915W        W45384  11.335   7.360   4.492 -0.0358 -0.2079 -0.0791
29916W        W45385  11.275  16.861   2.034  0.1203 -0.1862 -0.2236
29917W        W45386   3.475  12.634   2.473  0.1185  0.0735  0.0201
29918W        W45387   9.073  16.695   1.059  0.0878  0.0338 -0.2115
29919W        W45388   5.338   4.354  12.964  0.1265  0.1193 -0.0510
29920W        W45389  11.151  12.535   2.151  0.0956  0.2200 -0.1084
29921W        W45390   0.241  10.115  10.860  0.1170 -0.0821  0.0474
29922W        W45391  18.217   2.755  11.810  0.1033  0.0302  0.0041
29923W        W45392  16.534   9.318  10.877 -0.1804 -0.1008 -0.0357
29924W        W45393   7.863   9.740   9.945 -0.0148 -0.0596 -0.2067
29925W        W45394   6.154  13.895   6.185 -0.2072  0.2137  0.1706
29926W        W45395  18.438   3.186  12.898  0.0914 -0.0074  0.1017
29927W        W45396   0.838   0.100   4.249  0.0666  0.0080 -0.0478
29928W        W45397  16.253  13.635   2.497 -0.0179  0.1798 -0.1160
29929W        W45398   3.524   0.062   3.526  0.1291  0.2780 -0.1321
29930W        W45399   8.996   4.967  12.957  0.1473  0.1711  0.0393
29931W        W45400  11.798  14.025   2.039  0.1376 -0.1072 -0.1114
29932W        W45401   7.077  12.359   1.932  0.3205  0.1548 -0.1009
29933W        W45402   5.307   2.856  12.141  0.1033 -0.0388  0.1488
29934W        W45403  17.069   7.446   3.056 -0.1890 -0.2860  0.1768
29935W        W45404   0.853   6.842  13.864  0.1778 -0.1362 -0.2658
29936W        W45405  15.583  10.504   0.050  0.1335  0.1783 -0.2224
29937W        W45406   2.928  13.860  11.719  0.0133  0.1627  0.0005
29938W        W45407   7.850   6.002  14.005 -0.0491  0.1045  0.1325
29939W        W45408   5.013  16.888   3.569 -0.0541 -0.1216  0.0010
29940W        W45409   1.095  12.099   0.705  0.1032 -0.1033 -0.2279
29941W        W45410  17.367  13.436  13.258 -0.1104 -0.4250 -0.1170
29942W        W45411   7.762   3.329  10.926 -0.0400 -0.1378 -0.0814
29943W        W45412  13.396  13.383  14.151 -0.3668 -0.2575  0.2397
29944W        W45413   5.982   0.585  13.341  0.1489 -0.1429 -0.1744
29945W        W45414  17.726  10.515   4.650 -0.0772 -0.0224  0.0049
29946W        W45415   3.333   4.328   3.678  0.2687  0.4451 -0.0183
29947W        W45416   3.579  16.305   1.433 -0.1279 -0.2848 -0.1809
29948W        W45417   5.202  14.394  15.865 -0.2170  0.1290 -0.0594
29949W        W45418   7.469  15.278   2.693  0.1525  0.3973  0.1882
29950W        W45419   4.585  10.151  15.329 -0.1542  0.0123 -0.0091
29951W        W45420   8.066   3.534  15.899 -0.1758 -0.2920 -0.2048
29952W        W45421  10.489  13.444  14.233 -0.0078 -0.0097  0.2645
29953W        W45422   2.948   0.507  13.570 -0.1419  0.0984 -0.1514
29954W        W45423  14.062   3.252   0.777 -0.0875 -0.1976  0.0024
29955W        W45424  12.748  18.343  15.365  0.1872 -0.1817  0.0332
29956W        W45425  13.027  11.317   6.104  0.1386  0.0960 -0.0695
29957W        W45426  12.479  17.789  14.722  0.0589  0.2555  0.3242
29958W        W45427  11.763  12.146  13.963 -0.0472  0.2124 -0.0710
29959W        W45428  12.750   2.918  14.042 -0.2699 -0.2584  0.1995
29960W        W45429   3.814  12.024   0.902  0.0124  0.0696  0.0594
29961W        W45430  14.241   4.243   3.863 -0.0400  0.1418 -0.1431
29962W        W45431  13.498   5.562  10.853  0.0307  0.0389 -0.2180
29963W        W45432  17.209  16.426  15.193  0.1083 -0.0642 -0.0218
29964W        W45433  18.341  17.638  13.980  0.1229 -0.1898 -0.1020
29965W        W45434   8.035   7.368   3.240 -0.0491  0.0279  0.1919
29966W        W45435  17.221  16.561  12.246  0.0413 -0.1192 -0.1418
29967W        W45436   8.649  15.353   5.552  0.1422 -0.1936  0.3265
29968W        W45437  10.203  13.771  14.547 -0.1906  0.1065 -0.0956
29969W        W45438   0.438  15.593  14.870  0.1604 -0.1202  0.2076
29970W        W45439  18.348   1.920   2.886 -0.0609  0.1292  0.1560
29971W        W45440  16.305   8.217  13.336  0.1426  0.1891 -0.2201
29972W        W45441  17.299  11.376  11.911  0.5312 -0.1910 -0.0784
29973W        W45442  11.951  11.989   0.364 -0.1570  0.2013 -0.0628
29974W        W45443   4.918   5.562  14.684  0.2463 -0.0101  0.1217
29975W        W45444   5.594  16.432   2.130  0.0307  0.2656 -0.1295
29976W        W45445  13.203   8.754  13.429 -0.1778  0.3155 -0.2504
29977W        W45446   9.244  13.148  15.559  0.2532 -0.0978  0.1067
29978W        W45447  10.415   1.975   0.090 -0.2704 -0.1799 -0.0412
29979W        W45448   9.266   8.073  11.830  0.0335 -0.0678  0.1937
29980W        W45449  18.172   9.448   1.263  0.2993 -0.2387 -0.0596
29981W        W45450   6.994  12.180   6.023  0.0613 -0.2208  0.5015
29982W        W45451  18.167   1.239  12.009 -0.2914  0.0948 -0.1753
29983W        W45452  13.959  15.559  11.486 -0.2564 -0.0372  0.1319
29984W        W45453   0.849  10.192   0.552  0.4172  0.1904 -0.1845
29985W        W45454  11.547  15.776   1.571 -0.3423 -0.3570  0.1973
29986W        W45455   8.356  11.638   2.650 -0.0263 -0.1507  0.0001
29987W        W45456   0.530   5.562  12.216  0.0926  0.1713  0.0762
29988W        W45457   8.293   7.374   2.444  0.0036 -0.0869  0.1254
29989W        W45458  14.064  11.144   0.912 -0.0570  0.0546  0.0184
29990W        W45459   0.088   5.487   1.705 -0.2899  0.2038 -0.1386
29991W        W45460   4.493   1.020  15.349  0.0989 -0.2820 -0.1796
29992W        W45461  15.229   3.399   3.400 -0.0413 -0.0054  0.0189
29993W        W45462  18.061   5.270  13.171  0.1009  0.1995 -0.1045
29994W        W45463  12.854   5.259   3.596 -0.1680  0.1163 -0.0751
29995W        W45464  16.877   1.484   4.656 -0.2870  0.2690 -0.1647
29996W        W45465  18.350   4.654   2.945 -0.0310  0.0402  0.0215
29997W        W45466  18.317   3.558   0.373 -0.1003  0.2569 -0.1810
29998W        W45467   8.445  15.907   4.405 -0.0520 -0.1647  0.2952
29999W        W45468   0.480   4.782  11.646 -0.0689  0.2019 -0.2114
30000W        W45469  16.306  13.248   4.334 -0.0473 -0.2049  0.2021
30001W        W45470  16.220   2.369  10.893 -0.2063 -0.1684  0.0544
30002W        W45471   8.127   5.593   2.093  0.1233 -0.0795 -0.0503
30003W        W45472  14.686   5.477   2.026  0.2553 -0.3534  0.2496
30004W        W45473   7.566  18.070  14.092  0.0048 -0.0516 -0.5108
30005W        W45474   2.222  13.464   2.398 -0.2338  0.1590 -0.1711
30006W        W45475  13.014   0.705  14.484  0.0517  0.0022 -0.0728
30007W        W45476   9.195  12.796   1.011 -0.1155  0.0744  0.0133
30008W        W45477   4.910  16.381   3.258 -0.1385  0.1992 -0.0818
30009W        W45478  16.790   6.620  13.551 -0.3358  0.3011 -0.0534
30010W        W45479  17.397  16.301  14.457  0.0746  0.1077 -0.1458
30011W        W45480  14.600  13.004  11.426  0.1141 -0.0398 -0.1317
30012W        W45481  10.640  11.025   1.707 -0.1076 -0.0816 -0.2712
30013W        W45482  15.345  11.293   3.988 -0.1520  0.0932  0.3356
30014W        W45483  13.565   8.950  15.268  0.0058  0.5222  0.3733
30015W        W45484  18.084   6.308  11.889 -0.1124 -0.3074 -0.2415
30016W        W45485  11.015   6.045  12.822  0.0515 -0.0767 -0.1154
30017W        W45486  13.694   3.275   4.322 -0.2456 -0.1859  0.3095
30018W        W45487  12.110   7.620  15.240  0.1885  0.1547  0.0269
30019W        W45488   3.174  14.197   4.263 -0.0893 -0.1823  0.0517
30020W        W45489   1.208  16.640  11.239 -0.0118  0.1095  0.0402
30021W        W45490   9.027  11.281   5.022  0.0326 -0.0924 -0.0657
30022W        W45491  11.692   3.119   4.450  0.2355  0.2197 -0.0353
30023W        W45492  17.009   3.018  14.385  0.0230 -0.1178 -0.0738
30024W        W45493  11.572   0.323  13.544  0.0547 -0.0146 -0.1673
30025W        W45494  16.566   8.855  12.431 -0.0289  0.1530  0.0063
30026W        W45495   1.241   7.058  15.241 -0.1002 -0.0693  0.1468
30027W        W45496   5.103  18.292   2.762 -0.0107 -0.1971 -0.3863
30028W        W45497   3.702  17.728   2.078 -0.2176  0.0139  0.1295
30029W        W45498   6.864   0.560  15.412 -0.1566 -0.0231 -0.1289
30030W        W45499  15.396   0.354   4.700  0.0304  0.0800  0.1050
30031W        W45500  13.976   8.535   3.261 -0.1647  0.4778 -0.2331
30032W        W45501   9.051  18.148   0.024  0.0373 -0.1609  0.2646
30033W        W45502   2.331   4.796   4.672 -0.2637 -0.0949  0.2630
30034W        W45503   7.769   9.112  11.952  0.0244  0.1348 -0.2198
30035W        W45504  17.018   9.217  12.512 -0.1804  0.0322  0.0688
30036W        W45505   6.770   9.510  12.834  0.0390 -0.0404 -0.3664
30037W        W45506   0.773  13.845   2.770 -0.1362  0.0817  0.0909
30038W        W45507   3.393  14.032   5.868  0.3173  0.0057  0.1275
30039W        W45508   4.892  10.985   2.481  0.0616 -0.1343 -0.2217
30040W        W45509  12.200  10.152  10.039  0.0165 -0.1951 -0.0291
30041W        W45510   8.756  13.994   0.820  0.2303 -0.1621 -0.0800
30042W        W45511  12.059   0.155   3.874  0.0428 -0.1392 -0.0527
30043W        W45512  11.288   2.109   1.918  0.1487  0.0687 -0.2954
30044W        W45513  18.301  16.373   3.353  0.3300 -0.0468  0.0295
30045W        W45514  15.501   0.808   3.767 -0.0770  0.1581  0.3413
30046W        W45515   7.000  11.191   0.210 -0.0024  0.1404  0.1346
30047W        W45516   4.173  11.878   4.888  0.1017  0.0385  0.0610
30048W        W45517  17.642   1.039   3.657  0.0807 -0.1036 -0.1763
30049W        W45518  11.875  17.683   0.938 -0.0254  0.1087  0.1249
30050W        W45519  16.009   4.688  13.750  0.0455 -0.1268 -0.1604
30051W        W45520  13.544   4.208  13.808  0.0649 -0.2836  0.1412
30052W        W45521   6.841  15.412  13.592  0.1066 -0.2094  0.3274
30053W        W45522   8.064   6.322  14.342 -0.4411 -0.0341 -0.0496
30054W        W45523   6.945  11.823   4.764  0.0622 -0.0279 -0.1834
30055W        W45524   0.902   5.738  13.782 -0.0619 -0.0557 -0.2604
30056W        W45525   7.642   7.541  12.637 -0.0057 -0.2093 -0.2529
30057W        W45526   5.911  11.694  13.360 -0.2784  0.1106  0.0897
30058W        W45527   7.718  12.395   4.612  0.0935 -0.2728  0.1750
30059W        W45528   1.466  16.199   4.289  0.0440  0.0166 -0.0775
30060W        W45529   3.874   5.198   4.673 -0.0049 -0.2540  0.0159
30061W        W45530   7.747   3.269  13.062  0.0151  0.1581 -0.1800
30062W        W45531  17.713  14.093  13.202  0.0205  0.3567 -0.0937
30063W        W45532  15.480  16.902   4.272 -0.1110  0.1586  0.0646
30064W        W45533  10.262  11.669   1.111  0.2270  0.1487 -0.1483
30065W        W45534  13.610   2.907  14.532  0.1812  0.1421 -0.1330
30066W        W45535   2.226   5.613  14.871 -0.1329  0.3250 -0.0964
30067W        W45536   3.926  10.557  15.859  0.1815  0.2101  0.1799
30068W        W45537   3.349  16.687   4.717  0.2334  0.1768 -0.0168
30069W        W45538   3.704   6.461  14.766  0.2186  0.1912 -0.2275
30070W        W45539   3.296  11.398  13.631 -0.0330  0.3277  0.2432
30071W        W45540   7.423  18.099   6.231 -0.0591 -0.1002  0.2746
30072W        W45541  12.348  13.472  13.241  0.1268 -0.0221  0.3445
30073W        W45542   8.692  16.969   1.848  0.0875  0.0948  0.1924
30074W        W45543   2.479  12.696  14.716  0.3305  0.1066  0.1568
30075W        W45544   6.349  16.799  13.920  0.1594  0.1633  0.0917
30076W        W45545   3.870  14.927   2.306  0.0515 -0.1131  0.2406
30077W        W45546   2.006   3.892   0.048 -0.2111  0.0569  0.0983
30078W        W45547  17.760   8.671  11.001  0.0768  0.1703  0.2390
30079W        W45548   9.731  15.201  11.229 -0.0206 -0.0770 -0.2935
30080W        W45549   7.473  13.204  15.181  0.1622 -0.2936  0.0158
30081W        W45550   4.809   5.748  11.389  0.0308 -0.1356  0.0023
30082W        W45551  15.663  11.229  14.190 -0.1915  0.1808  0.0005
30083W        W45552  17.690   3.196   5.009 -0.1831  0.1040 -0.0572
30084W        W45553  14.817  10.137   9.849 -0.3425  0.0592 -0.4709
30085W        W45554   2.988  14.218  14.424  0.2008  0.0953  0.0942
30086W        W45555  14.852  11.613  14.097 -0.1531  0.2525 -0.2486
30087W        W45556   0.840  15.340  12.098 -0.1829 -0.1719  0.4279
30088W        W45557  14.692  13.457  14.451 -0.0561 -0.0959 -0.1100
30089W        W45558  10.941  12.323   3.057  0.0966  0.0680 -0.2593
30090W        W45559   8.374  13.587  12.636 -0.2074 -0.0765 -0.0917
30091W        W45560   2.468   9.638   4.857 -0.1109 -0.1318 -0.3211
30092W        W45561  18.269   5.707  10.801 -0.1687 -0.0740 -0.1900
30093W        W45562   0.517  12.523   4.275 -0.1346  0.3398  0.2474
30094W        W45563  16.616  17.696  11.379  0.0897 -0.0959 -0.0402
30095W        W45564  16.569  11.361   3.257 -0.0956 -0.0750 -0.1889
30096W        W45565  13.347   2.453  15.004 -0.1540 -0.0192 -0.1346
30097W        W45566   6.208  11.236  13.436  0.0929  0.1763  0.2139
30098W        W45567  15.188  17.495   1.511  0.3687 -0.0006 -0.0473
30099W        W45568   5.213  18.283   0.397  0.1487  0.0131 -0.2637
30100W        W45569  12.387  12.129  12.546  0.0770 -0.0560  0.1814
30101W        W45570   8.505   9.582  12.160  0.1714 -0.2734 -0.0781
30102W        W45571  11.391   1.618   1.549 -0.2798  0.0469 -0.0777
30103W        W45572   7.118   3.068  11.423 -0.0689 -0.2584  0.0631
30104W        W45573   6.479   7.070   2.856  0.0372 -0.0877  0.2627
30105W        W45574   9.012  15.449  10.912  0.1076 -0.1511 -0.1392
30106W        W45575   8.257  16.088   5.646 -0.2659  0.1548  0.2836
30107W        W45576  11.177  14.783   1.964 -0.2782 -0.1428  0.2293
30108W        W45577   9.833   6.181  12.972 -0.1725 -0.1476  0.0537
30109W        W45578   9.693  10.899  15.312  0.1022 -0.1508 -0.1351
30110W        W45579  15.833   4.081   4.612  0.0908 -0.2364 -0.0707
30111W        W45580   4.734   0.398  15.815  0.0706  0.2297  0.0767
30112W        W45581   2.592   8.548   2.413  0.1305  0.0194  0.2016
30113W        W45582   3.028  13.819  11.157 -0.1121 -0.0757  0.1889
30114W        W45583   5.763  10.158   3.500  0.2477 -0.0703  0.2436
30115W        W45584   0.994  10.989  14.552  0.1213 -0.2770 -0.0357
30116W        W45585   6.400  14.715   1.450 -0.1624 -0.1578  0.0228
30117W        W45586   1.464   4.963  15.621  0.1613  0.1454 -0.2492
30118W        W45587   6.457  10.006  13.069  0.1246  0.1006  0.1338
30119W        W45588  10.674   6.581   0.994  0.2555 -0.2650  0.1583
30120W        W45589   3.170  15.099   1.687 -0.1136 -0.0287  0.1310
30121W        W45590   1.692   6.214  13.162 -0.4009 -0.1311 -0.2563
30122W        W45591  14.709   7.876   2.570  0.1115 -0.4187 -0.0382
30123W        W45592  17.118   2.368   5.151  0.3028 -0.1202 -0.0395
30124W        W45593  12.237   3.531   0.795 -0.1018 -0.0507 -0.0863
30125W        W45594   9.991   3.124   1.228 -0.1502 -0.0515  0.0113
30126W        W45595  13.213  17.082  11.718 -0.4462 -0.0944 -0.0746
30127W        W45596  16.625  16.095  11.122 -0.3243  0.2088  0.2749
30128W        W45597   1.975  17.682  11.246  0.1686  0.2688  0.0129
30129W        W45598  11.608  17.787   2.290 -0.0368 -0.0098 -0.1573
30130W        W45599   4.952  15.556   6.490  0.0332 -0.4340  0.0026
30131W        W45600  11.797  12.605  14.149  0.2611  0.1223  0.1260
30132W        W45601  12.259  13.740  12.316  0.1404  0.0125  0.0157
30133W        W45602  13.064   5.551  10.644  0.1055  0.1384  0.0454
30134W        W45603   2.447   5.621   1.880  0.2377 -0.1319  0.0133
30135W        W45604   2.776   6.823   2.720 -0.2801  0.0049  0.1323
30136W        W45605  11.951  17.305   5.051 -0.0986 -0.2326  0.3284
30137W        W45606  15.842  17.490   1.440 -0.0762 -0.2108 -0.3746
30138W        W45607   7.046   1.035  15.203  0.2739 -0.1027 -0.0739
30139W        W45608   5.819   4.779   4.052 -0.2619 -0.3359 -0.0120
30140W        W45609  12.307  10.180  15.159  0.2959 -0.1176 -0.1593
30141W        W45610   7.854   5.570   3.360  0.1219 -0.3404 -0.0647
30142W        W45611   3.563  17.751  12.546  0.2196 -0.2534 -0.0340
30143W        W45612   7.391  14.634  13.354 -0.1303 -0.1193  0.0965
30144W        W45613   3.026  12.089   4.504 -0.1273  0.3031 -0.0807
30145W        W45614  16.816   2.741   5.092  0.2077 -0.2279  0.2071
30146W        W45615  14.365   0.219  14.389  0.3521  0.0076  0.1632
30147W        W45616  16.802   0.706  10.777 -0.1171 -0.0072 -0.0368
30148W        W45617   4.993   6.508   2.969 -0.0868 -0.0126 -0.2585
30149W        W45618  16.437   5.518  10.251 -0.0648 -0.1187  0.0031
30150W        W45619  17.737  12.694  11.215 -0.1643 -0.2286 -0.1666
30151W        W45620   0.150   7.872  13.571  0.1648 -0.3243  0.1352
30152W        W45621  10.404   0.609  11.678 -0.0185 -0.2427  0.0425
30153W        W45622   1.462   8.061  13.240 -0.2080 -0.2706  0.0167
30154W        W45623  18.029   3.909  11.931  0.1183  0.1114 -0.2612
30155W        W45624   1.725  12.887  14.118  0.0988 -0.0399  0.1021
30156W        W45625  14.882  12.394  11.789 -0.1648  0.1454 -0.0207
30157W        W45626  14.485   0.080  12.148  0.0189  0.0684  0.1034
30158W        W45627   2.149  17.916   5.390 -0.1131 -0.1569  0.0428
30159W        W45628  12.362  18.378   2.731  0.0903  0.1293  0.0531
30160W        W45629   2.603  15.749  13.954 -0.3346 -0.0543 -0.0326
30161W        W45630   9.264   1.823  14.330 -0.1738  0.3953 -0.1362
30162W        W45631   1.714  16.248   3.869  0.1486  0.0547  0.0009
30163W        W45632   6.924  13.711  12.319 -0.0834  0.0757 -0.1810
30164W        W45633  16.440  18.172  15.819  0.0372 -0.2314 -0.2859
30165W        W45634   0.485  12.492   3.449 -0.2578 -0.0997  0.0554
30166W        W45635   6.539  15.740  14.595 -0.6331  0.1212  0.2539
30167W        W45636   8.055  18.188  10.949 -0.2384  0.0795 -0.2252
30168W        W45637   6.992   1.312  13.933  0.1715  0.1304  0.0076
30169W        W45638  15.689   3.972  12.792 -0.0101  0.1078  0.2014
30170W        W45639   7.119  10.554   2.721 -0.3154 -0.1443 -0.0937
30171W        W45640   4.132  14.986   0.706  0.2638  0.1105  0.1455
30172W        W45641  13.916  11.363   0.412  0.4234 -0.0983 -0.1329
30173W        W45642   2.517   8.576   3.278 -0.1121 -0.1790  0.0413
30174W        W45643   7.853   5.509   0.738  0.1065  0.1730 -0.0217
30175W        W45644   2.866   8.592  11.300 -0.5178  0.1892 -0.1185
30176W        W45645   6.963  10.416   2.024  0.1200  0.1979  0.1920
30177W        W45646   2.947  13.903   3.852 -0.2543 -0.0871 -0.2070
30178W        W45647   7.417   2.994   4.868  0.2655 -0.1779 -0.2316
30179W        W45648   7.151   8.138   1.900  0.1000  0.2015 -0.2772
30180W        W45649   0.220  16.126  13.679 -0.3569 -0.0150 -0.1317
30181W        W45650   1.332  12.674   3.036 -0.1746 -0.1285  0.2527
30182W        W45651   9.010  14.463  15.191 -0.0444  0.0276 -0.1797
30183W        W45652   8.747  13.305  15.651  0.1125  0.2261  0.0749
30184W        W45653   8.187   7.044  15.869 -0.0404  0.0409 -0.1020
30185W        W45654   0.627  15.111   4.406  0.2048 -0.0473 -0.5197
30186W        W45655  12.493   0.570  11.532  0.1679 -0.2533  0.2109
30187W        W45656  14.979  10.274   2.130 -0.0700 -0.0488  0.2352
30188W        W45657   8.782   0.106   4.807 -0.2622 -0.0875 -0.3695
30189W        W45658  11.905   5.724  15.651 -0.1421  0.2829  0.1639
30190W        W45659   1.216   4.394   4.526  0.2279  0.0730  0.1615
30191W        W45660   0.396  15.208   0.145 -0.2736  0.1127  0.1452
30192W        W45661  16.284  12.485   5.247  0.0484  0.2250  0.0940
30193W        W45662  16.075  13.260  12.253 -0.1382  0.0711 -0.1123
30194W        W45663   5.258   9.959   3.041  0.1382  0.0188 -0.2835
30195W        W45664   8.018   4.189   0.707  0.2440  0.0033 -0.1471
30196W        W45665   1.927   7.081  12.051  0.0968  0.2215 -0.2133
30197W        W45666   0.960   8.992   3.447  0.0833 -0.1491 -0.1194
30198W        W45667   7.423   6.218  11.669 -0.0082  0.1354  0.1304
30199W        W45668  17.941  12.304   1.107  0.1327  0.2567  0.2558
30200W        W45669  12.797   9.315  11.851  0.0735 -0.0684  0.1337
30201W        W45670   8.466   9.521  14.232 -0.3455 -0.4418  0.2033
30202W        W45671   1.226  16.675  12.312  0.2210  0.2406 -0.1262
30203W        W45672  16.300  12.144   1.182 -0.2251  0.2271 -0.0068
30204W        W45673  15.799   2.861  12.139  0.0547 -0.1331 -0.0814
30205W        W45674  11.103  13.464   4.362 -0.0812  0.0054 -0.1130
30206W        W45675   7.486  17.922   3.932 -0.4168  0.2830  0.3503
30207W        W45676   2.176   0.170  13.314  0.2076 -0.1018  0.1181
30208W        W45677  16.619   3.672  10.871 -0.1081  0.2372  0.1434
30209W        W45678   7.803  14.776   0.114  0.1553 -0.2868  0.0053
30210W        W45679  16.415  11.393  12.845  0.1098 -0.2773  0.3899
30211W        W45680  16.052  11.620   5.389  0.0962  0.2220  0.0985
30212W        W45681  14.237  11.010   1.857  0.0613 -0.0602  0.0439
30213W        W45682  17.432   3.625   3.820 -0.1628 -0.0048 -0.0758
30214W        W45683  15.997   5.325   1.760 -0.1833  0.1192 -0.1173
30215W        W45684  17.777  14.218  13.700  0.1520  0.0976 -0.1019
30216W        W45685   1.505   8.354  13.723  0.1494 -0.1349 -0.1358
30217W        W45686   5.219   9.838   2.318 -0.1948  0.1445 -0.2277
30218W        W45687  11.979  16.388  14.364 -0.0818 -0.1283 -0.0518
30219W        W45688   5.317   4.245  11.616 -0.4344  0.2621  0.0837
30220W        W45689   8.597  17.863  11.751  0.1203  0.0975 -0.0067
30221W        W45690   7.420   3.156   0.995 -0.0714 -0.0313 -0.1553
30222W        W45691   6.545  15.210   5.388 -0.0009 -0.1359 -0.0614
30223W        W45692  18.229   7.537   4.944 -0.2453  0.2550 -0.1073
30224W        W45693  18.217  10.762   3.080 -0.1896  0.2122 -0.3981
30225W        W45694  15.634   9.745   5.244  0.3991  0.0881  0.0494
30226W        W45695  11.550   8.089  11.506  0.1621 -0.0343  0.0738
30227W        W45696   5.829  17.971   2.261  0.2673 -0.0803  0.0235
30228W        W45697   7.290  16.338  13.518  0.0819  0.1126 -0.2795
30229W        W45698   8.538  14.520  15.906  0.1269 -0.0730 -0.2944
30230W        W45699  10.614  16.257  15.812 -0.0383 -0.0838  0.0755
30231W        W45700   4.556  14.070  15.817  0.0741  0.3284  0.0465
30232W        W45701  15.515  17.633  11.988 -0.0498 -0.0491 -0.4194
30233W        W45702  15.153   1.569  15.702  0.2470 -0.1152  0.1934
30234W        W45703   7.156   4.722  13.841  0.2088  0.0729 -0.3257
30235W        W45704  12.434   7.296  14.863  0.1378  0.2407  0.3643
30236W        W45705  13.025  14.390   9.889 -0.0351  0.0292  0.1252
30237W        W45706   3.883   2.766  11.684 -0.1040  0.2428  0.0922
30238W        W45707   8.775   7.246  11.289 -0.5027 -0.1075 -0.0054
30239W        W45708   7.407  11.922  10.933 -0.2552  0.3075  0.0949
30240W        W45709  11.587  11.996   2.542 -0.0331  0.3104  0.0908
30241W        W45710   1.815   2.207  11.704  0.2816 -0.1758 -0.1554
30242W        W45711   8.260  14.982  15.832  0.1436 -0.0791  0.4604
30243W        W45712   8.908   1.308  11.732 -0.2810  0.3140 -0.2349
30244W        W45713   4.993  17.918  14.903  0.2678 -0.2200 -0.1704
30245W        W45714   5.900   0.856   2.518  0.1081 -0.0967  0.0178
30246W        W45715  10.081  10.147   1.911  0.2500  0.0085  0.3532
30247W        W45716  17.386   4.707  13.116 -0.0191  0.1757 -0.1230
30248W        W45717  11.157   7.440   2.166 -0.0609 -0.0785  0.0675
30249W        W45718   3.722  11.099  14.939  0.1908 -0.1565 -0.2064
30250W        W45719   5.847   3.165  14.798  0.0561  0.1345  0.2571
30251W        W45720   5.048   4.878   3.830  0.3780 -0.0178 -0.0585
30252W        W45721  13.788   9.640  13.735 -0.0076  0.0243  0.2252
30253W        W45722   8.444   6.706  15.532  0.0075  0.3047  0.3082
30254W        W45723  11.684   4.035   2.649  0.3258  0.1648 -0.0004
30255W        W45724   8.559   3.830   3.554 -0.0240 -0.1419  0.3027
30256W        W45725  12.923   9.770  13.210 -0.2001 -0.0309 -0.1261
30257W        W45726   2.288   8.110  14.810  0.5515 -0.2220  0.3510
30258W        W45727  18.222  18.473  11.221 -0.0826 -0.2224  0.1700
30259W        W45728  13.647  10.499  12.569  0.0196  0.0828 -0.0961
30260W        W45729   1.666  15.590   3.112 -0.3379 -0.2322 -0.0629
30261W        W45730  18.407  17.432   2.395 -0.1696  0.0128 -0.1047
30262W        W45731  11.888  14.647  13.499 -0.2905  0.0552  0.2366
30263W        W45732  14.879   8.332  13.681 -0.0107  0.0570  0.0093
30264W        W45733  14.849  18.088   4.549 -0.1041  0.3634  0.0845
30265W        W45734  14.268  12.680  14.940  0.1292 -0.1488 -0.1620
30266W        W45735   4.571   9.151   4.110 -0.1986  0.1597 -0.1431
30267W        W45736   7.196   0.585   2.941  0.0118 -0.0438  0.0535
30268W        W45737   7.022   8.775   2.341 -0.1413  0.0076  0.2355
30269W        W45738  13.193  15.549  13.291  0.2235 -0.1198  0.1161
30270W        W45739   3.302  15.521  11.019  0.1751 -0.0202  0.2082
30271W        W45740  10.132   4.836  11.705 -0.0885  0.3414  0.0192
30272W        W45741  11.143  16.721   1.568 -0.1729 -0.2056 -0.0699
30273W        W45742   3.367  14.890  15.743  0.1004  0.1056  0.0417
30274W        W45743  16.352  17.673   0.963  0.1113 -0.1179  0.1245
30275W        W45744   2.100   9.441   1.141  0.5304  0.1128  0.0241
30276W        W45745   2.673   2.684  11.346 -0.1064  0.1860 -0.0553
30277W        W45746   4.165  11.398  11.786 -0.1506 -0.0457 -0.3198
30278W        W45747   0.178  15.831  12.752 -0.0376  0.0432 -0.1262
30279W        W45748  18.069   1.959  13.881  0.0988 -0.1972 -0.1437
30280W        W45749   3.727  10.444  14.906 -0.0777 -0.0680  0.0851
30281W        W45750  14.307   7.515   4.714  0.0139  0.0394 -0.0503
30282W        W45751  13.887   8.783   4.332  0.2149 -0.0715 -0.1135
30283W        W45752   7.748   8.784  13.361 -0.4672 -0.1514  0.2186
30284W        W45753  15.152  10.733   2.243  0.1207 -0.1198 -0.1362
30285W        W45754  13.587  13.042   3.651  0.1239  0.0102 -0.0715
30286W        W45755   5.526   3.333   3.486 -0.1919 -0.2738  0.0909
30287W        W45756   9.204   7.733  12.919 -0.2093 -0.3198 -0.0447
30288W        W45757  10.144  16.380   0.730 -0.2358 -0.1448  0.2519
30289W        W45758  14.542   0.514   4.731 -0.1216 -0.2141  0.1166
30290W        W45759  11.395   3.017  14.789  0.0929  0.1287  0.1086
30291W        W45760   1.564   0.094   2.080 -0.0558 -0.0165  0.1523
30292W        W45761  11.322   1.187  14.770  0.1522  0.0203 -0.2986
30293W        W45762   6.704   2.502   4.961  0.1590 -0.2117  0.0176
30294W        W45763  13.036  14.075   0.949  0.4565 -0.0582  0.1767
30295W        W45764  15.971   7.034   2.151  0.2124  0.0704 -0.1706
30296W        W45765   1.173  13.104   3.851  0.0121 -0.1167  0.0519
30297W        W45766  15.247   8.091   3.367 -0.1276 -0.2386  0.1383
30298W        W45767   4.309   4.623   2.545  0.1966  0.1383  0.1784
30299W        W45768  12.948  17.458  12.229 -0.2694  0.0205  0.1738
30300W        W45769   7.801   3.724   4.194 -0.0499  0.0397 -0.1554
30301W        W45770  12.820  11.937  14.889 -0.0561  0.2019  0.4462
30302W        W45771  16.284   5.313   4.935  0.0604  0.1217  0.0809
30303W        W45772   7.645  13.562  13.447  0.2446  0.0324  0.3026
30304W        W45773   6.556  11.014  12.951 -0.0783  0.1564  0.2338
30305W        W45774  10.748  17.862   3.354 -0.0873  0.1162  0.1842
30306W        W45775  16.595   9.078   1.842  0.0513  0.2733  0.3054
30307W        W45776   2.718   8.162   1.401 -0.2857  0.0188  0.0676
30308W        W45777  16.563  13.722   4.633 -0.0187  0.1062  0.0212
30309W        W45778  16.136   8.586   2.376 -0.1804  0.0723 -0.2909
30310W        W45779   0.904  12.187   2.854  0.0855  0.3096  0.5709
30311W        W45780  16.908  14.169  13.644 -0.0763 -0.0415 -0.3843
30312W        W45781   7.989  16.834   6.501  0.0493 -0.1065 -0.2409
30313W        W45782  12.223  14.011   5.092  0.1076  0.2165  0.2035
30314W        W45783   5.502  16.514  14.492  0.3505  0.0155 -0.2014
30315W        W45784   9.637  15.557  13.418 -0.2020  0.0096 -0.2998
30316W        W45785   5.656   2.478  12.121  0.0971  0.1081  0.0046
30317W        W45786  15.849   0.956  13.201  0.2525  0.2812 -0.1017
30318W        W45787   5.694  15.905  12.919  0.0778 -0.1138  0.0887
30319W        W45788  11.386  12.977  14.333 -0.1939  0.2901  0.0214
30320W        W45789  10.089   8.382   0.902 -0.3753 -0.1482  0.0964
30321W        W45790   5.587  14.886  15.017 -0.1587 -0.2176  0.0048
30322W        W45791   0.221  12.048   3.360  0.1421 -0.2011  0.0604
30323W        W45792  10.738   8.097   3.138  0.0080  0.1700  0.0520
30324W        W45793  12.689  15.956   1.894  0.1862 -0.2657 -0.2553
30325W        W45794   8.860  10.981   3.010 -0.5663  0.2879  0.3961
30326W        W45795  11.543  17.521  14.568  0.1015 -0.1376 -0.1186
30327W        W45796   1.529  17.661  13.931 -0.1733  0.1767 -0.0578
30328W        W45797  13.033  14.591   1.010 -0.4662  0.1766 -0.1504
30329W        W45798   9.348  13.859   4.812  0.1684  0.0352 -0.2768
30330W        W45799   6.924   2.321   1.332 -0.0681  0.0218 -0.1139
30331W        W45800  15.731  13.173  13.676 -0.0587  0.0533  0.1518
30332W        W45801  12.501  13.313   1.055  0.0693 -0.1162 -0.0741
30333W        W45802  18.085   8.267  11.656 -0.2702  0.0088  0.1209
30334W        W45803   8.527   7.319  13.791 -0.0225 -0.2273  0.2443
30335W        W45804   0.575   0.948   5.411  0.0862 -0.1696 -0.1012
30336W        W45805  16.625   1.234  12.060  0.4301 -0.0400 -0.0292
30337W        W45806   7.424   2.081   5.506 -0.3777 -0.1243 -0.0956
30338W        W45807  11.970   8.523   0.150 -0.2646  0.1676 -0.1324
30339W        W45808   2.114  10.191   2.399 -0.1095 -0.1419 -0.1215
30340W        W45809  10.607   7.067  11.270 -0.0390 -0.0304 -0.0610
30341W        W45810   9.454   1.659   1.556 -0.0238 -0.2475 -0.2185
30342W        W45811   5.709  16.793   5.879 -0.1348 -0.0114  0.0045
30343W        W45812   6.026   6.536   4.701  0.1429 -0.0377 -0.3247
30344W        W45813   6.535  15.369   2.542 -0.1606  0.3590  0.3248
30345W        W45814  12.050   0.202   1.140 -0.1464  0.1136 -0.0208
30346W        W45815  11.753   6.649  11.217  0.0328 -0.2628  0.0063
30347W        W45816   0.016  11.548   4.574  0.0001  0.0450 -0.0349
30348W        W45817  16.722  17.754  11.961 -0.0981  0.0369 -0.0310
30349W        W45818   7.265   4.897  11.544  0.0266  0.2171 -0.1375
30350W        W45819  16.929   7.037   4.780  0.1801  0.1542 -0.1094
30351W        W45820   0.409   5.217   0.324  0.1156 -0.1523 -0.0687
30352W        W45821   1.561   5.644   3.190 -0.0204 -0.2417  0.1007
30353W        W45822  13.719  11.044  15.606  0.0163 -0.2693 -0.0962
30354W        W45823  16.393  10.283   4.226  0.1012  0.1157  0.2415
30355W        W45824  12.006   6.860   4.973  0.1707  0.2258  0.2711
30356W        W45825  17.735  15.667   1.492 -0.1243  0.0254 -0.3651
30357W        W45826   0.278   8.197   1.007  0.0783  0.0354 -0.0765
30358W        W45827  11.339  10.615  11.569  0.1766  0.0519  0.1081
30359W        W45828  11.185  17.709  12.816 -0.2820  0.1289 -0.0022
30360W        W45829   5.057   6.731  12.889  0.0211 -0.2044 -0.2084
30361W        W45830  17.115   7.339   2.548  0.2103  0.0222 -0.0494
30362W        W45831  15.899  18.341  15.253 -0.4139 -0.0263  0.0532
30363W        W45832  14.991   1.073   0.757  0.1231 -0.1457  0.2127
30364W        W45833   4.566  17.987   4.223 -0.1513  0.0817 -0.1463
30365W        W45834  17.678  16.264   3.423 -0.3022  0.3816 -0.0611
30366W        W45835   3.771  15.188   0.405 -0.1351 -0.0864 -0.1883
30367W        W45836  13.979  13.347  11.944  0.0411 -0.0485 -0.2284
30368W        W45837  17.986   9.553  14.425 -0.0435  0.3583 -0.1487
30369W        W45838   7.361   0.067   4.489 -0.0701 -0.0502 -0.1957
30370W        W45839  10.841  12.142   5.319  0.1821  0.2453 -0.3434
30371W        W45840   0.664   5.794   0.830  0.0439 -0.6201 -0.0399
30372W        W45841   6.676  17.025   3.566  0.2990 -0.0761  0.0066
30373W        W45842   9.253  12.712   2.261 -0.0437  0.1294 -0.1255
30374W        W45843   5.939  10.281   2.276 -0.1669 -0.1833 -0.2015
30375W        W45844  16.658   1.088   2.253  0.1114 -0.0766 -0.0856
30376W        W45845  18.258  11.882   1.287 -0.3320 -0.1816  0.2655
30377W        W45846   4.354   0.029  15.660 -0.3641 -0.2221 -0.2106
30378W        W45847  10.027   5.347   2.578 -0.2694 -0.4347 -0.0877
30379W        W45848   5.204  16.504  13.418 -0.1870 -0.0909  0.1323
30380W        W45849  16.934   9.241   4.383  0.1185  0.0953  0.1242
30381W        W45850  16.452   8.651  11.975 -0.2808 -0.1756  0.1260
30382W        W45851   4.719   3.271  12.770 -0.0823  0.1546  0.2829
30383W        W45852   7.378  12.226  13.972  0.1251  0.0593  0.1655
30384W        W45853  15.292   2.626   0.142 -0.0449 -0.3179  0.0370
30385W        W45854   1.603   9.514  13.862  0.4460  0.0619 -0.1842
30386W        W45855  16.848   6.762   1.015 -0.0364  0.1952  0.4173
30387W        W45856  17.209  13.777   2.087 -0.4129 -0.0198  0.0056
30388W        W45857   8.474  13.824   1.305 -0.0647  0.0281  0.4692
30389W        W45858  13.257   6.398   4.644  0.1108 -0.0125  0.1735
30390W        W45859  18.276  13.650   4.318  0.0234 -0.0431 -0.2137
30391W        W45860  17.058   4.159  14.124 -0.1214  0.0970 -0.0422
30392W        W45861   3.560  12.863  13.794 -0.0870  0.0820  0.0296
30393W        W45862  11.389  16.341   3.733  0.1523  0.1752 -0.0305
30394W        W45863  11.630   4.014   1.446 -0.0734  0.0370  0.0537
30395W        W45864   1.392   6.900   0.252  0.2034 -0.1890  0.1108
30396W        W45865   5.804  14.087   5.376 -0.1077 -0.1729 -0.0623
30397W        W45866   6.883   4.610  11.722 -0.1481  0.0158  0.1042
30398W        W45867   2.455   9.711   3.273 -0.0813 -0.1137  0.1579
30399W        W45868   2.925  17.611   2.988  0.0286  0.2978 -0.2568
30400W        W45869   9.616   9.265  10.945  0.3219  0.2039  0.1759
30401W        W45870  12.114   5.168   2.019 -0.0901  0.1719  0.0882
30402W        W45871  15.778  12.981   0.565  0.0118 -0.0258  0.0660
30403W        W45872   0.997   0.196   3.836 -0.0988  0.0596  0.2696
30404W        W45873   5.011   2.387   0.105  0.0395 -0.2555 -0.0626
30405W        W45874  16.974   5.018  13.145  0.0493 -0.2669  0.0020
30406W        W45875  12.397  16.720  12.910  0.1541  0.0845  0.0626
30407W        W45876  13.183   8.792   0.747  0.0069 -0.1385  0.1449
30408W        W45877   9.996  17.545   1.344 -0.0484 -0.0506 -0.2476
30409W        W45878  15.500  10.936   5.318 -0.1006 -0.0896 -0.0767
30410W        W45879   6.193  14.096   0.133  0.4943 -0.1657  0.3394
30411W        W45880  10.321  14.679   2.205  0.0556  0.0824 -0.1483
30412W        W45881   9.355   4.514  12.124  0.1429  0.1161  0.0126
30413W        W45882   6.155   8.713  15.647  0.0222 -0.1985 -0.3485
30414W        W45883  11.462   5.728   0.572  0.0742 -0.2748  0.0348
30415W        W45884  12.539   5.689  11.404  0.0709 -0.4036  0.0728
30416W        W45885   1.323   8.041   0.842 -0.1188 -0.2270 -0.1882
30417W        W45886  14.796   7.186  14.734 -0.0043 -0.0429  0.0821
30418W        W45887  11.658   7.126   3.530 -0.1952  0.3220 -0.5194
30419W        W45888  15.218   7.633  14.830  0.4075 -0.3421 -0.0120
30420W        W45889   4.160  15.101  15.540 -0.0572  0.1461  0.3458
30421W        W45890  17.306   6.411   3.507  0.1035 -0.1057 -0.0649
30422W        W45891  10.822  15.771   1.601 -0.0263 -0.2026  0.2786
30423W        W45892  15.697   8.387  14.834 -0.2578 -0.1130  0.0371
30424W        W45893   7.398   3.897  15.579  0.1251 -0.2555  0.1565
30425W        W45894   6.880   6.350  12.901 -0.0103 -0.1341  0.0841
30426W        W45895  12.079  11.756  11.922 -0.0067 -0.2317  0.5423
30427W        W45896  13.345   8.602   4.169  0.1427 -0.1869  0.2629
30428W        W45897  13.097   8.239   1.480 -0.2818  0.2144 -0.1765
30429W        W45898   1.447   6.803   5.835  0.2027  0.1283  0.2922
30430W        W45899   6.260  16.798  15.847  0.2153  0.1038 -0.1092
30431W        W45900  14.178   9.035   1.699  0.0303  0.0140 -0.1996
30432W        W45901   6.760  13.956  15.420  0.2656  0.1739 -0.0176
30433W        W45902   1.837   9.097   2.535 -0.1785 -0.0967  0.2624
30434W        W45903  15.414  10.765   3.061 -0.0168 -0.0157  0.0070
30435W        W45904   4.670   0.954   3.619  0.0795  0.0442  0.0738
30436W        W45905   7.319   4.757   3.790  0.0670 -0.0508 -0.3284
30437W        W45906   3.640   5.200  10.903  0.1554  0.3375  0.3166
30438W        W45907   2.201   1.249  14.211 -0.0772  0.1853  0.0450
30439W        W45908   2.195  10.539   5.064  0.1494  0.1366  0.0201
30440W        W45909  16.132   7.948  12.930  0.0319 -0.0903 -0.1899
30441W        W45910  10.193   8.254   2.071 -0.2038 -0.1362  0.2104
30442W        W45911   8.150  13.325   4.778  0.0835 -0.2005 -0.2599
30443W        W45912   0.334   7.843   9.692  0.1192 -0.0116  0.3413
30444W        W45913  16.214  11.983  14.368 -0.0507  0.0765  0.0265
30445W        W45914   3.938  12.527   2.307 -0.2698  0.4087  0.1109
30446W        W45915   5.784   9.311   5.705 -0.0936  0.4523  0.2295
30447W        W45916  18.319  14.670  10.868  0.0617 -0.3137  0.0408
30448W        W45917  14.732  12.073  11.055  0.0011 -0.2887  0.0374
30449W        W45918   3.429   8.696  15.752 -0.0862  0.2344  0.0812
30450W        W45919  13.740   3.854  14.805 -0.1049  0.0342 -0.0082
30451W        W45920  13.925  12.275   3.254  0.0118  0.0109 -0.5254
30452W        W45921  10.485   4.804   0.800  0.0571 -0.1784 -0.2847
30453W        W45922  17.780   8.680   2.546  0.0381 -0.2031 -0.0459
30454W        W45923   1.591  12.778   5.406  0.3833 -0.0386  0.3067
30455W        W45924   1.741  16.794  15.577 -0.0547  0.0607  0.1626
30456W        W45925   8.872   0.291   1.261  0.0864 -0.1479 -0.0239
30457W        W45926   5.938  11.899  14.246 -0.0490  0.1711 -0.0262
30458W        W45927  14.633  12.547  14.381  0.3250 -0.0112  0.1246
30459W        W45928   2.928  16.687   0.764  0.0548  0.1289  0.2988
30460W        W45929   3.236   0.654   4.675 -0.1189 -0.0588 -0.1456
30461W        W45930  12.277   0.228   0.253  0.0337 -0.1684  0.1966
30462W        W45931  13.310   1.279  13.262  0.1309 -0.0430 -0.3550
30463W        W45932  12.460  17.198   0.725 -0.1601 -0.1451  0.0520
30464W        W45933  15.156  10.511   5.256  0.1999 -0.0036 -0.1779
30465W        W45934  12.757   1.540   3.691  0.2783 -0.0828 -0.2003
30466W        W45935   4.775   6.687  12.041  0.1685 -0.0773  0.3112
30467W        W45936   0.055  16.373   1.343 -0.0397 -0.0201 -0.0805
30468W        W45937   5.737  15.729  14.315 -0.0436 -0.0616 -0.2674
30469W        W45938  16.320  17.241   1.858 -0.0094  0.0189 -0.1187
30470W        W45939   6.897   2.057   0.152 -0.0273  0.0403  0.0207
30471W        W45940   5.769  14.873   0.248 -0.1859  0.0046 -0.0601
30472W        W45941  16.383  17.100   0.824 -0.0933  0.0998  0.3034
30473W        W45942   1.042   0.520   0.593  0.0625  0.0446 -0.2741
30474W        W45943   2.703   3.604  15.662  0.2269 -0.0475  0.3207
30475W        W45944   6.174   3.301  12.781  0.2113  0.1313  0.3136
30476W        W45945   0.010   0.748   1.667 -0.1076 -0.2415  0.1138
30477W        W45946   3.081  10.122  12.026  0.1533 -0.1267 -0.0474
30478W        W45947   1.800   9.149  12.014  0.2540 -0.0379 -0.4937
30479W        W45948   7.615   5.059  11.229 -0.3844 -0.0082 -0.0693
30480W        W45949   0.380   1.933  14.322 -0.2119 -0.0873 -0.1781
30481W        W45950   3.170  17.669   2.498  0.3636 -0.0408  0.3945
30482W        W45951   8.802   1.089   0.347 -0.3280  0.0593 -0.1661
30483W        W45952  17.883   7.044  14.243  0.1030  0.0900 -0.0087
30484W        W45953   2.145   9.468   5.324  0.1633 -0.0743 -0.2832
30485W        W45954  18.184   9.303  15.350  0.2174  0.1604 -0.2006
30486W        W45955   7.149  12.810  11.895  0.0726  0.1550  0.1001
30487W        W45956   5.582  15.377   4.631 -0.3473  0.4343 -0.2412
30488W        W45957  17.258  12.490  12.988 -0.1015 -0.5138 -0.0788
30489W        W45958  16.010   9.992   3.390 -0.2731  0.0932 -0.1698
30490W        W45959   5.445   0.331   3.779 -0.1828 -0.0844 -0.1802
30491W        W45960   7.716   0.393  13.374  0.1565 -0.0395 -0.3724
30492W        W45961   7.989   6.319  11.544  0.2834 -0.1032  0.2471
30493W        W45962   7.852   2.922   3.844 -0.4803 -0.1323 -0.1283
30494W        W45963   3.886  13.264   3.184  0.1444  0.0837  0.2729
30495W        W45964   0.381   3.416   4.216 -0.0282 -0.0612 -0.3211
30496W        W45965   1.723  17.647   2.552 -0.0614 -0.4962  0.0282
30497W        W45966   7.883   0.603  12.164  0.0409 -0.1685 -0.0737
30498W        W45967   4.622   5.296  11.337  0.5088  0.0000 -0.2091
30499W        W45968  13.656  11.424  13.653  0.5254 -0.0640  0.4053
30500W        W45969  18.349  13.107   0.786  0.2107  0.2285  0.2069
30501W        W45970   7.223   4.866   2.410 -0.1064 -0.2584 -0.1413
30502W        W45971   6.723   0.744   0.575 -0.3120  0.1120  0.2061
30503W        W45972  12.346   4.427  14.148  0.0411 -0.2670 -0.0565
30504W        W45973  17.616   9.173   3.347 -0.2010  0.2365  0.0429
30505W        W45974  14.005   1.480  12.041 -0.2062  0.1490 -0.0924
30506W        W45975   7.448  12.929  13.447 -0.0772  0.2618 -0.0005
30507W        W45976   8.020  12.524  15.342  0.2556 -0.2579 -0.0552
30508W        W45977   7.300   8.548   0.975  0.4687 -0.0380 -0.1230
30509W        W45978   9.138  17.178  15.144  0.3880 -0.0287  0.1082
30510W        W45979   4.279   1.663   5.609 -0.0533  0.0701 -0.0644
30511W        W45980  16.477  10.946   2.089  0.2384  0.1291 -0.0004
30512W        W45981  10.701  11.061  14.216  0.1930  0.1697  0.2346
30513W        W45982  17.689  15.578  11.224  0.0460 -0.0236  0.1233
30514W        W45983  17.539   1.085  10.848 -0.1308 -0.2425  0.0966
30515W        W45984  17.298  15.285   0.088  0.1659  0.3538  0.1373
30516W        W45985  11.556  13.324   4.230  0.2117  0.0179  0.2641
30517W        W45986   3.744  16.111  13.397  0.2667 -0.1028  0.0713
30518W        W45987   0.228  11.154  11.266 -0.2511 -0.2172  0.2701
30519W        W45988   9.475  18.356  15.328 -0.1319 -0.1599 -0.3004
30520W        W45989   6.343   3.545   4.192  0.3240  0.1751  0.0350
30521W        W45990   3.594  11.466  14.669  0.3028  0.1137 -0.4333
30522W        W45991   5.909   4.517  14.823 -0.0230  0.0417 -0.2755
30523W        W45992   8.562   7.469  10.480  0.1432 -0.2444 -0.0697
30524W        W45993   6.552  10.050   2.309  0.0251 -0.1567  0.0013
30525W        W45994  10.050   3.064   1.730  0.3553  0.2466 -0.1734
30526W        W45995   5.075  10.027   1.821  0.1980 -0.2560 -0.0100
30527W        W45996   6.450   2.732   4.454 -0.0319  0.0123 -0.1838
30528W        W45997   8.655   4.349   3.832  0.1948 -0.0041 -0.2000
30529W        W45998   0.970  12.808  13.368 -0.2617  0.1994 -0.1857
30530W        W45999   4.660  12.489  13.415 -0.3088 -0.1360  0.3658
30531W        W46000   4.370   5.971  12.547  0.0132 -0.2112 -0.1304
30532W        W46001  12.250  18.227  14.892  0.0643 -0.0036  0.1133
30533W        W46002  10.718   3.508   3.926 -0.2872 -0.1471  0.0989
30534W        W46003   5.304  13.398  15.552 -0.4130 -0.1072  0.0265
30535W        W46004   4.597   7.712   1.082 -0.0262 -0.0609 -0.2771
30536W        W46005  18.115  10.355  12.011 -0.1877 -0.2290 -0.0177
30537W        W46006   2.875   8.962   1.283 -0.1761  0.1676 -0.0248
30538W        W46007   7.560   6.315   5.244  0.3444 -0.2978 -0.1055
30539W        W46008  12.723   6.850  11.844 -0.2963 -0.0771 -0.3323
30540W        W46009  13.919  10.658   3.428  0.0282 -0.1630 -0.1348
30541W        W46010  13.782   6.821  14.662  0.2495 -0.0284  0.2791
30542W        W46011  15.467  14.352   5.109  0.1371  0.2493  0.1980
30543W        W46012   3.667  16.292  14.549  0.1350  0.1428 -0.0844
30544W        W46013  11.898  15.482   4.680  0.0307  0.2915 -0.1320
30545W        W46014  12.623   4.480   0.770 -0.0099 -0.0740 -0.0536
30546W        W46015   9.996   2.821  12.967  0.2726 -0.0443  0.1874
30547W        W46016   4.350   1.578   2.952  0.1226 -0.1330  0.1742
30548W        W46017   4.841   2.480  14.983  0.1135 -0.0342 -0.0456
30549W        W46018  15.823   7.915  14.232  0.2472 -0.0363 -0.0797
30550W        W46019  11.826   5.364  13.438 -0.1587  0.0683  0.2293
30551W        W46020   7.987   7.087  10.979 -0.0882 -0.3270  0.4168
30552W        W46021   8.022   5.272  11.560 -0.0770  0.3013  0.0423
30553W        W46022  15.375   2.015  14.042 -0.2213 -0.0088 -0.2155
30554W        W46023   4.922  10.340   2.287  0.2295  0.1777  0.1872
30555W        W46024  17.915  10.164  14.893  0.1796  0.0010 -0.0662
30556W        W46025  12.328   3.044  14.337 -0.2223 -0.1172  0.3344
30557W        W46026  15.119   0.838  14.906 -0.1118 -0.0930  0.1759
30558W        W46027   9.465   7.184  12.044  0.2465  0.0320  0.1567
30559W        W46028  18.180   9.063   5.745  0.0916  0.0553  0.3235
30560W        W46029  12.784   9.611  14.831 -0.2071 -0.1430 -0.0586
30561W        W46030   5.552  14.070  15.341  0.1980 -0.1460  0.0595
30562W        W46031   9.920   1.390   4.346  0.2596 -0.0163 -0.0700
30563W        W46032   7.233   1.790   0.444 -0.2921 -0.1016 -0.3400
30564W        W46033   9.493   0.896   0.993  0.0051 -0.1189 -0.0345
30565W        W46034   4.294  16.986  12.823  0.3022 -0.0462 -0.1276
30566W        W46035  14.335   3.918   9.984  0.0900  0.0226  0.1679
30567W        W46036   1.677  11.313  10.758 -0.2881 -0.3419 -0.2196
30568W        W46037   8.810   2.893  10.768  0.0657 -0.3949  0.0939
30569W        W46038  18.065   2.479  13.919 -0.0013  0.0615 -0.3572
30570W        W46039   9.781  16.551  15.414 -0.0532 -0.1190  0.0234
30571W        W46040   5.506   2.826   2.295  0.0538  0.0441 -0.1674
30572W        W46041  13.390  12.633   3.850  0.2808 -0.1585 -0.0412
30573W        W46042   7.925  13.589   1.522  0.0137 -0.0042 -0.0588
30574W        W46043  10.473   0.822  11.142 -0.0747 -0.1401  0.1445
30575W        W46044  18.234  11.835  11.713 -0.0266  0.0883 -0.2049
30576W        W46045  16.806   4.916   1.883  0.0566  0.3273  0.3225
30577W        W46046  13.148  11.838  11.459 -0.1651  0.0725 -0.3559
30578W        W46047   0.873  17.994  12.091  0.1845 -0.0332  0.0609
30579W        W46048   5.081   8.227  10.602  0.3388  0.1487  0.0985
30580W        W46049  10.423   5.490   2.881 -0.4372 -0.1492 -0.0311
30581W        W46050  13.002   6.918  12.300  0.4330 -0.0727  0.0983
30582W        W46051   6.799   8.321  14.373 -0.0158 -0.0576  0.1492
30583W        W46052   8.368  11.210   0.461  0.3035  0.0971  0.1404
30584W        W46053   2.364   6.411  14.354 -0.2338  0.0147 -0.4084
30585W        W46054   3.658  14.153  13.736 -0.1224 -0.0055 -0.0894
30586W        W46055   8.202   9.541   3.712  0.1549 -0.0260  0.0059
30587W        W46056   1.906   2.511  14.513 -0.2493  0.2180 -0.0216
30588W        W46057   7.049   4.852   1.934 -0.0500  0.1580  0.0582
30589W        W46058   3.323  16.167   2.190 -0.2118  0.0340 -0.0949
30590W        W46059  13.447  14.811  11.525  0.3819 -0.1519 -0.1113
30591W        W46060   3.598   5.814  15.565 -0.0291  0.0415  0.2790
30592W        W46061   1.023   5.932   6.180 -0.0212 -0.0637 -0.1532
30593W        W46062   8.413   1.458   3.696  0.0957 -0.1384  0.3153
30594W        W46063   5.650   3.357  12.759 -0.0483 -0.0009 -0.1790
30595W        W46064  11.972  15.939  15.711  0.3410  0.0552 -0.0285
30596W        W46065   9.833   7.435   0.026 -0.2729 -0.2011  0.1944
30597W        W46066   9.180  13.984  12.654 -0.1089 -0.0261 -0.1497
30598W        W46067  15.812  10.286  14.964 -0.3290 -0.0543 -0.1450
30599W        W46068   3.274   2.240   0.617  0.2608  0.4101  0.0236
30600W        W46069   1.787   9.962   5.472  0.1597 -0.1780 -0.4849
30601W        W46070  13.814  15.312   2.715  0.1799 -0.0522  0.2600
30602W        W46071  16.210  13.890   3.954  0.0486  0.3195  0.2097
30603W        W46072  10.551  12.789  15.615  0.0094  0.0432  0.0984
30604W        W46073   7.601   4.627   3.393  0.2111  0.0399 -0.0657
30605W        W46074  14.123   1.254   5.032 -0.3515 -0.0533  0.2529
30606W        W46075   8.640  12.120  14.183 -0.0565  0.2152  0.1194
30607W        W46076  17.598  11.169  11.446 -0.1526  0.4342 -0.0154
30608W        W46077  10.256  17.802   5.443  0.1458 -0.1868  0.2635
30609W        W46078   6.865  15.584   3.367 -0.3387 -0.1412 -0.1823
30610W        W46079   4.043  13.119   6.010  0.2333  0.1519 -0.0769
30611W        W46080   1.923   8.087  12.617 -0.1481 -0.0747 -0.1928
30612W        W46081  15.051   8.712  13.122 -0.1633  0.1020  0.0126
30613W        W46082   0.135   0.778  15.506 -0.2699 -0.1930 -0.0723
30614W        W46083   7.401   2.474  13.500  0.0231 -0.1558  0.4473
30615W        W46084  11.629  18.102   0.837 -0.0572  0.2637 -0.0130
30616W        W46085  10.134  11.025   4.637 -0.0547 -0.2270 -0.0866
30617W        W46086  15.336   9.100   2.750  0.1716  0.1766 -0.0675
30618W        W46087  17.595   6.759   3.886 -0.0436  0.0430 -0.2031
30619W        W46088  15.431  11.665   3.405  0.0510  0.1066 -0.1049
30620W        W46089   8.620  14.390   2.841  0.0082  0.0003 -0.2712
30621W        W46090   0.157  16.587  14.044 -0.0519  0.0047  0.0144
30622W        W46091  16.906  17.155   0.875 -0.1756  0.0632 -0.2402
30623W        W46092   5.848  18.399   3.087 -0.0876  0.0014 -0.3456
30624W        W46093  11.047  10.977   4.610  0.0414 -0.0643 -0.1717
30625W        W46094   3.111  12.743   0.318 -0.4122 -0.1697 -0.0703
30626W        W46095  13.611  14.966   4.570 -0.2140  0.0088 -0.1009
30627W        W46096   4.895   3.727  11.215  0.0846  0.0423  0.1126
30628W        W46097   0.491   0.536  11.207  0.1335  0.3735 -0.4521
30629W        W46098   5.035  14.153  13.038 -0.3892 -0.0809 -0.2032
30630W        W46099  12.691  12.963  14.378  0.0991  0.1289 -0.2961
30631W        W46100   9.051   7.776   4.017 -0.1270 -0.1710 -0.2181
30632W        W46101  17.873   9.193  14.776  0.1034 -0.2357  0.1510
30633W        W46102   0.538   9.316  11.958  0.0385  0.0167 -0.0814
30634W        W46103  17.901   6.254  15.732 -0.0718  0.0864 -0.2594
30635W        W46104  14.909   7.475  10.749 -0.2592  0.0474  0.1321
30636W        W46105  14.100   0.931  13.305 -0.0725  0.4138  0.0387
30637W        W46106   9.825   9.570   0.563 -0.0472  0.3766  0.2736
30638W        W46107  16.706   4.980   2.394 -0.2810 -0.0323 -0.0722
30639W        W46108   9.363  13.090   2.957 -0.0595 -0.1567 -0.2217
30640W        W46109   6.512  14.197  12.957 -0.0107 -0.2108  0.1616
30641W        W46110   8.578   5.262   0.283 -0.2502 -0.0705 -0.0100
30642W        W46111   3.065   0.772   5.384  0.2521 -0.2035  0.2089
30643W        W46112   7.570  16.039  14.791  0.2209 -0.0212  0.0982
30644W        W46113  10.475  13.833  11.488 -0.2008 -0.5164  0.0767
30645W        W46114   0.559   3.585  12.142 -0.1800 -0.0597  0.1345
30646W        W46115   4.766   9.603   3.146 -0.0038  0.0117  0.0122
30647W        W46116  10.805  10.928   4.147  0.0594 -0.3821  0.1269
30648W        W46117   4.135  13.976   2.621 -0.4011 -0.1706 -0.1059
30649W        W46118   1.127   6.994  14.253 -0.0935  0.1498 -0.0071
30650W        W46119   5.976  14.010  11.389  0.2178 -0.1376 -0.1477
30651W        W46120  14.662   8.263  15.198  0.1807 -0.0125 -0.1876
30652W        W46121   8.529   9.446  14.747 -0.2465  0.0962 -0.2168
30653W        W46122  13.734   1.252  15.174 -0.2672  0.0451 -0.1297
30654W        W46123   1.799  16.494   2.513 -0.1741  0.0288 -0.2121
30655W        W46124  11.714  17.271   3.766  0.2008  0.0902 -0.2141
30656W        W46125  11.283   3.973  11.800  0.2191 -0.0481  0.0268
30657W        W46126   4.740  17.817   2.119  0.2324  0.0097 -0.1593
30658W        W46127  12.267  13.576  11.329  0.2338 -0.0938 -0.0336
30659W        W46128   2.985   6.633  12.717  0.4157 -0.3621  0.1480
30660W        W46129  13.970  12.076  14.149  0.0254  0.1087 -0.0428
30661W        W46130  12.752   5.168   2.194 -0.2744 -0.0490 -0.3275
30662W        W46131  14.374  14.738   2.434  0.0134  0.2941  0.0078
30663W        W46132   1.926   0.790   1.499  0.2964  0.0203  0.0447
30664W        W46133  17.711   5.720   0.683  0.2514 -0.0965 -0.2215
30665W        W46134   8.285   9.471  13.651  0.1443 -0.0970  0.0648
30666W        W46135   1.535  13.576  13.499 -0.0945  0.1584 -0.0564
30667W        W46136   5.944   2.897   2.067 -0.5167  0.0485 -0.1783
30668W        W46137   5.311   7.501  14.181  0.1168  0.3089  0.2213
30669W        W46138   7.437   8.596   1.977 -0.1018 -0.1508  0.0539
30670W        W46139   8.749  14.359  12.320  0.2014 -0.2218 -0.0527
30671W        W46140   3.614  13.024   3.699 -0.0650  0.2387 -0.4650
30672W        W46141   9.831  11.276   4.013  0.1181 -0.2232  0.0746
30673W        W46142   0.982  14.363  14.553  0.0288  0.1196 -0.0110
30674W        W46143  15.119   4.714   2.482 -0.1339  0.0638 -0.0414
30675W        W46144   8.983  12.273  12.710 -0.1583 -0.3853  0.1889
30676W        W46145  10.939   0.969   1.202  0.0193 -0.1888 -0.1833
30677W        W46146  11.782  15.766   0.327  0.0199  0.1961 -0.1585
30678W        W46147   1.879  13.939  14.924  0.1104 -0.0498 -0.0127
30679W        W46148   9.333   7.024   1.279  0.2204  0.1199 -0.1942
30680W        W46149   8.407   5.995   0.861 -0.1395  0.3152  0.2633
30681W        W46150   7.964   4.353   4.384  0.2410 -0.0183 -0.0526
30682W        W46151   8.602   8.584   4.897  0.0845 -0.1398 -0.2286
30683W        W46152  11.337   5.580  14.636  0.3423  0.0460 -0.1325
30684W        W46153  17.973   6.763  11.534  0.0401 -0.1813  0.1477
30685W        W46154  18.434   6.876  11.434  0.3293  0.0926 -0.0514
30686W        W46155  17.517   4.140  13.275  0.1686 -0.2388 -0.0827
30687W        W46156   2.631  16.574   2.913 -0.1562  0.0715  0.0228
30688W        W46157  18.082   5.666  13.614 -0.5974  0.1729  0.0648
30689W        W46158   5.573  12.352  14.377 -0.0831 -0.2903 -0.0431
30690W        W46159   6.392  10.694  11.991 -0.3870 -0.2224 -0.1250
30691W        W46160   9.009  15.098   1.214 -0.1016  0.0048  0.4336
30692W        W46161  13.366   0.775  13.564 -0.1335  0.0564 -0.0163
30693W        W46162   1.872   7.099   3.202 -0.2204  0.3820 -0.2511
30694W        W46163   6.286  12.598  13.996 -0.0430 -0.0511  0.1375
30695W        W46164   4.823  11.448   2.710 -0.0395  0.1110  0.1898
30696W        W46165   0.160  15.413  11.377 -0.1094 -0.0215  0.0684
30697W        W46166   7.957  14.274   5.129  0.1177 -0.1800  0.0422
30698W        W46167   1.097  13.310  12.674  0.1645 -0.1324  0.1577
30699W        W46168  16.606   2.467   3.171 -0.2163  0.0881  0.3950
30700W        W46169  11.339   1.891  15.080 -0.3645 -0.0901  0.0493
30701W        W46170   6.338   0.115  11.243  0.0079  0.2300  0.1338
30702W        W46171   9.514  10.185  12.566  0.0801 -0.4471  0.0035
30703W        W46172  17.695  16.780   3.341  0.0548 -0.2943  0.2630
30704W        W46173  10.016   5.694   0.287 -0.0479 -0.0488 -0.0778
30705W        W46174  17.631   2.714  13.978 -0.0141  0.0374  0.0506
30706W        W46175   4.794  16.044  11.715  0.1673 -0.0484 -0.0479
30707W        W46176   6.063   5.396   0.057 -0.2935 -0.0729  0.1592
30708W        W46177  16.588   6.697   4.443  0.0578  0.1516 -0.1929
30709W        W46178   1.041   1.390   4.509  0.2498  0.1605  0.3952
30710W        W46179   6.703   9.983  14.425 -0.1817  0.0411  0.1216
30711W        W46180  11.315   9.817   5.186  0.0784 -0.3842  0.0071
30712W        W46181  16.687   9.098  12.852  0.1125  0.0836  0.3929
30713W        W46182  11.293   1.639  11.125  0.0021 -0.0026 -0.2570
30714W        W46183  12.095  18.192   2.121 -0.0548 -0.0027  0.1431
30715W        W46184   4.946  16.896   2.436 -0.0076 -0.2784  0.2487
30716W        W46185   0.760   5.216  14.884  0.0168 -0.1185  0.3246
30717W        W46186   2.108  11.272  11.030 -0.2170  0.1991 -0.1968
30718W        W46187  15.106   9.823   5.195  0.1084  0.1335  0.2081
30719W        W46188  17.957  15.746  15.496  0.4477 -0.0563  0.2583
30720W        W46189  16.099  12.056  12.329 -0.1678  0.0154 -0.1817
30721W        W46190  17.246  12.934  11.792 -0.3586 -0.0258  0.1148
30722W        W46191   0.511   9.418  11.412  0.1401  0.1721  0.0444
30723W        W46192  10.012  17.152  15.469 -0.1066 -0.1175 -0.0859
30724W        W46193  10.393   6.707  11.027  0.0099 -0.0432 -0.0912
30725W        W46194   9.635   1.413  14.332 -0.0502 -0.0188 -0.0086
30726W        W46195   5.653  14.328   3.570 -0.0598 -0.0755 -0.3266
30727W        W46196  13.314   9.357   0.445  0.3286 -0.1084  0.0178
30728W        W46197   9.942   8.122   3.048 -0.0546 -0.0412  0.1236
30729W        W46198  17.363  18.150   6.143 -0.1534  0.1220  0.2901
30730W        W46199  17.049   4.383  13.318  0.0300 -0.2422 -0.3599
30731W        W46200   2.416   6.693  11.274 -0.3322  0.1015 -0.0764
30732W        W46201   2.524   0.546   3.292 -0.0892  0.1906 -0.1940
30733W        W46202   5.482   6.676   3.174  0.0454  0.0240  0.4062
30734W        W46203   0.967   1.153  11.737 -0.1220 -0.5865  0.0732
30735W        W46204   5.108   4.713  11.456 -0.1614  0.0913 -0.1472
30736W        W46205   3.858   0.052  12.012 -0.1496  0.2813  0.1366
30737W        W46206  10.061   3.858  14.902 -0.4359  0.3895  0.0885
30738W        W46207  12.824  11.777  11.066  0.1341  0.2196  0.1056
30739W        W46208  18.355  12.485  13.992 -0.2414  0.1512  0.3102
30740W        W46209   1.599  14.248   1.951 -0.4672  0.1220  0.3260
30741W        W46210   6.169   5.568  14.076 -0.0132  0.1266  0.0929
30742W        W46211  17.831  10.013  14.387  0.2273  0.1871  0.1070
30743W        W46212   4.495   4.262   3.734 -0.0117  0.3427  0.1620
30744W        W46213   8.974   5.623  15.408  0.1550 -0.0521  0.0480
30745W        W46214  12.422  15.959  14.790 -0.2054  0.3820  0.1717
30746W        W46215  15.095  15.158  11.330 -0.0150  0.0688 -0.1756
30747W        W46216  16.138  11.405   0.904  0.3306 -0.2866 -0.1012
30748W        W46217   6.306  11.653   2.264  0.0360  0.2036  0.2208
30749W        W46218  13.933  16.370   5.402  0.1472 -0.1027  0.3306
30750W        W46219   9.105  12.397   4.592 -0.2612 -0.1005  0.2005
30751W        W46220  18.179  13.627  15.511  0.0754 -0.2571  0.1954
30752W        W46221   4.696  17.309   3.760 -0.1918  0.0783  0.1792
30753W        W46222   1.584   1.946   2.129  0.1140  0.3002  0.1005
30754W        W46223   3.683   7.793  12.872 -0.0355 -0.1293 -0.0443
30755W        W46224  17.930  16.892  15.810  0.1186 -0.1147  0.1272
30756W        W46225   6.343  14.571  14.790  0.1711 -0.1025 -0.2248
30757W        W46226  15.358   5.287   1.113 -0.2256  0.2867  0.1247
30758W        W46227   7.029  10.659  11.443 -0.1234 -0.1732 -0.0816
30759W        W46228  10.733   3.507   5.767  0.2137  0.2315 -0.1654
30760W        W46229   0.113   4.085   2.192 -0.1366 -0.2108  0.0678
30761W        W46230   3.200   0.349  14.623  0.1271  0.0021  0.1122
30762W        W46231   9.172  11.307  14.643  0.0860 -0.0023 -0.0815
30763W        W46232  13.876   4.638  11.152 -0.0366 -0.2107  0.2744
30764W        W46233  18.033  14.567   4.793  0.1553 -0.0088 -0.0243
30765W        W46234   1.543   3.492  15.735  0.1677 -0.0821  0.0677
30766W        W46235  11.612  17.796  11.569 -0.0026  0.0750 -0.0633
30767W        W46236  12.673   9.852  14.403  0.2369  0.0007 -0.0483
30768W        W46237   8.364  13.877   3.650  0.3775  0.2306 -0.1156
30769W        W46238  15.639  13.747   5.088  0.0693 -0.4308 -0.1031
30770W        W46239   2.610  10.394  13.911 -0.1477 -0.0905 -0.2784
30771W        W46240  17.699  14.627  14.849  0.1213 -0.0342 -0.1406
30772W        W46241  17.007   8.744   4.513  0.2206 -0.2343 -0.1336
30773W        W46242   3.489  11.298   2.407 -0.2766  0.3177  0.4227
30774W        W46243  14.982   4.582   1.927 -0.2893  0.0130 -0.0498
30775W        W46244  17.533  18.305   1.537  0.2517 -0.1357  0.1049
30776W        W46245   7.449   7.962  12.315 -0.1021  0.1044  0.1558
30777W        W46246  15.039   8.534   3.997 -0.0805  0.2023  0.2850
30778W        W46247  13.392  18.153   2.555  0.0538  0.0863 -0.0590
30779W        W46248  17.465   4.644   3.418  0.1874  0.0877 -0.1669
30780W        W46249  15.688  15.101  10.362  0.0299  0.3010  0.0211
30781W        W46250   2.230  16.137   0.742 -0.4658  0.1085 -0.0577
30782W        W46251  11.232  10.240   4.043  0.0255  0.1368  0.1335
30783W        W46252   2.358  17.933  12.540  0.1025  0.1802  0.2201
30784W        W46253  13.966   5.831  10.941  0.1251 -0.0398  0.1863
30785W        W46254   4.795   7.752  11.111 -0.1773  0.1419  0.0311
30786W        W46255  16.764  11.871   2.701 -0.2268 -0.0701 -0.1216
30787W        W46256  12.262  18.070   4.042  0.1520 -0.2275 -0.3439
30788W        W46257  10.023   8.936   3.842  0.0011 -0.0856 -0.0074
30789W        W46258   7.524  18.027   2.427 -0.1324  0.2430 -0.0048
30790W        W46259  12.077  13.094   0.918 -0.1455 -0.0960  0.1029
30791W        W46260  12.327  10.629   3.557  0.1003 -0.0168  0.2265
30792W        W46261   1.185  15.909  10.664 -0.1582  0.2662  0.0508
30793W        W46262   4.504  16.035   5.691 -0.2267 -0.2857  0.0345
30794W        W46263  15.535   3.628  14.309  0.0427  0.4070  0.2438
30795W        W46264   9.147   6.916   5.065  0.0325 -0.0421 -0.0053
30796W        W46265  15.391   4.661  14.916 -0.0513  0.1329  0.5068
30797W        W46266  18.321  12.478  14.839  0.4664  0.0571 -0.3547
30798W        W46267  12.367  18.037   0.157  0.2123 -0.1155 -0.0084
30799W        W46268  16.014   1.215   4.394 -0.0454  0.5721 -0.0200
30800W        W46269  15.686   5.833  15.446 -0.2760  0.1082 -0.2036
30801W        W46270  12.195   9.081   4.957  0.0741  0.0592  0.0094
30802W        W46271   3.457   6.705   1.585  0.0682  0.1126  0.1133
30803W        W46272   5.695   3.503   1.458  0.2353 -0.0278 -0.1039
30804W        W46273   7.768   1.828  15.825  0.2576 -0.2546 -0.0679
30805W        W46274  10.656  15.845   3.251 -0.0162  0.0767  0.1692
30806W        W46275  15.076  14.601  14.410 -0.0091 -0.1112 -0.1117
30807W        W46276  16.273   5.160   0.328  0.1722 -0.0201  0.2186
30808W        W46277   6.196   1.893   1.577  0.1876 -0.2469 -0.1423
30809W        W46278  14.812   8.451   2.775  0.1517 -0.1914 -0.5523
30810W        W46279   9.632  11.468  12.166 -0.1334 -0.1023 -0.1506
30811W        W46280  13.424  12.677  13.058 -0.2764  0.4498 -0.0019
30812W        W46281  12.637  15.796   4.348  0.0153 -0.1043  0.1926
30813W        W46282  10.595   9.312   5.081  0.2017 -0.1473  0.2081
30814W        W46283  14.692  17.964   0.725  0.1422 -0.0267  0.0465
30815W        W46284  13.805   4.484   2.237  0.2898 -0.0006 -0.0491
30816W        W46285   6.017   5.426   2.796  0.1348  0.1916  0.2101
30817W        W46286   3.437  15.976  13.762  0.1155 -0.0887  0.0035
30818W        W46287   5.818  15.932   0.175  0.2163 -0.0469 -0.3640
30819W        W46288   6.393  15.456   3.603  0.1361 -0.0077 -0.0344
30820W        W46289  18.009  15.115   1.028 -0.1986 -0.4106  0.2640
30821W        W46290   7.258   0.597   5.596  0.1358  0.2256 -0.3797
30822W        W46291  13.811  14.230   2.876  0.0563  0.0728  0.0380
30823W        W46292   7.371  16.226  14.326  0.0260 -0.3630  0.1492
30824W        W46293  10.933  14.811   2.659  0.1397  0.1319 -0.1210
30825W        W46294   0.014   4.522   3.383 -0.1398 -0.1654 -0.2143
30826W        W46295  14.030   6.224  13.214  0.3076  0.1090  0.2724
30827W        W46296   4.712   7.527  15.305  0.1731  0.2437 -0.0545
30828W        W46297  12.063   5.767  14.971  0.1196 -0.0626  0.1224
30829W        W46298  15.790   1.671   0.776  0.0483 -0.1417 -0.1659
30830W        W46299   8.318  13.499   2.756 -0.0576  0.0633 -0.3749
30831W        W46300  14.908   7.835   1.272  0.0611  0.1580 -0.3475
30832W        W46301  10.075  10.763  10.967  0.2323  0.1294  0.1059
30833W        W46302   5.583  14.987   5.011  0.2328  0.1688  0.3277
30834W        W46303  16.011  17.016   1.344  0.2295  0.2167  0.3522
30835W        W46304  12.873  16.906   2.280  0.0633  0.2002 -0.1993
30836W        W46305  11.178   0.705   3.953  0.0562 -0.2025  0.1679
30837W        W46306   8.130  13.536   3.246 -0.1263  0.0412 -0.3102
30838W        W46307  14.938   2.530   2.279 -0.1766  0.0114 -0.1149
30839W        W46308  17.099   3.600  12.455  0.0411 -0.2914  0.1223
30840W        W46309  16.762  11.474  11.034  0.3203  0.0612 -0.1177
30841W        W46310   4.375   3.914   0.416  0.0855 -0.0536  0.2403
30842W        W46311   5.410   0.223  13.268  0.0426 -0.2472 -0.4289
30843W        W46312  14.412   3.410   9.921 -0.0752 -0.0458  0.3069
30844W        W46313  11.526  14.952  10.881  0.0489  0.1725  0.0735
30845W        W46314  18.241   4.453   1.114 -0.0235  0.0951  0.0476
30846W        W46315   0.594  10.230  13.222  0.1977  0.0701 -0.0498
30847W        W46316  16.952  17.973   5.222  0.0802  0.1900 -0.1180
30848W        W46317   9.781   0.162   4.838  0.0181 -0.0991 -0.1626
30849W        W46318  17.235  10.604   1.714 -0.1438 -0.0664  0.1625
30850W        W46319   0.938   4.924   1.783 -0.1208 -0.0552  0.0073
30851W        W46320   2.777  16.195  12.532  0.1401 -0.1334  0.1123
30852W        W46321   8.148   2.119  12.564  0.4451 -0.1703  0.0429
30853W        W46322  11.833   7.783   4.703  0.1045 -0.0746  0.1610
30854W        W46323   9.070  13.568  15.177 -0.2082 -0.1735  0.3682
30855W        W46324  15.192   9.525   2.338  0.0190  0.0051  0.1727
30856W        W46325   3.865  15.814   2.576 -0.1843  0.2425 -0.0678
30857W        W46326   2.041   4.788  12.679 -0.2778  0.3442 -0.6657
30858W        W46327  18.040  15.041  12.627 -0.4317  0.0987 -0.0379
30859W        W46328   4.109  12.395   1.648  0.1480 -0.0673 -0.2890
30860W        W46329   6.266   1.361   3.151  0.2894 -0.2869  0.2492
30861W        W46330   9.483   9.513  15.185  0.1099  0.4126 -0.3246
30862W        W46331   4.262  12.413  13.715 -0.1437 -0.2229 -0.0611
30863W        W46332   9.819   4.474   5.486  0.1528  0.0106 -0.1150
30864W        W46333  17.478   9.568  13.450 -0.0546 -0.0135 -0.2024
30865W        W46334   9.947  12.893   3.616  0.1449 -0.1714  0.1530
30866W        W46335   1.405  14.634  14.526 -0.3543 -0.3863 -0.0385
30867W        W46336  13.171   5.014  14.907 -0.1072  0.1737  0.1659
30868W        W46337  14.467  10.379   9.600  0.0135 -0.0303  0.0225
30869W        W46338   6.130   1.755  12.011 -0.2472  0.0597 -0.2115
30870W        W46339  14.632   0.382  11.243 -0.3052 -0.4162  0.0704
30871W        W46340   7.706   9.453   3.870 -0.0027  0.0372 -0.0343
30872W        W46341   1.811   8.671  15.487 -0.2359  0.1159  0.0894
30873W        W46342   7.577  15.615   1.221  0.2830 -0.1253  0.0114
30874W        W46343   4.258   1.340   5.208  0.3245  0.0937  0.0953
30875W        W46344  12.901   2.729   1.876 -0.1949  0.1182  0.2258
30876W        W46345   3.199   8.071   1.933 -0.1814 -0.2929  0.0904
30877W        W46346   7.235   0.230   1.813 -0.1529  0.1438 -0.1784
30878W        W46347  13.032   0.530   1.635 -0.2790  0.2107 -0.1878
30879W        W46348  10.538   5.998   0.296  0.0906 -0.3107  0.2609
30880W        W46349   6.215  11.820   1.163  0.1859 -0.3944  0.0138
30881W        W46350   2.449   9.858  13.778  0.0097 -0.0427 -0.0289
30882W        W46351  14.856   3.645  11.702  0.0331  0.3800  0.3220
30883W        W46352   7.649   6.117   5.815  0.2316 -0.1853 -0.0294
30884W        W46353  12.671   9.903  10.760  0.0326  0.0747 -0.0682
30885W        W46354  13.497   0.816   0.610 -0.1508 -0.2651  0.0633
30886W        W46355  10.306  11.270   2.168 -0.0375 -0.1081  0.2519
30887W        W46356   7.754  10.783  15.288 -0.0605 -0.1555  0.0627
30888W        W46357   7.845  15.282  11.390  0.2088 -0.3273  0.0769
30889W        W46358  14.153   2.117  14.644  0.0901 -0.2697  0.0652
30890W        W46359  11.786  17.392   6.060  0.1841 -0.1641  0.0959
30891W        W46360  17.621   5.799  14.514  0.1616  0.1415 -0.2265
30892W        W46361   3.024  14.521  14.865 -0.2014  0.0612 -0.3639
30893W        W46362  11.789   7.724   5.202 -0.0174 -0.0415 -0.0953
30894W        W46363   1.798   9.143   5.153  0.4451  0.4784 -0.0938
30895W        W46364   4.537  17.416   2.412 -0.0762  0.2232 -0.1326
30896W        W46365  13.505  18.290  14.158 -0.2087 -0.0356  0.1439
30897W        W46366   1.236  14.568   3.827 -0.0022  0.0791  0.0171
30898W        W46367  15.897  10.308  14.430 -0.1086  0.0619  0.1108
30899W        W46368  14.169  11.771  11.282  0.0190  0.1721 -0.0523
30900W        W46369   5.022  11.229  12.545  0.2214 -0.1812  0.2375
30901W        W46370   0.296   1.202   1.216  0.0481 -0.1580 -0.1476
30902W        W46371   3.893   5.875   1.638 -0.2278  0.1467 -0.1418
30903W        W46372  13.848   0.709  15.097  0.1148  0.2206 -0.5288
30904W        W46373  16.990   2.672  12.516  0.3492  0.0897  0.1180
30905W        W46374  14.312   6.879  14.724 -0.4404  0.3210  0.1154
30906W        W46375   6.206   5.228  11.348 -0.1861  0.1122 -0.2533
30907W        W46376  14.915  17.632  14.790  0.3393 -0.4672  0.3175
30908W        W46377   5.842  16.324  12.689  0.0994 -0.0716  0.2773
30909W        W46378  11.945   4.712  12.739  0.0448  0.0876 -0.1054
30910W        W46379  11.793  12.909   4.864  0.2097  0.0888  0.1228
30911W        W46380   3.686  16.824  13.235  0.1490 -0.0380 -0.2356
30912W        W46381  10.860   9.796  14.890 -0.0520 -0.0657  0.0059
30913W        W46382   9.708   8.526   3.889  0.0765  0.3590  0.1801
30914W        W46383   8.677  17.712   3.479 -0.2904  0.1560  0.2892
30915W        W46384   9.587  18.455   4.364  0.0294 -0.1450  0.3599
30916W        W46385   4.264  15.303  13.594 -0.1063  0.0501 -0.3362
30917W        W46386   7.425   9.373  15.108 -0.2827  0.2638 -0.1081
30918W        W46387   8.190   0.077   1.925 -0.0665  0.0582 -0.0584
30919W        W46388   5.636  11.382   5.540 -0.0783  0.0683  0.4355
30920W        W46389  11.215  16.287  12.725  0.2059  0.2666 -0.1931
30921W        W46390   6.128   2.433  13.057  0.1215 -0.0128  0.1983
30922W        W46391   5.493   0.995  11.092 -0.1512 -0.1272  0.2473
30923W        W46392  13.925  15.522  12.039 -0.0504  0.0539  0.0394
30924W        W46393  16.726   2.098   4.997  0.0844  0.3086  0.0529
30925W        W46394   3.997  17.789   9.957  0.1570 -0.0113  0.3085
30926W        W46395   0.864   2.227   2.612 -0.0342  0.0262  0.1991
30927W        W46396   8.347  17.533  12.141 -0.0259  0.2004 -0.0687
30928W        W46397   3.175  17.191   3.327 -0.3840 -0.2672  0.0041
30929W        W46398  18.133   1.959   4.163 -0.0951 -0.0565  0.1183
30930W        W46399  16.306   0.273  14.524 -0.0718  0.3983  0.0493
30931W        W46400  14.894   3.148  11.619  0.0341  0.0404 -0.1246
30932W        W46401   0.855   3.508  13.055  0.1271 -0.0946  0.1916
30933W        W46402  16.756   3.923  12.709  0.0376  0.2141 -0.0386
30934W        W46403  17.132   3.598   2.625  0.0286 -0.2169 -0.2280
30935W        W46404   9.982  16.720  11.546 -0.4157 -0.0241 -0.2806
30936W        W46405   2.887   7.913   4.823 -0.0245 -0.1564  0.0468
30937W        W46406   5.157   0.777  13.816  0.1688  0.0233  0.0923
30938W        W46407  10.101   6.907   3.476 -0.2770 -0.0095  0.1539
30939W        W46408  10.073   3.333  13.793  0.1072  0.0926 -0.0871
30940W        W46409   3.082   3.930   0.445 -0.0211 -0.1011 -0.3120
30941W        W46410   6.831  14.005   1.074  0.0777 -0.5068 -0.2000
30942W        W46411   8.614  16.390  11.778  0.2600 -0.2208  0.4197
30943W        W46412  12.184  16.382  12.528 -0.2414  0.0084 -0.2385
30944W        W46413  12.059   3.590   3.239 -0.1135 -0.3170  0.0024
30945W        W46414   8.421   1.022  12.630 -0.0034  0.2093  0.1122
30946W        W46415  16.153   9.895   1.122  0.0795  0.1254 -0.2573
30947W        W46416   1.211   2.245   4.570 -0.0224 -0.1926  0.0576
30948W        W46417   3.503   2.620  15.078 -0.1312  0.0075  0.1758
30949W        W46418  17.832  13.168  11.078 -0.2412 -0.0862  0.2381
30950W        W46419   1.431   7.343   2.782 -0.0806 -0.3875 -0.3939
30951W        W46420  14.214   9.133   0.457  0.0130  0.3867  0.2824
30952W        W46421   2.910   3.907  11.192  0.2649 -0.0549  0.5058
30953W        W46422   3.284  15.829  15.352  0.0680 -0.2630 -0.2145
30954W        W46423   5.682  16.562   3.877 -0.2446  0.0321  0.1214
30955W        W46424   5.617   0.681   2.931  0.1376  0.2748  0.1413
30956W        W46425   6.885  14.293  14.387  0.0342  0.2718 -0.2985
30957W        W46426   0.714  17.969  14.641 -0.0572  0.0650 -0.1743
30958W        W46427   4.893   9.147  12.956  0.0888 -0.1447  0.2717
30959W        W46428   4.299   4.987   6.297  0.3189  0.0568  0.1216
30960W        W46429  18.251   5.871  12.282 -0.1922 -0.0838 -0.0357
30961W        W46430  11.339   5.392  13.254 -0.3040 -0.0130  0.1327
30962W        W46431   5.224  10.429  13.768  0.0850  0.0203  0.1623
30963W        W46432   0.326   3.189   5.522  0.0865 -0.0701  0.0673
30964W        W46433  14.538   8.460   1.090  0.2653  0.0959 -0.1237
30965W        W46434   7.930   0.765  12.649  0.0887 -0.0541 -0.0351
30966W        W46435   6.187   8.033   1.566 -0.0995 -0.1335  0.0943
30967W        W46436   4.975  14.167  14.209 -0.1080  0.1432  0.0072
30968W        W46437  16.254   0.911   0.167 -0.0669 -0.0044 -0.2004
30969W        W46438   9.323   4.968  13.353  0.4123 -0.0855 -0.2837
30970W        W46439  16.368   2.713   1.464  0.0905  0.0065  0.2372
30971W        W46440   4.008   8.350  15.041 -0.2661 -0.0772  0.0346
30972W        W46441   5.442   3.025  13.694 -0.3001  0.0973  0.2151
30973W        W46442   8.940   2.068   3.095  0.4393 -0.2697  0.3402
30974W        W46443   0.726   4.231  15.267 -0.1320  0.0754  0.0738
30975W        W46444  10.022  16.129  14.901 -0.0041 -0.2532 -0.2593
30976W        W46445   9.738  10.114  15.236  0.1082  0.2311 -0.1936
30977W        W46446  18.061  10.352  13.237  0.2660  0.0309  0.1846
30978W        W46447  15.730  14.826   2.580 -0.0824 -0.2938 -0.1910
30979W        W46448  16.493   1.785  11.695  0.3262 -0.3835 -0.2967
30980W        W46449  10.089   5.059  14.918 -0.1048  0.0633 -0.0588
30981W        W46450  14.259   0.172  10.776  0.2820  0.2775 -0.0444
30982W        W46451  15.851   2.540   2.766 -0.0336 -0.1101  0.3305
30983W        W46452   6.033   5.666   1.661  0.2975  0.0911 -0.1819
30984W        W46453   2.737  14.157  15.659  0.2529 -0.0009  0.0425
30985W        W46454  14.955  16.475  12.040  0.0966  0.1825  0.0513
30986W        W46455   6.987   8.608  14.807  0.1164  0.3005  0.1442
30987W        W46456   4.525   5.450   5.484 -0.5007  0.2004  0.0330
30988W        W46457   4.750   1.374   2.755  0.2382  0.0162  0.3148
30989W        W46458   2.425  11.225   2.526 -0.0846 -0.0454  0.5186
30990W        W46459  10.200   1.498  14.268 -0.1640 -0.0618 -0.0607
30991W        W46460   1.822   4.298  14.416  0.0585  0.2239  0.1203
30992W        W46461  18.443  11.413   1.269  0.1575 -0.1677  0.0037
30993W        W46462   1.153  13.266  13.165 -0.1168  0.0031  0.1250
30994W        W46463  10.957  15.072  14.559 -0.2445 -0.0867  0.1693
30995W        W46464   5.687  16.109   3.451 -0.0432 -0.0422 -0.0490
30996W        W46465  13.016  16.383  12.984  0.2292  0.0597  0.1436
30997W        W46466   5.017   1.197   5.027  0.0506  0.1580  0.2613
30998W        W46467  16.925   6.151  13.652  0.0623 -0.0120  0.0295
30999W        W46468  16.662   5.867   0.800 -0.4037  0.0636 -0.0302
31000W        W46469   0.006  10.003  11.823 -0.0887 -0.0486 -0.1320
31001W        W46470   4.622   4.882  15.628  0.2430  0.2252  0.4256
31002W        W46471   6.245  16.978  14.927  0.0967  0.1129 -0.0925
31003W        W46472  18.219  12.438   1.877  0.0660  0.0727  0.0340
31004W        W46473  11.325   8.538  12.568  0.1969  0.0016 -0.1075
31005W        W46474  12.918  16.228   4.529 -0.0316  0.2168 -0.0372
31006W        W46475   7.635   6.714  12.376  0.1133 -0.1199 -0.0253
31007W        W46476   7.449   8.069   0.988 -0.1544  0.0247 -0.3900
31008W        W46477  18.122   4.310   1.966 -0.0773 -0.0582 -0.0407
31009W        W46478   3.766   6.212   6.267 -0.2778  0.2291  0.3210
31010W        W46479  11.922  17.094   2.859  0.0523 -0.0373 -0.0097
31011W        W46480   8.064  14.717   0.964 -0.1530  0.0927 -0.1483
31012W        W46481  14.913  14.805  12.702  0.2462  0.0565 -0.0641
31013W        W46482   9.348  14.267  14.290 -0.0568 -0.2052  0.0111
31014W        W46483   5.978  17.114  13.664  0.1713  0.3823 -0.1278
31015W        W46484  15.204   7.408  11.826  0.0724 -0.1828  0.2330
31016W        W46485  14.546   1.082   4.720  0.0203  0.1558 -0.1486
31017W        W46486  17.984   3.504   2.736  0.0114  0.2087 -0.1870
31018W        W46487   3.970   8.257  11.655  0.1560 -0.0141 -0.1087
31019W        W46488  16.854  16.551  11.888 -0.2580 -0.0508 -0.1203
31020W        W46489   7.141   4.416   3.219 -0.0903 -0.0605  0.3183
31021W        W46490   2.551  16.337   4.327  0.0595 -0.0895  0.3971
31022W        W46491   8.672  16.752  14.610  0.0542  0.2574 -0.1109
31023W        W46492   9.635  16.283  11.728  0.0088 -0.1525  0.0505
31024W        W46493   7.488   9.172  12.987  0.1734  0.0409 -0.2579
31025W        W46494   4.364   5.263  10.908  0.0389  0.2077  0.2289
31026W        W46495   2.628   5.704   3.480 -0.1395 -0.0127 -0.2036
31027W        W46496  14.374   8.646  11.815 -0.0835  0.1092  0.0128
31028W        W46497  16.714   3.674  15.104  0.0093  0.0916  0.3835
31029W        W46498  15.565  15.449   3.276  0.3531  0.0195 -0.1912
31030W        W46499   5.591   9.633   0.132  0.1135  0.2357  0.1336
31031W        W46500   1.080   8.205  15.105 -0.0372 -0.0817 -0.1647
31032W        W46501   5.354  10.903   2.861  0.3118  0.2698 -0.3657
31033W        W46502   4.592  13.914   0.402 -0.1776 -0.0095  0.3988
31034W        W46503  10.652  15.166  14.925 -0.0609  0.2802  0.0684
31035W        W46504  12.260  14.425  11.026  0.0108  0.1212  0.0074
31036W        W46505   8.890  16.681   5.394 -0.0686  0.0307  0.1460
31037W        W46506   6.743   8.435   4.953 -0.3677 -0.2837 -0.1212
31038W        W46507   2.983  18.103  13.977  0.1339  0.0973 -0.0732
31039W        W46508   0.379  15.729   5.786  0.1067 -0.0230  0.0637
31040W        W46509   1.277   2.844  10.962 -0.0150 -0.2619 -0.0322
31041W        W46510   3.177  13.005  11.915 -0.2544  0.0559 -0.1414
31042W        W46511   7.159   1.836   1.957 -0.0401 -0.4242  0.1034
31043W        W46512  18.371  15.597   4.999 -0.0431  0.1225  0.0754
31044W        W46513  13.406  16.413   1.928 -0.1099  0.1647 -0.0392
31045W        W46514   1.535   9.539   5.255  0.0393 -0.0228  0.1555
31046W        W46515   6.942   0.155   2.203  0.4242  0.0508 -0.0985
31047W        W46516   4.177   5.701   0.171  0.1682 -0.1294  0.0003
31048W        W46517  14.832  17.465  13.918  0.3307 -0.0441  0.1818
31049W        W46518   7.991  16.162  14.981 -0.1697 -0.0716 -0.1772
31050W        W46519  17.162  11.464  14.948  0.0649  0.0771 -0.1993
31051W        W46520   4.061  17.664  12.175 -0.0697 -0.1107  0.4588
31052W        W46521  15.251   2.049   2.917 -0.0424 -0.2607  0.2263
31053W        W46522  15.466  12.806  13.339  0.2925 -0.0988  0.0231
31054W        W46523   7.266  16.837  12.425  0.3570 -0.2097  0.1710
31055W        W46524  16.111   4.442   0.378  0.1165 -0.0726  0.1065
31056W        W46525  13.844  14.752   3.675  0.0723 -0.1379  0.2190
31057W        W46526  13.801   0.644   9.779 -0.0738  0.0348 -0.2199
31058W        W46527   3.369   3.830  14.467 -0.2515 -0.1522  0.3553
31059W        W46528   8.673   1.212   1.788  0.1000 -0.1517  0.3542
31060W        W46529  17.259   3.932   2.267  0.0215  0.0123  0.0150
31061W        W46530   9.786   2.646   4.523 -0.2388 -0.1346  0.0723
31062W        W46531   4.939  17.552   0.762  0.0330  0.1910 -0.0676
31063W        W46532   3.394   0.678  15.618 -0.0472 -0.0944 -0.0284
31064W        W46533   4.804  10.832   4.181  0.2632  0.1020  0.1069
31065W        W46534  12.716   3.201   3.857 -0.2241 -0.1868 -0.1692
31066W        W46535  11.824  11.404   1.056  0.1621 -0.0140  0.5731
31067W        W46536  14.371  12.124  12.045  0.1041 -0.1250 -0.0741
31068W        W46537  15.849   7.377  12.970  0.0766  0.2328 -0.2639
31069W        W46538   7.320   6.279   3.467 -0.0243 -0.0859 -0.0029
31070W        W46539  16.484  12.226  11.519  0.1680 -0.2417 -0.2587
31071W        W46540  17.789   8.563  11.890 -0.1095  0.1132  0.0116
31072W        W46541   1.888   4.455   5.281 -0.1558  0.0479 -0.2693
31073W        W46542  14.495   6.518  13.460  0.0902 -0.1923  0.1271
31074W        W46543  12.807   2.329   4.922 -0.1210  0.2479  0.2851
31075W        W46544  17.464   1.410  13.927  0.0083 -0.1066  0.0407
31076W        W46545  10.672  10.607  12.488  0.2143  0.4182 -0.0292
31077W        W46546  16.461   4.991  10.193 -0.0492  0.3210  0.0627
31078W        W46547   6.013  16.768  12.334 -0.1388 -0.2441 -0.0402
31079W        W46548   4.382  13.487  13.870  0.1016  0.0244  0.0358
31080W        W46549  10.117  15.486   4.498 -0.2678 -0.2552  0.0497
31081W        W46550  16.979  10.289   0.169  0.0572  0.1228  0.2790
31082W        W46551  13.230  12.154  14.816 -0.2993  0.1437  0.0336
31083W        W46552   8.408   8.276   4.029  0.0339  0.0402  0.1657
31084W        W46553   6.742  16.886   0.087 -0.2541 -0.3225  0.0660
31085W        W46554   6.385   7.065   0.126  0.3594  0.0877  0.1587
31086W        W46555  15.647  13.454  14.034 -0.0047 -0.1303 -0.0562
31087W        W46556   5.831   2.920  15.377  0.0144 -0.0252 -0.0196
31088W        W46557   6.922  17.294   1.228  0.0240  0.1035 -0.0468
31089W        W46558  14.375  11.289   6.085  0.2459 -0.3322  0.0458
31090W        W46559   6.238   9.490  11.247 -0.0898  0.1845  0.0212
31091W        W46560  13.737  11.323   9.714  0.0286  0.4198  0.3736
31092W        W46561   7.024  16.892  15.526  0.0018 -0.2381 -0.0325
31093W        W46562  18.477   2.798   2.773  0.1075  0.2030  0.1657
31094W        W46563  15.748  16.621  14.296 -0.1739  0.0959 -0.4278
31095W        W46564   7.553   8.035   2.868  0.0337  0.2751 -0.0835
31096W        W46565   2.708   9.369  13.090  0.0894  0.1054 -0.1797
31097W        W46566  10.332  14.888  13.139 -0.1893  0.1242 -0.3191
31098W        W46567  10.246  16.216   0.201  0.2616  0.0323 -0.1652
31099W        W46568   7.233   9.260  11.096  0.4658  0.1335  0.1340
31100W        W46569  13.218   9.113   1.503 -0.1599 -0.0306  0.0261
31101W        W46570   1.244  17.155  13.210 -0.1022 -0.4094  0.2067
31102W        W46571   2.214   0.743  14.411  0.1557 -0.1094 -0.1084
31103W        W46572   5.180   4.147   0.203  0.1991  0.1397 -0.2187
31104W        W46573  13.405   0.596  14.888 -0.3190 -0.0684  0.0722
31105W        W46574   9.672  10.440   3.892  0.0217 -0.1769 -0.3196
31106W        W46575  16.444   1.754  12.896  0.3119  0.0106  0.0870
31107W        W46576  15.638  14.271  15.160  0.0099  0.2873 -0.0379
31108W        W46577  13.564  16.187  11.486  0.0922  0.2817 -0.3410
31109W        W46578  12.583   3.626   4.172 -0.1377  0.1822  0.1797
31110W        W46579   2.189  13.290   4.080  0.2951 -0.1121  0.0944
31111W        W46580   1.792   6.734   4.305  0.0259  0.2316  0.0545
31112W        W46581   9.013   1.414  10.781 -0.4244  0.1547  0.0359
31113W        W46582  14.902  17.848   3.310 -0.2468 -0.0380 -0.0760
31114W        W46583   2.968   8.427  11.814 -0.1381  0.4061 -0.0964
31115W        W46584  16.530   8.869  10.691  0.2008  0.1255 -0.0096
31116W        W46585   8.672   3.383   3.744 -0.0155 -0.0126  0.1592
31117W        W46586   2.289   8.447  11.458  0.1152 -0.1673 -0.1639
31118W        W46587  15.906  10.719  14.687 -0.0557 -0.0063 -0.0995
31119W        W46588  10.566   2.275   2.702  0.2316  0.1851 -0.1780
31120W        W46589  15.102  12.810   1.184  0.1822 -0.1983  0.0224
31121W        W46590   6.931   9.805   4.247 -0.1749  0.1873 -0.3591
31122W        W46591  15.250   1.106  14.022 -0.0047 -0.2524  0.2798
31123W        W46592   4.554  13.701   1.048  0.2836 -0.1065  0.2285
31124W        W46593  11.712  12.719  12.895 -0.0651 -0.1884  0.1540
31125W        W46594  11.113   9.191   2.813 -0.0508 -0.2943  0.0262
31126W        W46595  17.354   6.008   3.122  0.3127  0.0974 -0.1263
31127W        W46596  17.160  10.995  10.008 -0.0283 -0.3348  0.0699
31128W        W46597  16.886  10.257  15.538 -0.1637 -0.1786 -0.1174
31129W        W46598   3.450   8.121  15.644 -0.1518 -0.2464  0.0843
31130W        W46599   3.854   2.087   4.226  0.0654 -0.1685 -0.0527
31131W        W46600  12.095   5.366  14.434 -0.2779  0.0843  0.2349
31132W        W46601   6.520   9.487  10.055  0.1461  0.2152 -0.0792
31133W        W46602   5.464  11.957   2.885  0.0872  0.2008 -0.1192
31134W        W46603   3.892   1.422   4.784 -0.1443 -0.0096 -0.1337
31135W        W46604   0.159  11.627  11.981 -0.1928  0.0718 -0.3225
31136W        W46605  11.650  10.322  14.423  0.4224  0.2026  0.2229
31137W        W46606   9.685  17.222   6.192 -0.1627 -0.1697 -0.2059
31138W        W46607   7.084  14.146  12.036 -0.0300 -0.0689 -0.3698
31139W        W46608  12.082   8.238  12.800  0.1097 -0.1136  0.4303
31140W        W46609  11.213  16.189   2.393 -0.1711 -0.1617  0.2394
31141W        W46610   9.982   9.149   0.730 -0.0083 -0.2014  0.1744
31142W        W46611   5.775   9.969  15.502  0.0200  0.0677  0.1378
31143W        W46612  11.166   9.587  12.393  0.1501 -0.1708 -0.0899
31144W        W46613  17.342   2.700  13.016  0.1514  0.0393  0.0079
31145W        W46614  12.091   2.451   0.337 -0.4759 -0.1987  0.1235
31146W        W46615  16.433   7.661   3.585  0.0090 -0.3459 -0.0502
31147W        W46616   4.271   2.575   2.513 -0.1976 -0.1574 -0.0241
31148W        W46617   7.014   3.092  15.586 -0.3305  0.0042  0.1478
31149W        W46618   5.749   2.928  11.821  0.0375 -0.0452 -0.2528
31150W        W46619   2.160   0.472   3.694  0.1708 -0.0541  0.0011
31151W        W46620  12.742   2.747   5.182 -0.1951 -0.0994 -0.2455
31152W        W46621  14.268   2.068  10.915 -0.0656 -0.3322 -0.0783
31153W        W46622   3.468   0.075   5.337  0.0966  0.2336  0.2641
31154W        W46623  15.052  11.268  12.160  0.3849  0.2432 -0.2592
31155W        W46624  17.631   5.107  12.453 -0.3064  0.2214  0.3397
31156W        W46625   4.397  15.238   1.086 -0.2587 -0.0541 -0.1640
31157W        W46626   7.871   1.280   1.558  0.3067  0.1775 -0.1448
31158W        W46627   4.535  13.512   4.869  0.1587 -0.1985 -0.4224
31159W        W46628  17.957   6.845  12.462  0.0278  0.3515  0.1587
31160W        W46629   4.795   4.215   5.132  0.0779 -0.2385  0.2396
31161W        W46630   5.010   5.645  13.043 -0.0073 -0.1571  0.1983
31162W        W46631   4.785   7.166  14.949 -0.2492 -0.0230 -0.1804
31163W        W46632  10.776  10.532   1.669  0.2087 -0.1731 -0.2474
31164W        W46633   3.177   1.605   4.501  0.3692 -0.2750 -0.1849
31165W        W46634  15.022   0.056  15.262 -0.3271 -0.0942 -0.1054
31166W        W46635   0.912   0.781   3.545 -0.1991  0.0065 -0.3240
31167W        W46636   4.488  14.154  12.878  0.2244  0.2738  0.0128
31168W        W46637  15.866   1.625   2.220 -0.3911 -0.0695  0.2031
31169W        W46638  12.894  16.841  12.984 -0.3049 -0.1291  0.1749
31170W        W46639   0.333  16.119   3.527  0.0560  0.1608  0.2991
31171W        W46640   7.806   1.122   2.059 -0.0276  0.1858  0.0903
31172W        W46641  15.348  16.049  12.722  0.0475 -0.1303  0.3849
31173W        W46642   4.720  15.940   2.136  0.0631 -0.1282 -0.4335
31174W        W46643   8.149   9.121  15.508 -0.3450  0.1791  0.0864
31175W        W46644  17.438   9.435   2.896 -0.1220  0.2813  0.0489
31176W        W46645   8.100  14.672   2.834  0.0757 -0.2637 -0.0049
31177W        W46646   0.124  12.450  11.173  0.2326 -0.2930 -0.1895
31178W        W46647   9.469  11.317  15.115 -0.1928 -0.2770 -0.3033
31179W        W46648   5.420   2.118   3.512  0.0994  0.2973  0.1594
31180W        W46649  15.966  10.693  12.833  0.0044  0.5603  0.3471
31181W        W46650  17.750   2.238  14.337 -0.2578  0.3062 -0.2064
31182W        W46651  15.860  15.458  13.644  0.0553 -0.0398  0.3554
31183W        W46652  15.018  17.357   3.075 -0.1060  0.2429 -0.0040
31184W        W46653   6.822  13.490  13.968  0.0634 -0.0105 -0.3180
31185W        W46654  16.794  15.722   2.336  0.2400 -0.0406 -0.1558
31186W        W46655   3.766   8.781   3.856 -0.0103  0.0256 -0.3268
31187W        W46656   9.718  13.654  11.140  0.0102  0.0945 -0.0746
31188W        W46657   8.676   4.322  14.852 -0.1746 -0.2420  0.1353
31189W        W46658  11.844  14.969  15.509 -0.2903 -0.2086  0.0751
31190W        W46659   9.508  11.942   0.108  0.0168  0.3443 -0.1381
31191W        W46660   3.291   2.539  14.577 -0.2526  0.3528 -0.3349
31192W        W46661  10.217  12.428   3.368 -0.1578  0.1575  0.2971
31193W        W46662   0.690   7.970  14.677 -0.0572  0.0346  0.2551
31194W        W46663   8.597   9.203   3.894 -0.1464  0.0607 -0.0222
31195W        W46664   9.319  10.395  13.059  0.0805  0.0211 -0.1897
31196W        W46665  10.501   3.270   1.760 -0.0727 -0.2108  0.1683
31197W        W46666   9.474   6.627   1.643 -0.2634 -0.4308 -0.0745
31198W        W46667   1.518   1.712   0.086  0.3644 -0.1112  0.2792
31199W        W46668   9.583  12.151  10.947 -0.0210  0.2277  0.0248
31200W        W46669   6.030   0.869   3.139 -0.0121  0.1055 -0.0931
31201W        W46670   2.660   7.157  13.830 -0.2719  0.2518 -0.3374
31202W        W46671  12.246   1.276   4.384  0.2139  0.0416  0.4199
31203W        W46672  13.314  12.484  14.448 -0.1313 -0.1563 -0.0006
31204W        W46673  12.866   7.432   3.136 -0.1867 -0.3040  0.1511
31205W        W46674   2.717   8.519  14.657  0.1826 -0.3088  0.0348
31206W        W46675   5.295  13.503   4.478  0.0161 -0.1743 -0.1926
31207W        W46676   5.060  14.181   3.341 -0.4402  0.1804  0.0866
31208W        W46677  17.999   2.937  12.573  0.0831  0.3777 -0.4331
31209W        W46678   6.298  16.487   0.891 -0.0602  0.2521 -0.1144
31210W        W46679   8.276   1.861   4.752  0.0935  0.2767  0.1161
31211W        W46680   1.396  15.728  12.863 -0.1196  0.1272  0.1371
31212W        W46681  15.126  10.598   0.118 -0.1646 -0.1435  0.0614
31213W        W46682  15.272  11.061   3.513  0.4427  0.3951 -0.1892
31214W        W46683   6.124   7.440  14.519 -0.1137  0.0825  0.1869
31215W        W46684   0.280   4.163  10.621 -0.0080 -0.4550  0.1096
31216W        W46685   6.668  11.529   2.564 -0.0958  0.0861 -0.2632
31217W        W46686   2.571  13.793   2.080 -0.1413  0.2002  0.0984
31218W        W46687  17.136  17.964  10.058 -0.0833 -0.1267 -0.1032
31219W        W46688   1.499  11.140   4.739  0.3394  0.0620 -0.0666
31220W        W46689  15.912   1.820  11.484 -0.2042 -0.2949  0.1204
31221W        W46690   3.935   7.681   2.414  0.0371  0.1324  0.0593
31222W        W46691   8.077   5.044  14.274 -0.0044  0.1430 -0.1881
31223W        W46692  18.063   5.789   5.096 -0.0584 -0.2608  0.3388
31224W        W46693   2.115  11.067   2.870 -0.1210  0.1078  0.0742
31225W        W46694   3.881  18.259   3.359  0.2159  0.1819 -0.2668
31226W        W46695  16.243  12.626   4.323 -0.0109  0.0225 -0.3703
31227W        W46696  18.075   0.922   5.658 -0.0346  0.0192 -0.1359
31228W        W46697   1.005  14.889  13.284  0.0879  0.2520  0.1341
31229W        W46698  13.244   9.864  10.020  0.1531  0.1517 -0.1548
31230W        W46699  12.131  17.152  12.135  0.1437  0.3272  0.0942
31231W        W46700   7.969  12.947  15.127 -0.1332  0.1473 -0.0842
31232W        W46701  15.619   0.272   2.016 -0.1636  0.1778  0.2104
31233W        W46702  10.411  16.235   3.327 -0.2278 -0.0898 -0.0155
31234W        W46703   9.529   7.820   5.198  0.0372  0.1880 -0.1601
31235W        W46704  13.696   7.360   2.446 -0.1033  0.0672  0.3636
31236W        W46705   0.888   2.510  11.215  0.0123 -0.2775  0.1454
31237W        W46706  14.471  17.755   3.652  0.0823 -0.0025  0.4472
31238W        W46707  15.894   1.848   0.301  0.3993 -0.1951 -0.1299
31239W        W46708   8.185  13.509  14.590  0.2783 -0.1107  0.4052
31240W        W46709  12.298   3.433  15.655  0.0457 -0.0547 -0.1488
31241W        W46710   8.801  13.561   2.185  0.2359  0.0789  0.3350
31242W        W46711  14.897   9.751  15.238 -0.1688 -0.1234  0.1837
31243W        W46712   4.381   9.894  13.677  0.0343 -0.0279 -0.0600
31244W        W46713  12.399  16.918   2.876 -0.0074 -0.2124 -0.0455
31245W        W46714   5.984   8.511  13.319 -0.0773  0.0754 -0.0581
31246W        W46715   1.015  12.179  10.963 -0.0923  0.4094  0.2985
31247W        W46716  15.148  12.076  14.024  0.0303  0.1245  0.2077
31248W        W46717   4.113   1.755   0.436  0.1601 -0.0341  0.1050
31249W        W46718   3.440  10.164   2.160 -0.0608 -0.4136 -0.2607
31250W        W46719  15.669  10.398  15.475  0.2931 -0.1300 -0.1555
31251W        W46720   3.665  17.052   0.540 -0.2601  0.3866  0.0699
31252W        W46721   3.896   1.794   5.931  0.1350 -0.2535  0.3168
31253W        W46722   8.824   4.962  13.451 -0.0277  0.0009 -0.1832
31254W        W46723   3.458   7.500   1.062  0.1671  0.1035  0.2009
31255W        W46724   2.902  17.310  15.465 -0.3497  0.1387  0.1805
31256W        W46725  13.299  13.955   3.899 -0.1353 -0.0698  0.0887
31257W        W46726   2.139   5.781   0.779 -0.2442  0.1642 -0.0701
31258W        W46727  14.078   7.097  10.867  0.1096  0.2094 -0.0483
31259W        W46728  14.970   2.490   3.767  0.1031 -0.0241  0.0083
31260W        W46729  13.363   7.857  13.811  0.0644 -0.0483  0.2403
31261W        W46730  11.613  17.216   4.242 -0.5180 -0.5040 -0.0960
31262W        W46731  13.864  16.793   4.438  0.0991 -0.0966 -0.0571
31263W        W46732   4.044   9.114  11.501  0.2199  0.4306  0.2115
31264W        W46733   7.226  16.625  10.631  0.2185  0.3325  0.2225
31265W        W46734  13.945  17.336   3.314 -0.0472  0.0759  0.1388
31266W        W46735   6.612  15.174  13.140 -0.2998 -0.1420  0.1066
31267W        W46736   5.000   8.233   5.553  0.1600  0.0963 -0.1962
31268W        W46737   2.913  13.376   1.804 -0.1868  0.0633  0.1725
31269W        W46738   9.442  11.434  12.757  0.0733 -0.2250 -0.0658
31270W        W46739  13.018  10.999  10.411  0.2245  0.1064  0.2697
31271W        W46740  11.160   0.253  11.368  0.2562 -0.1446  0.1918
31272W        W46741   7.382   8.231  10.982 -0.0240 -0.1443  0.2587
31273W        W46742   5.049  10.399   3.954 -0.0647 -0.0965 -0.0835
31274W        W46743   0.308   5.777  13.001  0.1431  0.1708 -0.0449
31275W        W46744   4.946   0.799   0.120 -0.2708  0.0575 -0.0135
31276W        W46745  13.142  13.160   5.164 -0.0315  0.0976  0.1775
31277W        W46746  16.816   5.823  10.364 -0.0079  0.0079  0.0128
31278W        W46747   7.969   9.179  13.032 -0.2184 -0.0705 -0.2702
31279W        W46748   8.105  13.043  12.881  0.2941 -0.0481  0.1612
31280W        W46749   5.634   9.665  12.366 -0.0087  0.1348  0.0596
31281W        W46750  13.941  17.803   4.734 -0.1541 -0.0479 -0.2414
31282W        W46751   6.502  10.826   4.937 -0.0901  0.0665  0.0321
31283W        W46752   6.043  17.691  13.327 -0.2731  0.1132  0.2516
31284W        W46753   5.197  18.234  14.486 -0.1895 -0.1262 -0.2244
31285W        W46754   9.105   1.695   2.138  0.0474 -0.0967 -0.3070
31286W        W46755  13.349   2.628  12.267 -0.1971 -0.3643  0.1577
31287W        W46756  18.282  13.315  12.731 -0.1396  0.1277  0.4799
31288W        W46757   8.927  17.735   1.237 -0.0131 -0.0349  0.0842
31289W        W46758   5.434   3.351   2.464 -0.3289 -0.4616 -0.0251
31290W        W46759   0.635  17.592   4.460  0.0754 -0.2253  0.4695
31291W        W46760   5.324   8.202   2.956 -0.3239 -0.0846  0.2843
31292W        W46761   8.119  17.576   3.389 -0.2390 -0.3082 -0.0497
31293W        W46762  12.686   5.800   5.102  0.1433  0.0129  0.2001
31294W        W46763   3.954   3.513  13.738  0.0384 -0.0954  0.2018
31295W        W46764   0.826   6.040  14.149 -0.0852  0.2589  0.0451
31296W        W46765   0.178  18.269   2.580  0.2544  0.1308 -0.2566
31297W        W46766  11.627  11.568   1.841  0.0036 -0.2868  0.2439
31298W        W46767  14.228  14.945  14.806 -0.0565  0.0592  0.1487
31299W        W46768  11.423   1.406  11.999  0.4504  0.0694  0.0260
31300W        W46769  12.959   7.741  15.720  0.2515  0.0328 -0.1052
31301W        W46770   9.590   8.432  11.700 -0.1731 -0.1855 -0.3793
31302W        W46771   8.614   5.845   2.806 -0.2117 -0.1066 -0.0345
31303W        W46772   8.812  16.098   2.356  0.2630 -0.0249  0.1641
31304W        W46773  17.839  11.214   0.610  0.3063  0.0654 -0.0300
31305W        W46774   9.273  17.924  15.126  0.0119 -0.3123  0.1339
31306W        W46775   0.407   2.016   5.455  0.1523 -0.2231  0.0189
31307W        W46776   2.910   8.987   4.428  0.0832 -0.0550  0.1060
31308W        W46777  14.249  10.567  13.440  0.0098  0.2064 -0.3362
31309W        W46778   0.145  18.101   3.056  0.1744  0.0081  0.0084
31310W        W46779   4.320   3.882   1.856 -0.0406  0.3947 -0.0572
31311W        W46780  17.664  13.804   3.895  0.0020 -0.3951 -0.0499
31312W        W46781  12.405  17.137  14.793  0.4483 -0.1677 -0.3370
31313W        W46782  12.933  12.756   2.933 -0.0984 -0.1229  0.1917
31314W        W46783  10.966   0.505   2.515 -0.0452 -0.0491 -0.0602
31315W        W46784   0.717   3.082  13.892  0.3587  0.2405  0.1633
31316W        W46785  13.353  14.876   3.628 -0.0069  0.1454 -0.2990
31317W        W46786   7.583  10.677   4.940 -0.2729 -0.4923  0.2540
31318W        W46787  15.745   3.367  12.098 -0.3393 -0.0071 -0.0977
31319W        W46788  17.784   1.359   1.921  0.5393 -0.1916  0.1157
31320W        W46789  10.477   2.902  13.812  0.0118 -0.2107 -0.0598
31321W        W46790  12.199   9.062   2.358  0.0440  0.1463 -0.0749
31322W        W46791  14.260   9.783  11.227  0.3660  0.2583 -0.1468
31323W        W46792   0.334   0.705   1.169 -0.1256 -0.0015  0.1766
31324W        W46793   1.977  17.571  10.728 -0.1144  0.1102  0.4635
31325W        W46794  12.984   7.740  12.478 -0.3525 -0.2576  0.1837
31326W        W46795   7.332   7.539   1.123 -0.1941  0.0077  0.0613
31327W        W46796  18.183  18.369   2.157 -0.0949  0.2615  0.1580
31328W        W46797   4.954   6.663  15.292  0.0295  0.0147 -0.1450
31329W        W46798   7.534   2.241  15.123  0.0181 -0.1726 -0.0509
31330W        W46799   5.691   0.197  15.087  0.1044 -0.3292 -0.0752
31331W        W46800   0.484   4.571  10.377  0.2822  0.1110 -0.0179
31332W        W46801   9.324  14.387  12.984 -0.1295  0.0293 -0.1875
31333W        W46802  12.192   7.208   1.658 -0.0422  0.4148 -0.1243
31334W        W46803  17.238   5.653  10.639  0.0556 -0.0962 -0.3339
31335W        W46804  12.736  18.332   3.064  0.2851 -0.3429 -0.0768
31336W        W46805   8.186   9.930  14.126 -0.3032  0.2855 -0.1242
31337W        W46806  17.016  11.890  15.102 -0.1639  0.0675  0.1667
31338W        W46807   4.576   4.694  11.342 -0.3869 -0.0134  0.1688
31339W        W46808  13.531   8.475   0.884  0.1732 -0.2504 -0.1274
31340W        W46809  17.495  12.186  11.446  0.1416  0.2497 -0.1470
31341W        W46810   8.765   0.494  15.556 -0.1237 -0.0645 -0.0547
31342W        W46811  11.107  11.968  15.823 -0.0269  0.2534 -0.0919
31343W        W46812   3.486   8.373   5.573 -0.0537  0.0261 -0.1924
31344W        W46813  12.798   5.163  13.407 -0.1552  0.0756 -0.2944
31345W        W46814  13.721  12.074   0.162  0.2714  0.0487  0.3153
31346W        W46815   3.244   0.770   4.157 -0.1241 -0.2053  0.0032
31347W        W46816  12.359  12.384   1.149 -0.0260 -0.1789 -0.0345
31348W        W46817   3.691   2.010   6.339 -0.2923 -0.3042  0.2115
31349W        W46818   5.747   4.306   4.211  0.0709  0.3277 -0.3900
31350W        W46819   9.737   8.975   5.037  0.0749  0.0312  0.0025
31351W        W46820   7.215  17.131  12.941  0.1641 -0.2815  0.2069
31352W        W46821  16.347   0.048   3.639  0.0914  0.2731 -0.1231
31353W        W46822  16.684   7.041  14.992 -0.2064 -0.1049 -0.0809
31354W        W46823  15.705  13.760  11.067  0.0882  0.3240 -0.2503
31355W        W46824   8.296   4.103  12.142  0.2242 -0.0332 -0.0894
31356W        W46825   5.151  15.198   4.830 -0.1025 -0.1742  0.0284
31357W        W46826  11.482  13.722   1.736  0.0562  0.0641  0.0897
31358W        W46827  18.435  18.079   1.109  0.2043  0.1731 -0.1945
31359W        W46828   9.984   1.114   4.843  0.2456  0.0605  0.1293
31360W        W46829  12.771  13.171   1.618  0.4124  0.1868  0.2779
31361W        W46830   1.023   7.516   1.373  0.1093 -0.1280 -0.1139
31362W        W46831   9.458  15.677  14.414  0.0904 -0.1309 -0.0661
31363W        W46832  16.172   5.709   0.948 -0.3693 -0.4130 -0.0770
31364W        W46833   3.434  12.265  12.529 -0.0607  0.0086  0.2079
31365W        W46834   4.048   7.722   5.250  0.1780 -0.0746 -0.1330
31366W        W46835   8.717  15.515   4.647  0.2531  0.0895 -0.1122
31367W        W46836  14.655   1.857  15.668  0.0687  0.1392 -0.3629
31368W        W46837   4.947  17.871   6.242  0.0853 -0.0773  0.0748
31369W        W46838  15.099   6.296   1.193 -0.0329 -0.2667 -0.0933
31370W        W46839  11.992  18.060   2.667 -0.0433  0.0622  0.4339
31371W        W46840   8.930   2.759   1.951 -0.1655  0.1096  0.0338
31372W        W46841   1.946   2.376   2.357  0.1536  0.3583 -0.0264
31373W        W46842  14.561   8.096   1.592 -0.2046  0.1548  0.0221
31374W        W46843  15.854   1.023  14.521 -0.0997  0.1040 -0.1230
31375W        W46844   1.831   3.992  13.547 -0.3393  0.0829 -0.0631
31376W        W46845   4.119   1.189  13.720  0.2065 -0.0958 -0.3931
31377W        W46846  10.212   5.322   5.325  0.1796  0.1825 -0.0133
31378W        W46847   0.873   1.035  12.233  0.0988 -0.0472  0.4232
31379W        W46848  12.302  14.007  14.293 -0.0218  0.1270 -0.0252
31380W        W46849  18.451  16.363  13.080  0.1236 -0.0412 -0.0505
31381W        W46850  18.014  16.592  10.947 -0.1849 -0.0943  0.1490
31382W        W46851  12.515   1.099  11.458  0.0711 -0.0800  0.2453
31383W        W46852   5.621   5.594   3.531  0.0234  0.1861 -0.1006
31384W        W46853  11.091  16.919  13.458 -0.2954 -0.1212  0.2411
31385W        W46854   7.215   9.518  13.441  0.0973  0.0330  0.1996
31386W        W46855  12.273  12.927   4.967  0.1141 -0.1329  0.0096
31387W        W46856  14.408   4.189  13.728 -0.1379 -0.0144  0.2057
31388W        W46857  13.836  16.206   1.765  0.1152 -0.1447  0.0343
31389W        W46858  10.866   0.157   4.625  0.1105 -0.0936  0.2373
31390W        W46859  11.878   2.933  14.469 -0.4241  0.1317  0.0951
31391W        W46860  17.220   1.021   2.946  0.1945 -0.0076  0.1759
31392W        W46861  15.985   4.319   2.940 -0.1516  0.2739 -0.1931
31393W        W46862   5.983   4.140  12.207  0.0217  0.2444 -0.0953
31394W        W46863  14.781  11.800  12.180 -0.2274  0.1283 -0.0923
31395W        W46864   2.666  16.824  14.620  0.0237 -0.1013 -0.3036
31396W        W46865   8.933  14.978  11.190  0.1980  0.1000 -0.2211
31397W        W46866   7.303  13.702   2.748 -0.0367 -0.1022  0.1458
31398W        W46867  16.670   3.262   2.688  0.1000  0.0909 -0.1354
31399W        W46868  14.413   9.568  11.744 -0.2620  0.0095 -0.0139
31400W        W46869   4.401  15.511  15.704  0.0358  0.0954 -0.2426
31401W        W46870  17.423   6.314   4.077 -0.0584 -0.1141  0.0265
31402W        W46871   6.877   6.264   3.283  0.0074 -0.0407 -0.1427
31403W        W46872   5.407  11.859  13.136  0.3588 -0.0452 -0.0404
31404W        W46873   0.986  18.157   0.892 -0.0233  0.1369  0.2941
31405W        W46874   7.597  15.345   0.810  0.0649  0.0207  0.1764
31406W        W46875   8.945   5.790  14.563  0.0901 -0.1355  0.0459
31407W        W46876  18.427   0.216   1.820  0.2406  0.0313 -0.0925
31408W        W46877   2.171   7.434   4.686 -0.2797 -0.2005 -0.1081
31409W        W46878  13.916   6.522  10.947  0.1993  0.1286  0.2440
31410W        W46879   6.602  13.087   4.201  0.0287  0.1097 -0.2365
31411W        W46880   2.117  15.450  14.622  0.1493  0.6977  0.1570
31412W        W46881   5.095  17.324  14.072 -0.3362  0.1534  0.3507
31413W        W46882   1.117  11.350  12.887  0.0097  0.0713 -0.0293
31414W        W46883   6.395  10.979  10.597  0.3166  0.0456  0.1762
31415W        W46884   1.845   7.377   0.941  0.0980  0.0720 -0.2881
31416W        W46885   2.051   2.570   3.931  0.1022  0.0373  0.1391
31417W        W46886  17.480   0.167   4.373  0.4248 -0.0292 -0.2990
31418W        W46887  14.119   0.371  11.207 -0.0461 -0.0453 -0.0268
31419W        W46888  12.122   0.784  14.269  0.0538  0.0073 -0.0992
31420W        W46889  14.588  12.531   4.279  0.1164 -0.3007 -0.2985
31421W        W46890  14.801  18.080  15.037 -0.1701 -0.1109 -0.1563
31422W        W46891   8.383   3.187  10.518  0.1909  0.0251 -0.2279
31423W        W46892   4.921  16.466  12.136  0.0565  0.0997 -0.1086
31424W        W46893   4.953   2.287  12.370 -0.0885  0.2356  0.1078
31425W        W46894   2.627   5.335   3.099 -0.2454  0.2226 -0.3088
31426W        W46895  13.358  10.457   5.259  0.0278 -0.0949  0.1408
31427W        W46896   0.739  16.220  13.843  0.1434 -0.2618  0.4529
31428W        W46897   1.983   4.846   5.030  0.1186  0.1408  0.2949
31429W        W46898  10.361   9.597  14.889 -0.1075  0.0957 -0.0836
31430W        W46899  14.052  18.185   2.921  0.2861 -0.0549  0.1653
31431W        W46900  10.060  17.870   3.132 -0.0395 -0.2076 -0.0755
31432W        W46901  12.238  13.477   3.649  0.1945 -0.1366  0.0818
31433W        W46902   6.384   8.541  13.022  0.0381 -0.4363  0.0337
31434W        W46903  11.677  18.286  13.554 -0.2287 -0.1514 -0.0336
31435W        W46904   3.678  15.022  15.383 -0.0718 -0.0264  0.0174
31436W        W46905   2.424   6.870   0.114  0.1672  0.2743  0.0522
31437W        W46906  15.526  17.745   1.857  0.1206 -0.0770  0.3607
31438W        W46907   9.903  17.209  11.920 -0.4317 -0.0092  0.0064
31439W        W46908  10.857  18.273  13.980 -0.0437 -0.1416 -0.0861
31440W        W46909   2.611   3.647   3.261  0.0825  0.2933  0.0955
31441W        W46910  10.052  12.330   6.179  0.0235 -0.1458 -0.1959
31442W        W46911   3.970   7.304   3.233  0.0713 -0.1848  0.0598
31443W        W46912   9.565   6.924  11.543 -0.0252 -0.2676  0.1582
31444W        W46913  10.070   9.164   1.226 -0.1430  0.1558  0.0684
31445W        W46914   7.278  17.274   5.373 -0.1476 -0.2230 -0.1540
31446W        W46915   8.760   2.886   2.934 -0.2481 -0.0595 -0.1424
31447W        W46916  12.387   1.273  11.973  0.0691  0.2254 -0.1085
31448W        W46917   9.293  17.207  13.620 -0.1846  0.0146 -0.0345
31449W        W46918   9.462  17.325   3.669  0.0363  0.3305 -0.1299
31450W        W46919  12.654   0.176   1.541  0.3605 -0.0779 -0.0044
31451W        W46920  14.775  16.083  15.273 -0.0155 -0.1113  0.0458
31452W        W46921  16.511   0.198  13.355  0.0535  0.1116 -0.1572
31453W        W46922  15.297  11.570  13.926 -0.3890  0.1624  0.1230
31454W        W46923  14.470   1.825   3.430 -0.2169 -0.0335  0.3882
31455W        W46924   5.337   1.841   0.928  0.1765  0.3203 -0.3162
31456W        W46925  15.209   5.594   4.132 -0.4356 -0.1551  0.0834
31457W        W46926   4.333  10.428  13.687 -0.1610 -0.1986  0.0313
31458W        W46927  10.472   1.199   4.188  0.2033 -0.5243  0.0382
31459W        W46928   5.827   4.718   3.131  0.2112  0.0817 -0.0210
31460W        W46929   0.942   1.817   1.901 -0.0690  0.2055  0.2885
31461W        W46930  10.604   6.521  15.533  0.1181  0.0725  0.0092
31462W        W46931   7.997   1.401   0.161  0.0507 -0.0189  0.0810
31463W        W46932  15.775  13.808   0.366  0.0467  0.1411  0.1055
31464W        W46933   8.189   8.135  13.679  0.1281  0.2823 -0.0304
31465W        W46934  14.565   1.206  10.557 -0.0797  0.0797  0.3939
31466W        W46935   2.460  14.383   2.579 -0.1781 -0.2854  0.2025
31467W        W46936  16.592   5.957  15.721  0.0602  0.0022  0.0555
31468W        W46937  17.720   8.715  14.619 -0.0185 -0.2123 -0.2422
31469W        W46938  12.847  14.898   3.774 -0.0230  0.0086  0.1902
31470W        W46939   5.347   8.739  12.071  0.4314  0.0461  0.2755
31471W        W46940  16.001   0.629   2.384 -0.1930  0.0671  0.3255
31472W        W46941   4.529   0.064  14.016  0.0737 -0.1201 -0.1951
31473W        W46942   2.046  15.718   0.932 -0.0395 -0.1298  0.1901
31474W        W46943  10.389   1.035   1.153  0.0039 -0.2617 -0.0922
31475W        W46944  15.976  18.122  12.077  0.0410 -0.2078 -0.1643
31476W        W46945  12.616   8.475  14.001  0.1404  0.3703 -0.0979
31477W        W46946   8.815   9.989   0.808  0.0619 -0.1852  0.0799
31478W        W46947  11.600   3.030  10.909 -0.1137 -0.0327 -0.0481
31479W        W46948  10.394  17.726   2.800 -0.0683 -0.2913  0.0992
31480W        W46949   6.417   0.223   3.946 -0.1018 -0.0890 -0.1317
31481W        W46950   8.137  12.949   0.192  0.1037  0.1288 -0.3258
31482W        W46951   7.957   2.238   2.831 -0.1219  0.4549  0.0461
31483W        W46952   1.600  16.365  13.871 -0.2166  0.3670 -0.1406
31484W        W46953   0.216   6.874   4.755  0.0930 -0.1652 -0.1818
31485W        W46954  15.165  14.179   1.084 -0.1215  0.2939  0.0643
31486W        W46955   6.811  11.942  15.067 -0.1208 -0.1075  0.0737
31487W        W46956   3.985   0.754  13.482  0.0940  0.1384 -0.1343
31488W        W46957  12.453  13.308  10.468  0.0850 -0.3431 -0.2403
31489W        W46958  17.791  17.583   1.635  0.4415 -0.0317 -0.2827
31490W        W46959   9.306   3.055  10.099 -0.0271 -0.3504  0.1181
31491W        W46960   0.615  15.040   1.039 -0.3552 -0.2123 -0.1005
31492W        W46961   4.211  16.456   3.955  0.2877  0.1829  0.0590
31493W        W46962   6.499  14.718  12.427 -0.1886  0.1279  0.0433
31494W        W46963  12.412   8.252  14.730  0.1505 -0.0339  0.1460
31495W        W46964  11.901  17.645   4.193  0.1871  0.1017 -0.0338
31496W        W46965   1.669   4.661  14.066  0.0089 -0.1939  0.1112
31497W        W46966  13.595  11.445  14.613  0.0006 -0.0230  0.0744
31498W        W46967   0.201   0.623  13.941  0.0105  0.2722 -0.3887
31499W        W46968  12.682  14.454  11.941  0.3662 -0.2181 -0.1995
31500W        W46969  10.998  17.938  15.516 -0.2318 -0.2794  0.0270
31501W        W46970   4.071  14.433   1.436 -0.0431 -0.0737  0.0628
31502W        W46971   8.534  10.037   1.655  0.2438 -0.3083 -0.0928
31503W        W46972   2.873  13.382   3.586  0.1489 -0.1641  0.0465
31504W        W46973   4.597   5.240   5.984 -0.3850  0.1291  0.1046
31505W        W46974  17.227  15.158  15.384 -0.2220 -0.3276 -0.1290
31506W        W46975   2.525   5.977   5.163  0.3143  0.1755  0.3623
31507W        W46976   5.093  10.987  14.503  0.1041 -0.1631 -0.0724
31508W        W46977   9.884   8.586   2.864  0.2013  0.1729 -0.0081
31509W        W46978   7.739   9.493   1.307  0.0343 -0.1224  0.1403
31510W        W46979   2.653  10.240  12.974 -0.0461  0.2809  0.1707
31511W        W46980   3.833  13.504  15.617  0.2463 -0.2225 -0.0356
31512W        W46981  17.646  11.625  15.082 -0.0382 -0.2967 -0.1192
31513W        W46982  11.122   1.648   5.441 -0.1044  0.0510 -0.4396
31514W        W46983   8.639  13.612   0.432  0.0314  0.1045  0.5431
31515W        W46984   3.278  17.738  15.785  0.5288  0.2191  0.0935
31516W        W46985  10.429  18.417   2.359  0.2005 -0.1344 -0.1119
31517W        W46986   7.456  11.116   5.158 -0.1916  0.2699 -0.0025
31518W        W46987   0.822   6.467   1.663 -0.1288  0.1563  0.1581
31519W        W46988   0.697   5.168  11.304 -0.1818 -0.0897  0.2603
31520W        W46989   6.267  10.968   3.280  0.0693 -0.1630  0.1240
31521W        W46990   0.231   9.870   2.209 -0.2559  0.1851  0.0104
31522W        W46991  17.183   8.974   3.109 -0.2378 -0.2426 -0.1041
31523W        W46992   1.753   3.382  14.922  0.0516 -0.0652 -0.5863
31524W        W46993  11.391  13.979   2.378  0.1798  0.0251  0.0596
31525W        W46994  13.871   7.368  13.274  0.0190 -0.0970  0.3128
31526W        W46995   5.135  17.287   0.033  0.0093 -0.0179  0.1964
31527W        W46996   8.190   4.991   4.140 -0.0625  0.4008  0.1306
31528W        W46997   7.086   5.550   5.810 -0.2328 -0.5111  0.1354
31529W        W46998  14.704  10.450  13.499 -0.2471 -0.1749  0.0573
31530W        W46999  14.765   2.363  10.944 -0.0824 -0.0488 -0.2724
31531W        W47000   3.191  14.158  15.257 -0.1433  0.3062 -0.0011
31532W        W47001  13.273  18.440   3.821 -0.0135  0.2031 -0.1569
31533W        W47002   8.619   5.287   4.921  0.0841  0.1347 -0.0828
31534W        W47003   0.672   1.824  12.773  0.0181  0.1300  0.1296
31535W        W47004  12.494   2.030   1.126 -0.0804  0.2338  0.1650
31536W        W47005   2.084  17.517   0.205 -0.1493  0.0116 -0.1151
31537W        W47006   1.889   5.115  11.300 -0.0269  0.3615  0.2340
31538W        W47007   2.816  11.693  13.394  0.1912  0.0248  0.1644
31539W        W47008  13.820  11.272   1.791  0.2506 -0.4437 -0.0885
31540W        W47009   5.948  10.354  14.803  0.0086 -0.2693  0.0547
31541W        W47010   5.205  17.779  10.138  0.3772 -0.1756 -0.0077
31542W        W47011  15.562   8.497  15.269  0.0101 -0.1328  0.1312
31543W        W47012   2.273  10.001  12.752 -0.0099  0.0110 -0.0760
31544W        W47013  13.296   2.148  10.087 -0.0151 -0.1910  0.1567
31545W        W47014   0.695  17.457  12.671  0.2838  0.2198 -0.1509
31546W        W47015   3.531  18.129  13.789 -0.1727  0.0316 -0.0183
31547W        W47016   5.649  12.733  13.764 -0.0165 -0.1043  0.0860
31548W        W47017  15.067   1.110  15.284  0.0366 -0.1268  0.1192
31549W        W47018  11.480   4.758   3.322 -0.0808  0.0335  0.0500
31550W        W47019   6.144   1.046  12.658 -0.0584  0.2031  0.0531
31551W        W47020  17.642  16.014   2.435  0.2541 -0.2568 -0.0314
31552W        W47021  11.183   0.815  12.157  0.2117 -0.0559 -0.2089
31553W        W47022   7.532  13.146   1.837 -0.0952  0.2024 -0.0373
31554W        W47023   9.577   8.817  13.531  0.1456 -0.1950  0.1481
31555W        W47024   4.394   7.356   2.548  0.1599  0.1339 -0.1510
31556W        W47025  12.960  13.617  11.157 -0.1046  0.0752 -0.1976
31557W        W47026   9.643   1.043   3.535 -0.1358  0.1265 -0.3005
31558W        W47027   9.856  12.851   0.442 -0.0366 -0.3837 -0.2189
31559W        W47028   7.557  17.273  10.147  0.1805  0.0170 -0.2336
31560W        W47029   8.468   0.221   3.611  0.0636 -0.1527 -0.2746
31561W        W47030  15.745  18.292   1.240 -0.0537 -0.1067 -0.2591
31562W        W47031  18.217  14.951  15.689  0.2755  0.0954 -0.0005
31563W        W47032   9.188   8.058  12.420  0.0711  0.1097  0.1035
31564W        W47033   0.313   0.192   4.349 -0.0589 -0.1435  0.0377
31565W        W47034  16.548  13.847   5.134 -0.2059  0.1676  0.0133
31566W        W47035  14.527   4.049  12.044  0.1126  0.1108 -0.0994
31567W        W47036  12.302   9.154  15.342  0.1050  0.1789  0.1291
31568W        W47037  15.578   2.774   4.120  0.0933  0.0518 -0.0973
31569W        W47038  13.787  10.222   1.283  0.2872 -0.0051 -0.0871
31570W        W47039  15.706   1.991   3.000 -0.3424 -0.2395 -0.0791
31571W        W47040   2.917   2.754  13.545  0.1697  0.0824  0.3584
31572W        W47041   4.195   9.930   4.372 -0.0517 -0.1402 -0.0931
31573W        W47042   7.163  17.628   4.449  0.0930  0.0207  0.0944
31574W        W47043   3.742   8.912   5.565  0.0867 -0.0875  0.1780
31575W        W47044   9.716   4.305   2.811 -0.0813 -0.0074 -0.0976
31576W        W47045   0.350  15.039  12.493 -0.1197  0.2112  0.0567
31577W        W47046   1.301   7.274  12.834 -0.1494 -0.3360  0.0014
31578W        W47047   0.066   9.167  11.795 -0.2973 -0.3297 -0.1257
31579W        W47048   5.965   3.001  11.381  0.0888 -0.1824 -0.1363
31580W        W47049  17.050   3.853   0.892  0.0571  0.1908  0.0873
31581W        W47050  10.087  15.298   0.856 -0.0902 -0.2293  0.1589
31582W        W47051  10.766  17.163  12.643  0.1848 -0.0836 -0.0475
31583W        W47052   2.646   7.852  14.542  0.0868  0.0536  0.0814
31584W        W47053  12.282  13.949  12.765  0.0396 -0.2042  0.0421
31585W        W47054  12.468  13.300   4.520  0.0546 -0.0630  0.2680
31586W        W47055   6.600  15.259   0.190 -0.0241 -0.0668  0.1475
31587W        W47056   4.557   9.606  15.653 -0.1863  0.1003 -0.0812
31588W        W47057   5.066  12.757  13.193 -0.2236  0.4007 -0.0171
31589W        W47058   1.044   2.207   1.346 -0.3323  0.3072  0.2533
31590W        W47059   8.104   3.548   0.509  0.0568  0.2560  0.2039
31591W        W47060   7.088   9.414   0.087 -0.1179  0.0786 -0.2889
31592W        W47061   9.724   3.874   9.975  0.3190 -0.1519  0.1019
31593W        W47062   6.090  14.101  13.312  0.0376 -0.2056 -0.0116
31594W        W47063   3.592  10.377  13.624  0.1035 -0.0756 -0.3329
31595W        W47064  17.786  15.478   4.853 -0.0104  0.2195  0.0545
31596W        W47065  13.434   8.344  11.225  0.1820  0.1122 -0.0092
31597W        W47066   0.464  16.836  11.079 -0.1797  0.1307  0.0369
31598W        W47067  17.034   4.169  15.488 -0.0125 -0.1166  0.1077
31599W        W47068   4.545  14.768  12.439 -0.4294  0.2749  0.2638
31600W        W47069   7.904  14.532   4.230  0.2704  0.3198 -0.3755
31601W        W47070   0.394   6.616  13.677  0.2837  0.1741  0.0374
31602W        W47071  15.026   0.005  11.016  0.1061  0.1111  0.0598
31603W        W47072  14.745   2.719  12.384 -0.0556 -0.2767 -0.1105
31604W        W47073  13.927   6.525  12.512 -0.2875 -0.1330 -0.0013
31605W        W47074  13.428  18.414  13.158  0.0624 -0.0806 -0.0596
31606W        W47075   3.529   5.683   3.021 -0.2539  0.0897 -0.3263
31607W        W47076  14.659   6.346   0.028 -0.3188  0.0818  0.0817
31608W        W47077   0.777   5.535   5.843  0.0867  0.1541  0.1029
31609W        W47078  16.602   9.287  14.999 -0.1360  0.1044 -0.1713
31610W        W47079   1.484  15.435   2.209 -0.0098  0.2426 -0.0652
31611W        W47080  11.382  12.105  11.604  0.3125 -0.2525  0.0923
31612W        W47081   1.772   3.799   3.364 -0.3030  0.2120 -0.1016
31613W        W47082  12.026   3.367   1.976 -0.0871 -0.0487 -0.0195
31614W        W47083  12.685   9.050   5.298 -0.0200  0.1530 -0.3791
31615W        W47084  12.669  17.635   0.610  0.1895 -0.1078  0.1565
31616W        W47085  13.264  10.037   4.970 -0.0258 -0.1715 -0.2723
31617W        W47086  14.408   0.186   2.195 -0.2300  0.1169 -0.2811
31618W        W47087  13.129   8.195  15.019 -0.1149 -0.1490  0.0203
31619W        W47088   3.152  16.761   3.024  0.0388  0.2129 -0.1297
31620W        W47089  14.476   7.957   2.052 -0.0126 -0.4054  0.2370
31621W        W47090  13.328   7.871  11.115  0.1233 -0.0932 -0.0084
31622W        W47091  14.662   5.212   4.137  0.3725 -0.0445 -0.1338
31623W        W47092   7.764   3.579  14.810  0.2449 -0.1536  0.0567
31624W        W47093   8.342  16.523  11.170 -0.4767 -0.1993 -0.1996
31625W        W47094  16.173  12.481   5.734  0.0186 -0.1339  0.1607
31626W        W47095   8.021  13.398  11.684  0.3458 -0.1110  0.1619
31627W        W47096  16.693   0.454  14.249 -0.4025  0.0412  0.1215
31628W        W47097   1.118  11.791   3.643 -0.5093 -0.3404  0.0234
31629W        W47098   1.723   3.056  15.348 -0.0081 -0.1373  0.0859
31630W        W47099   2.138  10.999   3.418 -0.2009 -0.0487 -0.1005
31631W        W47100   7.467   3.005  12.701  0.1285 -0.1185  0.3404
31632W        W47101  14.667  14.320  12.904 -0.0273  0.0803 -0.1856
31633W        W47102   7.239  17.784   0.538  0.0043 -0.1381 -0.2022
31634W        W47103  13.610  13.770   2.018  0.3087 -0.3060 -0.0163
31635W        W47104   4.566  14.792   0.478  0.1244  0.0447  0.0709
31636W        W47105  16.654  12.153  14.219 -0.1598  0.0046  0.0759
31637W        W47106  14.511   4.701  11.254 -0.1590  0.1824 -0.1729
31638W        W47107  17.339  13.238   1.584  0.0322  0.2544  0.1625
31639W        W47108   1.446  10.877   0.980 -0.1571 -0.1996  0.2948
31640W        W47109  16.170  10.624   2.901 -0.0597 -0.1020  0.1387
31641W        W47110  13.078  16.151  12.570 -0.1168 -0.1580  0.4151
31642W        W47111  17.831  14.976  12.059  0.0952 -0.1025 -0.0853
31643W        W47112   8.162   9.022  11.080  0.1235  0.1134  0.0402
31644W        W47113   2.230  17.151  14.355  0.2295  0.1050  0.2541
31645W        W47114   1.233  12.635   9.990 -0.1887 -0.1909 -0.2314
31646W        W47115   2.894   4.859   3.181 -0.3070 -0.2494  0.1795
31647W        W47116  15.596   5.269   4.145  0.2697 -0.0531  0.3066
31648W        W47117   4.626   6.853   2.871 -0.0371  0.0151 -0.1071
31649W        W47118   5.699  11.152   5.085  0.0789  0.2794 -0.0868
31650W        W47119  10.856  11.131   0.391 -0.1296  0.1043 -0.0834
31651W        W47120   2.865   9.603   3.502  0.1122 -0.2799  0.1375
31652W        W47121   7.392   1.292   3.614  0.2319 -0.0346  0.1723
31653W        W47122  13.927   5.772   1.686  0.0903 -0.1279 -0.0532
31654W        W47123   8.938   5.492   2.315 -0.3605  0.1974  0.0144
31655W        W47124   4.424   1.792  14.012 -0.2263 -0.0554 -0.1045
31656W        W47125  10.573   6.308   4.465 -0.0557  0.2382  0.2432
31657W        W47126  12.506   0.757  15.182  0.0687  0.0062  0.0497
31658W        W47127   1.062   1.747   3.873 -0.2521  0.0076  0.4487
31659W        W47128   9.638   9.596  12.484 -0.0354  0.0439 -0.1035
31660W        W47129   9.463   0.341   5.208 -0.0904  0.2507  0.1485
31661W        W47130  10.314   5.685   3.904 -0.3911  0.0365  0.0048
31662W        W47131   9.563   1.748   4.044  0.0816  0.2232  0.0615
31663W        W47132   1.085  14.231  13.273 -0.3118  0.0683  0.1129
31664W        W47133  15.092   5.212  13.441  0.1071 -0.1008 -0.4520
31665W        W47134  14.492   5.460   0.181 -0.0922 -0.1208  0.2725
31666W        W47135   6.131  15.255  15.858 -0.5751  0.3156  0.0846
31667W        W47136   3.005   8.312  12.386 -0.1528  0.0149 -0.0691
31668W        W47137   4.142   8.784   4.825 -0.1497 -0.2499  0.1334
31669W        W47138  13.131   0.129  12.413 -0.1331  0.0872  0.0299
31670W        W47139   4.268  18.405  13.360 -0.0802  0.2424  0.0279
31671W        W47140   2.757   5.398  14.121 -0.3945 -0.0990 -0.0821
31672W        W47141  12.072  11.249  13.901  0.2666  0.0566  0.1465
31673W        W47142  14.343  15.462   4.462 -0.1518  0.0230 -0.1381
31674W        W47143  16.065  13.216   2.317  0.2107 -0.4535 -0.0753
31675W        W47144  10.869   3.128  12.032  0.0491  0.0569  0.1102
31676W        W47145   0.837  11.935  12.878  0.0446 -0.2828 -0.0779
31677W        W47146   4.187  18.151  12.066  0.0628  0.3031  0.1747
31678W        W47147   1.345   0.690   5.421 -0.0914  0.0717 -0.1375
31679W        W47148   7.812  15.918   3.310  0.0158  0.1453 -0.2204
31680W        W47149  11.055   3.879  15.761 -0.0017  0.4049  0.2870
31681W        W47150   7.901  15.258   0.142  0.4296 -0.2041  0.1419
31682W        W47151   6.447   9.070  15.566 -0.1520 -0.0085 -0.0318
31683W        W47152  13.880   3.798   0.520 -0.1934 -0.0099  0.1164
31684W        W47153  15.369   9.285  11.797 -0.0711  0.2794 -0.1646
31685W        W47154   2.791  15.598  12.912 -0.4195 -0.0428  0.1257
31686W        W47155  12.755   9.101   2.490 -0.2057 -0.0246  0.1609
31687W        W47156  17.588  13.117   1.102 -0.2535 -0.2595  0.3896
31688W        W47157  17.899   5.488   5.578 -0.0433 -0.3208  0.0763
31689W        W47158   3.893   1.787   2.590 -0.1466 -0.1043 -0.1676
31690W        W47159   0.794   0.277  11.564 -0.1580 -0.0497 -0.2142
31691W        W47160  14.655  13.824  11.189 -0.1310 -0.2479  0.0226
31692W        W47161   2.924  15.051  14.771  0.1938 -0.0340  0.0747
31693W        W47162  11.690  13.310   5.717  0.1934 -0.4793 -0.0732
31694W        W47163  10.629  18.263  13.518 -0.3549 -0.1754 -0.0846
31695W        W47164   2.853  13.899   1.691  0.1151 -0.4237 -0.0484
31696W        W47165  16.765   3.942  12.225 -0.1299  0.1450  0.2286
31697W        W47166   5.370  10.932   0.800 -0.2619 -0.2375  0.0928
31698W        W47167   5.307  18.438  15.256 -0.1563  0.0784 -0.0884
31699W        W47168  13.281   3.283  11.970  0.0270 -0.0449  0.0099
31700W        W47169   4.550  12.177   3.300  0.0436 -0.0004 -0.1109
31701W        W47170   8.040  10.302  11.041 -0.0520  0.1782  0.1251
31702W        W47171  13.407   2.066   4.483  0.1248  0.3446  0.1488
31703W        W47172   1.334   9.267   1.621 -0.0986 -0.4658 -0.1598
31704W        W47173   8.056  10.815  10.755  0.3083  0.0631  0.0306
31705W        W47174   8.009   7.018   1.536  0.1583  0.1123 -0.0486
31706W        W47175  16.997   7.602   3.529  0.0732 -0.1743 -0.1564
31707W        W47176   5.224   6.098  13.184 -0.2150  0.1268  0.1507
31708W        W47177  11.378   6.126   1.478  0.1267 -0.0184  0.3830
31709W        W47178  14.006   0.286  12.068  0.2616 -0.0938 -0.5913
31710W        W47179   3.425  11.173  10.865 -0.0609  0.1813 -0.1264
31711W        W47180  11.709   7.126  11.009  0.3013  0.1154 -0.3575
31712W        W47181   0.323   6.450  12.373  0.0976  0.0036  0.2372
31713W        W47182  16.547  10.122  14.367  0.0799  0.0649  0.3605
31714W        W47183   5.378   9.359  10.879  0.1477  0.1268 -0.1437
31715W        W47184   9.649  13.489   5.268 -0.0306 -0.0424  0.0614
31716W        W47185  16.202  16.991  10.980  0.0703  0.2007 -0.1367
31717W        W47186  11.795   3.617   4.642 -0.2116  0.1431  0.0834
31718W        W47187  11.992   6.458  13.105  0.3233  0.1753  0.1637
31719W        W47188   5.156   0.179   5.120 -0.0292 -0.1373 -0.1306
31720W        W47189   2.442  11.535  15.458  0.1499  0.0976 -0.0727
31721W        W47190  10.934   6.424  11.883  0.0169 -0.0841 -0.0267
31722W        W47191   0.942   8.868   2.549 -0.0607 -0.2442 -0.2517
31723W        W47192   3.758   6.759   3.844  0.1968 -0.2468  0.0193
31724W        W47193   9.480   4.341   2.335 -0.0634  0.0923 -0.6692
31725W        W47194  11.931   4.268   2.152 -0.2797  0.0444  0.0687
31726W        W47195   3.994   1.719  13.724 -0.1098  0.1413  0.3277
31727W        W47196  14.037   4.942  11.562  0.0614 -0.0280 -0.2089
31728W        W47197  16.595   2.458  10.555 -0.1519 -0.1122  0.3427
31729W        W47198  10.503  15.275   5.923 -0.1234  0.0778 -0.0647
31730W        W47199   9.203   1.977  13.897  0.2689  0.2648 -0.0490
31731W        W47200   4.852   4.522  10.966 -0.0227 -0.2123  0.1572
31732W        W47201  11.637   6.923  14.828  0.0039  0.2160  0.1792
31733W        W47202  13.958   5.488  10.575  0.3162 -0.4092 -0.3041
31734W        W47203   8.701   0.185  11.109  0.1580  0.1033  0.1868
31735W        W47204   5.814  17.740  12.907  0.0538  0.3640 -0.1953
31736W        W47205  10.819  12.545  14.262 -0.2852 -0.0533 -0.1701
31737W        W47206   8.628   0.956   5.194  0.1785  0.0638 -0.1182
31738W        W47207   0.224  12.280  13.666 -0.2393  0.2542  0.0292
31739W        W47208  18.303   7.125  12.752  0.2560  0.0830  0.1802
31740W        W47209  15.089   8.542  11.364 -0.3393  0.0809  0.2930
31741W        W47210  13.303  10.602  14.052 -0.0084 -0.0388 -0.0797
31742W        W47211   1.108  14.748   0.532 -0.0581 -0.0398  0.1872
31743W        W47212   8.686   4.085   2.954  0.0931  0.0446 -0.4305
31744W        W47213  12.977   7.190  14.956 -0.0004 -0.2022  0.0293
31745W        W47214  11.330   5.404   2.547 -0.1811  0.0495 -0.0805
31746W        W47215  12.028   0.563   4.729  0.1218 -0.2615  0.1366
31747W        W47216   4.789   2.015  13.670  0.1014 -0.1574 -0.0165
31748W        W47217   0.709   2.999   4.358  0.2355 -0.0080  0.0112
31749W        W47218  17.864  11.717   0.555  0.0713  0.1431  0.1189
31750W        W47219   3.442   9.642  14.663  0.3317 -0.0955  0.0264
31751W        W47220   7.990  18.134   5.294  0.2686 -0.0192  0.0684
31752W        W47221   5.425   2.183   0.014 -0.1875 -0.1388 -0.2904
31753W        W47222   6.875  11.012   2.637 -0.1830 -0.1028  0.3494
31754W        W47223  17.286   9.539  15.555  0.1861  0.0036 -0.1494
31755W        W47224   0.516   2.476  14.928  0.1746  0.0988 -0.4933
31756W        W47225  11.457   8.137   2.750 -0.3509 -0.5201 -0.3762
31757W        W47226   5.203  17.278  10.202 -0.3811  0.1161  0.1604
31758W        W47227   5.958   0.336  10.411 -0.2653 -0.0071  0.0389
31759W        W47228   3.145  15.021  15.281  0.3913  0.0918  0.4775
31760W        W47229   1.602  13.844  12.715  0.4203 -0.2981 -0.3760
31761W        W47230   4.099   4.984  15.658  0.0321  0.4004  0.0823
31762W        W47231   9.393  17.950   5.771  0.3471 -0.1471  0.1369
31763W        W47232   6.982   3.201  14.002  0.2699 -0.0242  0.1353
31764W        W47233  12.843  11.170  11.843  0.3867 -0.1684  0.3148
31765W        W47234   6.818   2.951   3.678  0.0403 -0.0989  0.0728
31766W        W47235   5.887  15.332  11.032 -0.0450 -0.0211  0.0100
31767W        W47236  13.067  10.898  13.689 -0.1016  0.2384  0.1088
31768W        W47237   6.367  17.589   2.184 -0.0556  0.0635  0.2133
31769W        W47238  14.340   6.839  11.666  0.0796  0.2818 -0.1012
31770W        W47239   7.724  17.980  15.316  0.1595 -0.1265  0.1262
31771W        W47240  18.022   5.983   5.777 -0.1239  0.1555  0.0955
31772W        W47241   8.144   3.520  12.288  0.1172 -0.1928 -0.0433
31773W        W47242   9.965   8.306  15.472 -0.0450  0.1126  0.2924
31774W        W47243  14.177  14.993   3.356  0.0237  0.0621  0.0986
31775W        W47244   5.088   4.048   5.598  0.2193 -0.1975 -0.3865
31776W        W47245  10.327  11.255   1.351  0.1263  0.0969  0.1323
31777W        W47246  17.977   0.367   3.044 -0.1889  0.2822  0.1679
31778W        W47247   6.189  12.258   0.364 -0.1452 -0.0015  0.1020
31779W        W47248   2.273  13.016   5.353  0.1956 -0.5231  0.1130
31780W        W47249   2.976   3.906   3.491 -0.2678  0.0557 -0.3423
31781W        W47250  18.260  11.541   1.718 -0.1366  0.1407 -0.1984
31782W        W47251  12.552  15.978  12.379 -0.2916  0.2076 -0.1850
31783W        W47252  13.307   7.176  11.989  0.2382  0.0079  0.1893
31784W        W47253  11.808   3.169   0.720 -0.1972  0.2426 -0.1430
31785W        W47254   5.706  11.085   3.846 -0.0312 -0.0576 -0.0287
31786W        W47255   3.810   9.950   2.863 -0.0249  0.0062 -0.0180
31787W        W47256  15.832   6.890  10.915 -0.3343 -0.4425 -0.0164
31788W        W47257  10.049   4.445   1.554  0.1492  0.0470 -0.3024
31789W        W47258  11.632  12.938   0.792  0.0725  0.1149  0.0758
31790W        W47259   7.866  15.814  11.338 -0.1629 -0.2759  0.2473
31791W        W47260  13.225   8.067   0.562 -0.1273  0.1691 -0.0245
31792W        W47261   3.877   8.084   2.706  0.2553 -0.2025  0.2527
31793W        W47262  13.886   7.271   4.434 -0.1581  0.0223  0.2008
31794W        W47263   5.061   1.635   4.903  0.0507  0.1433 -0.0115
31795W        W47264   5.929  12.224  13.401 -0.0696  0.0761 -0.2824
31796W        W47265   3.850  18.467   0.050  0.1101  0.1165  0.1395
31797W        W47266   4.307  16.922   1.702  0.1293 -0.1320 -0.0327
31798W        W47267   5.116   0.619   1.052 -0.2802  0.0520  0.2249
31799W        W47268   1.604  16.617   4.525  0.0209 -0.1244 -0.1039
31800W        W47269   0.559  15.464   4.038  0.0482  0.0703 -0.2298
31801W        W47270   6.264   2.933   0.761 -0.2695 -0.1109  0.1334
31802W        W47271   4.181  16.737  13.263 -0.0973 -0.1099 -0.0575
31803W        W47272   9.985  11.243  15.876 -0.0535  0.0692 -0.2521
31804W        W47273   5.497   6.396   1.289 -0.2639 -0.1574 -0.0054
31805W        W47274   3.172   6.055   1.411  0.1338 -0.1144  0.3536
31806W        W47275   1.729   2.975   0.561  0.1858 -0.0983  0.1352
31807W        W47276   9.199   0.207  14.722 -0.0671  0.0864  0.2982
31808W        W47277   4.837  15.587   0.182 -0.0154 -0.2915  0.1232
31809W        W47278   4.277   4.492   9.795 -0.0181 -0.1812 -0.2909
31810W        W47279   7.504  15.487   4.082 -0.1482 -0.2316 -0.1071
31811W        W47280  16.808   8.482  12.656 -0.1529  0.1143  0.0828
31812W        W47281   7.850   5.861   3.747 -0.3515 -0.4551  0.1207
31813W        W47282  14.747   0.396   1.798  0.1601  0.2028  0.0488
31814W        W47283   5.427  11.725  11.097  0.2712 -0.0677  0.2562
31815W        W47284   8.877   1.564  14.880  0.0567 -0.0462 -0.2347
31816W        W47285  13.853  11.496   4.527  0.0062 -0.0799 -0.2258
31817W        W47286   3.458  18.044   3.415 -0.0356  0.0287 -0.1354
31818W        W47287   0.896   1.895   4.422 -0.0665  0.0818  0.0617
31819W        W47288  17.950   6.859   1.794 -0.3970 -0.1261 -0.2215
31820W        W47289   4.332  15.108  14.369  0.1633  0.2750 -0.0587
31821W        W47290   2.576  12.544   0.313 -0.0758 -0.0170  0.3098
31822W        W47291  17.764  11.454  10.991  0.3023 -0.0540 -0.3726
31823W        W47292   8.659   1.921   0.083 -0.1199  0.0881 -0.0130
31824W        W47293  12.101  12.579   2.621  0.2012  0.1808 -0.1971
31825W        W47294   6.607  11.336   5.831 -0.0391  0.1745 -0.2045
31826W        W47295   7.682  15.003  13.811  0.0187 -0.0503 -0.2802
31827W        W47296   3.188  15.572   2.967  0.3234 -0.1732  0.0127
31828W        W47297  11.404   1.307   2.439 -0.0520 -0.1184 -0.0212
31829W        W47298   4.522   3.203   5.307 -0.0803  0.0329 -0.1311
31830W        W47299  15.144   6.287  15.800  0.0586 -0.0606 -0.0263
31831W        W47300  17.840   4.396   2.709  0.2429 -0.0205 -0.2704
31832W        W47301   2.029  11.155  15.692 -0.2839  0.1049  0.2322
31833W        W47302  11.164   4.928  12.145  0.0767  0.2198 -0.1486
31834W        W47303   6.448   5.044   0.314 -0.3659  0.0474  0.2876
31835W        W47304  15.819  18.126   2.653  0.0253  0.0680  0.1220
31836W        W47305   1.712   2.457   4.705 -0.2873  0.2716  0.2831
31837W        W47306   4.787  12.389   2.465  0.1458  0.2414  0.0385
31838W        W47307  17.798   2.876  15.245 -0.1532  0.0858  0.0016
31839W        W47308  16.490   0.421  12.251 -0.2095 -0.2743 -0.0289
31840W        W47309  17.624   3.709   4.958  0.1479 -0.2594 -0.0734
31841W        W47310  17.742  14.028  11.634  0.0069  0.2330  0.1656
31842W        W47311   3.384  12.015  12.014 -0.0513  0.1264  0.1517
31843W        W47312  11.569   4.451  12.943 -0.3446 -0.0385 -0.0800
31844W        W47313  17.673  18.366   2.290 -0.1834  0.0863  0.2387
31845W        W47314   4.032  17.594  11.040  0.0996 -0.0827  0.2466
31846W        W47315   4.339   4.474   4.310 -0.0575 -0.0846 -0.0072
31847W        W47316  14.576   2.889  10.879  0.0730  0.1045 -0.0284
31848W        W47317   1.862  10.720  12.967 -0.0962  0.1366 -0.1331
31849W        W47318   4.006   1.789  12.482 -0.1068  0.2794  0.1702
31850W        W47319   6.626   8.780   2.605 -0.0625  0.3582 -0.4260
31851W        W47320   2.167   3.119  15.107  0.4040  0.0930 -0.0234
31852W        W47321   9.964   2.274  14.548  0.0589  0.3515 -0.2083
31853W        W47322  10.865   2.646  15.678  0.1193 -0.1196 -0.0952
31854W        W47323   8.419  15.312   3.790  0.3176  0.3101  0.1706
31855W        W47324  14.622   0.091  14.935 -0.1641 -0.1198 -0.2035
31856W        W47325  16.377   5.133  15.027  0.3049 -0.0889  0.0468
31857W        W47326  16.395   2.470   4.891 -0.3247 -0.0113  0.0641
31858W        W47327  14.768   7.180   1.452 -0.0401  0.1215 -0.0192
31859W        W47328  17.868  16.409  15.739 -0.1979  0.0640 -0.0382
31860W        W47329   1.250  15.083  11.342 -0.3369  0.1672 -0.0679
31861W        W47330  13.360  11.374   0.434 -0.2988 -0.0900 -0.0856
31862W        W47331  13.884  13.262  14.122 -0.0909 -0.2917  0.1242
31863W        W47332   4.863   2.996  14.213  0.4078  0.0822  0.1372
31864W        W47333   6.140   0.457  14.802  0.1096 -0.0927 -0.1981
31865W        W47334  15.756   5.916  10.743 -0.0302 -0.2097 -0.1570
31866W        W47335  17.579  18.269   0.977 -0.3924 -0.3458 -0.0207
31867W        W47336  12.379   2.967   4.106 -0.2521  0.1786 -0.2040
31868W        W47337   2.578   0.181   3.655  0.0913  0.1405  0.1181
31869W        W47338  12.298  17.101   1.206  0.2710 -0.1133 -0.1272
31870W        W47339   8.998   1.045  14.839  0.0664  0.3447  0.1316
31871W        W47340   3.995  15.399   2.300 -0.0952 -0.2088  0.0458
31872W        W47341   9.097  14.839   2.083  0.1974  0.1074  0.1348
31873W        W47342  15.068   9.164  12.213  0.0747 -0.1656 -0.0013
31874W        W47343   5.336  17.448   0.459 -0.0677 -0.0562 -0.0242
31875W        W47344  12.636  13.921   3.389  0.3880  0.0384 -0.3418
31876W        W47345  15.537   9.187  15.189  0.0920  0.0500  0.0709
31877W        W47346   3.016  18.262  13.541  0.1265  0.3918  0.1527
31878W        W47347  12.971   6.000  14.731  0.0771 -0.0144 -0.1269
31879W        W47348   2.612   4.978  14.272  0.2693 -0.0664 -0.1629
31880W        W47349   6.370   5.213   0.838  0.1059 -0.1063 -0.0962
31881W        W47350  14.968  15.668   5.702  0.1091 -0.0019 -0.1852
31882W        W47351  12.034  16.543  11.745  0.0277  0.3430 -0.3359
31883W        W47352   4.752   5.634  10.841 -0.1981  0.4377  0.1109
31884W        W47353   6.050   0.037  12.006 -0.3115 -0.0374 -0.0543
31885W        W47354  10.400  18.035  13.895  0.0763  0.2000  0.0276
31886W        W47355   2.040   4.299   2.711  0.1084  0.1446 -0.1684
31887W        W47356   7.787  10.217  13.389 -0.1123  0.1291  0.0667
31888W        W47357  12.644  16.126   5.166  0.1255  0.0167 -0.0115
31889W        W47358   1.839   8.281   2.884  0.3733 -0.1117 -0.1546
31890W        W47359   5.901   0.472   3.949  0.0275  0.1895 -0.0236
31891W        W47360   0.684   8.514  12.364 -0.0366  0.1201  0.1444
31892W        W47361  17.224   6.124   5.362  0.2157 -0.1607 -0.1243
31893W        W47362   3.034  10.850   1.262 -0.0408 -0.1008 -0.0331
31894W        W47363   2.066   7.604   2.257 -0.0425 -0.1476  0.0248
31895W        W47364   6.673   1.743  15.754  0.2627 -0.4969 -0.4448
31896W        W47365   5.017   0.064   3.690  0.2641 -0.2740  0.1144
31897W        W47366   0.145  13.096   2.469 -0.1818  0.1258  0.2101
31898W        W47367  10.210   6.922   0.536  0.0757  0.3663  0.2540
31899W        W47368  16.331   9.785   4.517 -0.1285  0.2032  0.3381
31900W        W47369   1.199   3.525  14.075  0.2624  0.4486  0.1767
31901W        W47370   4.020  18.351  13.887 -0.0372  0.1342 -0.0201
31902W        W47371  10.955   5.162  12.519  0.0250 -0.0417 -0.1706
31903W        W47372   2.364  15.343  14.085  0.2192  0.3278  0.0859
31904W        W47373   4.292  13.255   1.097  0.1262 -0.1096  0.0037
31905W        W47374   7.211   4.910   4.730  0.0108 -0.0382 -0.1620
31906W        W47375  13.825  15.550  14.326 -0.0427  0.0727 -0.2424
31907W        W47376  12.159   8.149   5.039 -0.1796 -0.2237 -0.1490
31908W        W47377   0.619  13.106  11.805  0.0873 -0.4094  0.0912
31909W        W47378   2.580  13.840   2.815 -0.1177 -0.0531  0.0124
31910W        W47379  12.039  14.945   2.524 -0.2030 -0.1047 -0.2204
31911W        W47380   8.929  13.266  11.128 -0.0631 -0.0628 -0.2253
31912W        W47381  17.369   1.677   2.315  0.2789 -0.1195  0.3875
31913W        W47382   9.213  10.307  12.095  0.0826  0.0422 -0.1460
31914W        W47383   4.479  12.420   4.199 -0.0844  0.0003  0.1218
31915W        W47384   5.302  12.371   2.585 -0.1487 -0.2899  0.1190
31916W        W47385   7.779  16.186  15.746 -0.2588 -0.2906 -0.1824
31917W        W47386  17.967   4.537   3.285 -0.0361 -0.0166 -0.0484
31918W        W47387   5.496  15.385  13.973 -0.2577 -0.2960 -0.3839
31919W        W47388   4.717   2.585   0.538 -0.0190  0.2976 -0.0216
31920W        W47389  12.953   7.938   3.145 -0.0869 -0.1637 -0.3482
31921W        W47390  15.040  15.684  13.704  0.2471 -0.0343  0.0456
31922W        W47391  17.199   9.127  11.121 -0.0871  0.0811  0.0087
31923W        W47392   7.891   5.674  11.276 -0.1749  0.0754 -0.0299
31924W        W47393  13.723   6.679  14.165  0.1932 -0.0127 -0.4869
31925W        W47394   8.129   5.777  10.807 -0.0813 -0.1397 -0.1167
31926W        W47395  17.705   9.797  10.010  0.0771  0.0087  0.1085
31927W        W47396   6.794  12.534  11.463 -0.0292 -0.4117 -0.1215
31928W        W47397  15.809   2.806  14.389  0.1611  0.1843 -0.0022
31929W        W47398   4.425  15.670   6.526  0.3333  0.1344 -0.3508
31930W        W47399   8.467   4.553  11.334 -0.1995  0.0569  0.0410
31931W        W47400  17.041   1.344   2.538  0.2533 -0.1728  0.4452
31932W        W47401  12.347   6.727  13.657  0.1506  0.1851 -0.1687
31933W        W47402   9.472   4.197   4.164  0.1028 -0.1402  0.0541
31934W        W47403   9.587  15.984  10.555  0.0673  0.3379 -0.0703
31935W        W47404   8.976   7.884   5.023 -0.2201  0.2143  0.0435
31936W        W47405  15.110   1.695  10.223  0.0847  0.0780 -0.1610
31937W        W47406   5.321   9.354   2.169 -0.0469  0.0902  0.1105
31938W        W47407  18.217   2.758  13.164  0.2115 -0.2580  0.1382
31939W        W47408   9.001  12.366   2.682 -0.0123 -0.0655 -0.2956
31940W        W47409   5.950   7.914   5.073  0.0468 -0.0224 -0.1165
31941W        W47410   4.084   1.808  15.800 -0.0365  0.1191 -0.0947
31942W        W47411  16.671   9.143   1.387 -0.0047 -0.1120  0.2403
31943W        W47412   0.018   5.551   4.735  0.3345 -0.0956  0.0658
31944W        W47413  15.042  13.010  11.154  0.2264 -0.2214  0.0337
31945W        W47414   5.653   0.186   4.279  0.1443  0.2135 -0.1620
31946W        W47415   4.700  12.625  15.387 -0.2545  0.0507  0.0796
31947W        W47416  11.323   4.631   2.074  0.2495 -0.3277 -0.0515
31948W        W47417  17.869  10.340   3.083  0.0480  0.1538 -0.3263
31949W        W47418   9.794   6.813   4.349 -0.1601 -0.3058  0.0109
31950W        W47419   1.756  14.800  10.743  0.0486 -0.1258 -0.0635
31951W        W47420   9.757   5.311   1.113 -0.1441 -0.1266  0.3804
31952W        W47421  14.364  17.451  15.822 -0.1212  0.0214 -0.0629
31953W        W47422  16.393   2.822   3.549 -0.2648 -0.0783 -0.2070
31954W        W47423  11.279   0.295   1.691 -0.0498  0.0648  0.0366
31955W        W47424   0.375   6.755   1.725 -0.0685 -0.0896  0.0886
31956W        W47425  13.445   0.867   3.762  0.0300  0.1366 -0.0494
31957W        W47426   4.184  13.460  10.390  0.5604  0.1140 -0.0289
31958W        W47427   3.426   2.661   3.704 -0.0177 -0.0500  0.0600
31959W        W47428  15.419   1.249   0.127 -0.1482  0.1177 -0.0918
31960W        W47429   3.020   2.315   4.549 -0.0336  0.1270 -0.1474
31961W        W47430   1.119   9.315  13.180  0.0918 -0.3015  0.1009
31962W        W47431   3.243   4.506   4.610 -0.0707  0.0160  0.0141
31963W        W47432  13.136   1.419   5.003  0.1698  0.3948 -0.4717
31964W        W47433  15.291  11.182  15.466  0.0603 -0.0442  0.0218
31965W        W47434  14.510  10.906  12.634  0.2801 -0.0098 -0.3235
31966W        W47435   6.260  13.398   1.229 -0.4336 -0.1374 -0.0179
31967W        W47436   9.726   6.680   0.461 -0.0405  0.3698 -0.0712
31968W        W47437  17.020  16.975  13.878 -0.2031 -0.4777 -0.0056
31969W        W47438   6.303   4.453   3.936 -0.3762 -0.1336  0.1098
31970W        W47439   2.472  15.405  12.573 -0.1893 -0.0060  0.3223
31971W        W47440  11.969  10.902   5.423 -0.0212 -0.0635  0.3898
31972W        W47441   1.914  16.756  14.441 -0.2565 -0.3139  0.0500
31973W        W47442  11.207  14.685  12.291  0.0958 -0.2125  0.1349
31974W        W47443   7.497  11.213   2.147  0.2229  0.1586  0.4513
31975W        W47444   6.323  16.257   3.178 -0.1558 -0.0115  0.1750
31976W        W47445   3.293  16.281   5.037 -0.2319  0.0687  0.1313
31977W        W47446   5.090   9.381   3.447  0.0676  0.0645 -0.0730
31978W        W47447   2.671   2.957  15.471 -0.1156  0.2400 -0.1749
31979W        W47448   4.587  15.587  11.589 -0.0906  0.3776 -0.1073
31980W        W47449   5.791   4.478  13.395  0.0021  0.0092  0.0396
31981W        W47450  13.269  10.683  12.878 -0.2067 -0.1415  0.0359
31982W        W47451  12.478  10.241  14.135  0.2209 -0.1766 -0.0421
31983W        W47452   3.988   7.872  10.268 -0.1364  0.0260  0.2700
31984W        W47453  11.622   5.714  15.254  0.0233  0.1143 -0.3231
31985W        W47454  10.637   2.084   0.952  0.0228 -0.3243  0.0427
31986W        W47455   8.123   1.641  12.464 -0.1312  0.0025 -0.1540
31987W        W47456  16.631   2.790   2.474 -0.1986 -0.1928 -0.0207
31988W        W47457   9.644  12.188  14.731 -0.1795 -0.0302 -0.0721
31989W        W47458   4.434   7.274   3.092 -0.0918  0.1791 -0.1408
31990W        W47459  15.946  14.771  15.680  0.1536  0.2268  0.0261
31991W        W47460   5.652   9.090   1.505 -0.0358  0.3433  0.0634
31992W        W47461   6.320  17.579   0.178 -0.1519 -0.1163 -0.0963
31993W        W47462  15.051   1.909  13.620 -0.0979  0.0020  0.0402
31994W        W47463  17.727   0.402  15.632  0.2724  0.1414  0.1437
31995W        W47464  13.308  15.381   4.481 -0.1383 -0.0474  0.0589
31996W        W47465  14.795   6.857   4.602 -0.1447  0.3567 -0.3222
31997W        W47466   1.133  10.410   1.095  0.0009 -0.1095  0.1335
31998W        W47467  11.701   0.484   5.073 -0.3874  0.1719  0.0623
31999W        W47468   3.024   0.507   0.066  0.0174 -0.0790 -0.1332
32000W        W47469  16.648   1.345   5.587 -0.1640  0.1126  0.3653
32001W        W47470  17.782  13.231   3.326 -0.0542 -0.1306 -0.0844
32002W        W47471  13.387  11.623   1.819  0.1645  0.1144  0.2231
32003W        W47472   4.204   7.768   2.964  0.1678  0.0643 -0.1593
32004W        W47473  10.093  13.270  15.462  0.2544 -0.0939  0.0455
32005W        W47474  15.449  16.166   0.964  0.1199  0.0001 -0.3654
32006W        W47475  11.552   8.827  14.740 -0.0192 -0.1469 -0.1441
32007W        W47476   3.015  13.689  15.324 -0.0402  0.0744 -0.1118
32008W        W47477   6.993  15.245   0.518  0.3495  0.0575 -0.3201
32009W        W47478   8.042   2.388   1.488  0.4367 -0.1370  0.1218
32010W        W47479  18.336  12.438  12.681 -0.2620  0.0112  0.2100
32011W        W47480   3.422   4.240  15.433 -0.3888  0.1855 -0.3528
32012W        W47481  14.323   8.847   0.874  0.2086  0.1505  0.1141
32013W        W47482   7.284   3.757   3.201  0.0293 -0.2135  0.2483
32014W        W47483   2.499   6.494   2.943  0.1140 -0.1711  0.1526
32015W        W47484  14.330   2.552  10.571 -0.0313  0.1564  0.0477
32016W        W47485  11.040  15.537  14.350 -0.1496  0.0985 -0.2474
32017W        W47486   5.775   1.777   3.784  0.1913 -0.0505  0.0459
32018W        W47487   0.844  15.268  15.100  0.0248 -0.1531 -0.2688
32019W        W47488   9.448  16.958  14.439 -0.3416  0.0001 -0.1061
32020W        W47489  10.953   5.923  11.935 -0.0053 -0.3530 -0.0012
32021W        W47490   3.467  14.666   4.018  0.1061  0.5556 -0.1746
32022W        W47491  10.714   3.168   6.106 -0.1262 -0.1606  0.0920
32023W        W47492  14.439   0.285   3.369  0.1243  0.2442  0.2266
32024W        W47493  13.067  10.899   2.268  0.1984  0.0487 -0.2039
32025W        W47494   1.203  13.713  12.992 -0.1801 -0.2652 -0.0108
32026W        W47495   4.908   7.302   2.305  0.2496  0.1782  0.2261
32027W        W47496   7.138  12.514   5.466 -0.3284  0.1100  0.0006
32028W        W47497  15.645   7.232  11.530  0.0301  0.1462 -0.0312
32029W        W47498   6.084   2.774  12.124  0.0471  0.0076  0.0362
32030W        W47499  12.887  11.677   2.802  0.0206  0.2723  0.0415
32031W        W47500  18.239  13.078   0.294 -0.1658  0.2240 -0.3395
32032W        W47501   2.989   4.357   1.791  0.0917  0.2265 -0.5670
32033W        W47502   8.652   6.158  12.528  0.0190  0.0286 -0.1146
32034W        W47503   4.413   7.372   0.183  0.1162 -0.2895 -0.0309
32035W        W47504   2.037  10.940   2.314  0.1089  0.0059  0.1929
32036W        W47505   7.263   8.841   3.896 -0.1920  0.1676  0.1134
32037W        W47506  13.095   3.150   0.917  0.1499 -0.1044  0.1899
32038W        W47507  11.358  13.806   4.015 -0.0543  0.0323  0.2558
32039W        W47508   7.685   9.973  14.377 -0.1868  0.2268 -0.0870
32040W        W47509   4.803  17.209  11.593 -0.2457 -0.1180 -0.1503
32041W        W47510  11.123  13.537   2.040 -0.1204  0.1813  0.1945
32042W        W47511  18.090   5.442  11.998  0.0898 -0.0681  0.2929
32043W        W47512   3.984   9.899  12.869 -0.2026 -0.3577 -0.1698
32044W        W47513  15.449  12.370  15.013 -0.0746 -0.1047  0.0718
32045W        W47514  15.360   3.877   3.363  0.1765  0.0407 -0.0602
32046W        W47515   0.294  12.842   3.771  0.0707 -0.0370  0.1611
32047W        W47516   4.045  18.390  14.682 -0.3660 -0.0781 -0.1288
32048W        W47517  10.530  16.531   4.236  0.1819  0.1086  0.0857
32049W        W47518  17.517   5.465   9.857  0.0140 -0.1333 -0.2704
32050W        W47519   6.759   5.495   1.736  0.0419 -0.1292 -0.0780
32051W        W47520  15.002  17.303   5.817  0.0811  0.1056 -0.3547
32052W        W47521  14.267  11.782   4.555  0.2653  0.0638 -0.0950
32053W        W47522   2.300  15.439  13.122  0.0986 -0.3175  0.1323
32054W        W47523  17.284   9.441  12.038  0.0573  0.2170 -0.1349
32055W        W47524   2.609   9.661   1.737 -0.1127 -0.2131  0.2229
32056W        W47525   6.120   8.656  11.695 -0.1039 -0.1602  0.2056
32057W        W47526   9.580   5.731   2.889 -0.1495  0.2412  0.4005
32058W        W47527  12.875  16.742   5.328  0.2758  0.1025 -0.4479
32059W        W47528   6.684   7.903   4.499 -0.0823  0.2663 -0.1527
32060W        W47529   7.761  12.199  13.061 -0.0346 -0.2501  0.1627
32061W        W47530  18.339  16.098   5.157  0.1048  0.0969  0.1045
32062W        W47531  14.463  11.015   4.047  0.0427  0.2393 -0.0032
32063W        W47532  17.521   2.250  11.044  0.0249  0.1305 -0.0138
32064W        W47533  17.810  12.544  14.904  0.0436 -0.0407 -0.0704
32065W        W47534  10.785  15.290   1.130  0.0307  0.2139  0.4157
32066W        W47535   9.001  15.389  12.210 -0.2711  0.3818 -0.0036
32067W        W47536   4.619   3.682  14.610  0.0667  0.1200  0.0237
32068W        W47537  17.121  17.723   0.353  0.0903 -0.1973  0.0369
32069W        W47538   0.584   8.464   2.923  0.1380  0.0071 -0.0964
32070W        W47539  18.350  14.757  14.316  0.1947 -0.1672 -0.1007
32071W        W47540  18.221  11.036  11.342  0.0133  0.2913 -0.0372
32072W        W47541  13.914   2.760   0.823 -0.0768  0.1644 -0.0781
32073W        W47542  14.519   6.979  15.444  0.0117 -0.0243  0.2149
32074W        W47543  14.664   7.652  12.997 -0.0254  0.2357  0.0196
32075W        W47544   9.738   8.730  15.376  0.2130  0.2483  0.0326
32076W        W47545   9.080   6.381  14.377 -0.0783 -0.1571 -0.2396
32077W        W47546   8.791  17.935   4.140  0.2308 -0.1452  0.1020
32078W        W47547  16.223   3.937  13.640  0.0096 -0.0320 -0.2656
32079W        W47548  14.595  11.350  15.872 -0.0183 -0.1374 -0.1824
32080W        W47549   4.925   8.930  13.383  0.2005 -0.0303 -0.4959
32081W        W47550  10.745  16.443   0.339 -0.0329  0.2551 -0.2437
32082W        W47551  14.660  13.885  13.713  0.0500  0.5048  0.1946
32083W        W47552  18.264  17.203  12.735  0.2042 -0.2260  0.1758
32084W        W47553   4.533   8.873   0.722  0.1468  0.1036 -0.0865
32085W        W47554  10.881   2.039  11.408 -0.0302  0.1888  0.0127
32086W        W47555   4.010   0.767  12.258 -0.0140  0.1280  0.1219
32087W        W47556   9.125  18.442   0.780 -0.3926 -0.1288  0.0110
32088W        W47557   1.543  12.948  10.782  0.3351  0.3140  0.0077
32089W        W47558   8.867  17.792   2.437 -0.1041  0.2530  0.0355
32090W        W47559  17.751  15.572  11.856 -0.5005  0.2084 -0.3110
32091W        W47560   3.589   9.934  12.216 -0.0060  0.1907  0.0771
32092W        W47561  16.960  13.101  13.483 -0.0633  0.0722 -0.1223
32093W        W47562  17.507   2.444   0.174 -0.5229 -0.1035 -0.0010
32094W        W47563   6.554   7.585  15.847  0.1245  0.1707  0.0828
32095W        W47564  15.761   7.256  12.069 -0.0400 -0.4220 -0.0993
32096W        W47565  13.968  13.815   4.465  0.2195  0.2805  0.1005
32097W        W47566  15.043   5.470   1.609 -0.3235  0.0428  0.4128
32098W        W47567   8.683   3.587  14.489 -0.2060  0.2607 -0.4128
32099W        W47568   0.262   9.907   3.130 -0.1868  0.2011 -0.3249
32100W        W47569   0.871  17.231   5.676 -0.0384 -0.1114  0.6272
32101W        W47570   7.009   1.421  10.483 -0.2410 -0.0702  0.0775
32102W        W47571  10.577  17.727   3.827 -0.1417  0.0841  0.2625
32103W        W47572  16.343  16.272  15.494 -0.1242 -0.2115  0.1350
32104W        W47573  12.950   8.899   4.150 -0.0112 -0.0022  0.3210
32105W        W47574  17.806   9.150   1.605 -0.2107  0.0754 -0.0654
32106W        W47575  17.998   9.589   4.168 -0.0186 -0.1431  0.2668
32107W        W47576  17.085   6.603  11.502 -0.1958  0.1699 -0.0891
32108W        W47577  13.823   7.915  15.634 -0.2128 -0.0916 -0.2129
32109W        W47578  14.843   4.343  12.435 -0.0389 -0.2085 -0.0475
32110W        W47579   8.355   4.908  15.060 -0.1392 -0.0285  0.0455
32111W        W47580  11.907  12.898   2.164  0.2234  0.1208 -0.2903
32112W        W47581   7.514   1.454  13.159 -0.3405  0.1683  0.1649
32113W        W47582   8.890  17.804  14.257  0.3022  0.0249 -0.0427
32114W        W47583   4.974   8.669  13.967  0.0126  0.0707  0.0297
32115W        W47584  13.013  17.601  15.404 -0.2064 -0.1389  0.2361
32116W        W47585   6.847  12.992   0.563 -0.2046  0.0606 -0.0314
32117W        W47586   3.595  18.203   1.347  0.0574 -0.2193 -0.4066
32118W        W47587   0.598   2.000   1.151  0.1546 -0.0098 -0.2694
32119W        W47588   0.264   7.557   4.599 -0.4286  0.2705 -0.0194
32120W        W47589  13.781  10.613  14.231  0.2402 -0.1839 -0.1713
32121W        W47590  10.073   5.265   0.602  0.2402 -0.4924  0.0657
32122W        W47591   2.659  13.815  13.574 -0.4114  0.0153 -0.1047
32123W        W47592   9.025  12.988   1.555 -0.0680 -0.0286 -0.0904
32124W        W47593   3.171   7.915   0.450  0.1087 -0.1158 -0.2087
32125W        W47594  17.968   7.492   4.238 -0.1791 -0.0094  0.0863
32126W        W47595   2.071   8.365  13.937 -0.2039 -0.1755 -0.2926
32127W        W47596  17.701   4.065  14.425 -0.1012 -0.0446  0.0920
32128W        W47597  16.627   5.231   4.640 -0.2450  0.1332 -0.1309
32129W        W47598  13.604  11.851  10.468 -0.0265  0.1865 -0.4412
32130W        W47599   0.799   5.558   4.806 -0.0130 -0.0932  0.2990
32131W        W47600  12.465  14.059   1.552  0.2489  0.2159 -0.2431
32132W        W47601   3.903   6.048   0.579 -0.0580 -0.1460  0.0157
32133W        W47602   2.438   6.708   2.415 -0.0991  0.0105  0.0490
32134W        W47603  14.820   7.954   3.065 -0.2981 -0.3494  0.0746
32135W        W47604  10.760   8.186  15.184  0.0493  0.0748 -0.1454
32136W        W47605  11.656  13.320   3.171 -0.0353 -0.0755  0.1881
32137W        W47606  16.023   9.085   3.301  0.2895 -0.0499  0.1079
32138W        W47607   5.001  15.815   3.133  0.0183 -0.1377  0.2758
32139W        W47608   1.393  15.717  11.496  0.1863 -0.1151  0.2581
32140W        W47609  13.525  10.773   1.252 -0.0462 -0.0907  0.0440
32141W        W47610  14.230  13.456  13.027 -0.3649 -0.0372  0.1080
32142W        W47611   4.338  18.195   9.877  0.0385 -0.1612 -0.1568
32143W        W47612   3.495   8.135   4.672 -0.1399  0.1596  0.3198
32144W        W47613   1.357  13.192   4.331  0.1404 -0.2001 -0.0289
32145W        W47614   8.507   9.882  14.576 -0.2640 -0.1141 -0.0948
32146W        W47615  12.135   5.695   1.998 -0.0388 -0.0655 -0.0113
32147W        W47616  13.978   6.086  11.810 -0.2818  0.1277  0.0472
32148W        W47617  15.940   9.816  12.713  0.0303  0.1215  0.0979
32149W        W47618  10.949   4.706   3.307 -0.0179 -0.4851  0.1120
32150W        W47619   6.085   1.323  11.705  0.1212 -0.4036 -0.3398
32151W        W47620  15.203  17.381  13.623 -0.1489  0.0613 -0.2765
32152W        W47621   8.555  11.016  12.988 -0.2253  0.2747 -0.0411
32153W        W47622  14.976  10.199   4.818 -0.1313  0.1580 -0.0407
32154W        W47623  15.492   7.486  15.800 -0.0016  0.2256 -0.0389
32155W        W47624  15.162  11.190  12.891 -0.0709 -0.0258 -0.1645
32156W        W47625   2.774  17.314  12.132 -0.1072  0.0469  0.1159
32157W        W47626   9.650   1.762  13.501 -0.0778 -0.1017 -0.0345
32158W        W47627  14.607  10.249   5.867  0.0470  0.0779 -0.2316
32159W        W47628   5.066  13.248  13.078 -0.0005 -0.0201  0.3346
32160W        W47629  14.696  10.025  12.471 -0.1005  0.2437 -0.0451
32161W        W47630   4.396  15.229  14.890  0.1037  0.0109 -0.1007
32162W        W47631  13.426   8.475   5.555 -0.1998 -0.0628 -0.1198
32163W        W47632   6.297  16.461  12.845 -0.0347  0.1033 -0.0934
32164W        W47633   9.197  18.251   4.063 -0.2477  0.1776  0.5503
32165W        W47634  18.210   6.525  14.222 -0.3308 -0.1461 -0.0923
32166W        W47635   0.476   2.476  11.528 -0.0211 -0.0909  0.0098
32167W        W47636  17.809  15.042   0.107  0.3210 -0.4738  0.0784
32168W        W47637  13.872   7.301  12.721  0.2409  0.2353 -0.0431
32169W        W47638  10.460  14.678   4.007 -0.0317  0.3347  0.1883
32170W        W47639   8.911  17.969  10.711  0.3051 -0.2276  0.1859
32171W        W47640   1.928  12.851   0.057  0.0938 -0.1982  0.1652
32172W        W47641   1.547  12.901   1.711 -0.2650  0.1349  0.1646
32173W        W47642   6.656  12.663   4.609  0.1689  0.1536 -0.2349
32174W        W47643   6.243  17.843  12.032 -0.0741 -0.0838  0.2229
32175W        W47644   6.932   3.367   4.597 -0.0469 -0.0841  0.1988
32176W        W47645  15.741   9.603   3.627  0.2564 -0.1049  0.0730
32177W        W47646  11.346   6.600  12.322  0.0226 -0.2013  0.1089
32178W        W47647   8.534  10.401   0.677  0.1519  0.1449 -0.1008
32179W        W47648   1.258  16.667  15.846 -0.0139 -0.0466  0.2133
32180W        W47649   8.799  17.916   6.546 -0.0596  0.0514  0.0326
32181W        W47650   6.915  16.282   3.269 -0.1823  0.5432  0.1190
32182W        W47651  17.367  13.405  10.854  0.2468 -0.0538 -0.0720
32183W        W47652   1.326   8.933  15.537  0.0354 -0.1187  0.2562
32184W        W47653  10.950   9.136  12.200 -0.0428 -0.1915 -0.3909
32185W        W47654   0.425   9.766  11.723  0.1689 -0.2076 -0.1659
32186W        W47655  14.222   0.693   3.139  0.1159  0.0941  0.0754
32187W        W47656  17.127   6.465  13.232  0.2333  0.4201  0.0688
32188W        W47657   9.004  11.472   6.120 -0.0073 -0.1411 -0.0999
32189W        W47658  13.432   6.891   1.763 -0.3216 -0.0099 -0.1991
32190W        W47659   0.364   3.987   2.676 -0.0490  0.3038  0.1508
32191W        W47660  14.079  11.062   0.061  0.0578  0.0451  0.1186
32192W        W47661  12.246  12.966   3.700 -0.0945 -0.0513 -0.0355
32193W        W47662   4.999   6.362   2.503 -0.2989 -0.0521 -0.0018
32194W        W47663  18.032   9.663  13.934 -0.1559 -0.0518 -0.1215
32195W        W47664   0.035   4.482   0.013 -0.1192 -0.0517 -0.0276
32196W        W47665  16.440  12.228   0.257 -0.1143 -0.0985  0.1117
32197W        W47666  15.707   3.540   3.441  0.2170 -0.2251  0.2932
32198W        W47667  12.150  12.570  12.406 -0.1416  0.1321  0.1926
32199W        W47668  11.428  17.749  15.060 -0.0984 -0.1309  0.0454
32200W        W47669   4.203   3.256  12.453 -0.1390  0.1628 -0.2118
32201W        W47670  15.726   6.623  13.998  0.0542  0.1757 -0.0041
32202W        W47671   1.853  13.751  14.369  0.0818 -0.0222 -0.2318
32203W        W47672  14.759  16.539   1.378  0.0571 -0.1156 -0.0263
32204W        W47673   9.244   3.269  13.379  0.0160  0.1597  0.2237
32205W        W47674   6.302  12.365   2.557  0.0197  0.0063 -0.0456
32206W        W47675   9.015   7.720  14.948 -0.3394 -0.0011  0.0693
32207W        W47676   2.579  15.237   3.242 -0.1187 -0.2158 -0.1400
32208W        W47677   6.546   1.412  14.379  0.0291 -0.0897  0.3324
32209W        W47678   8.063   6.833   0.989  0.0646 -0.3774 -0.0325
32210W        W47679  11.672  10.667  14.817 -0.2278 -0.0367  0.4050
32211W        W47680  18.074  16.885  11.363  0.0741 -0.2181 -0.2773
32212W        W47681  10.115   1.438   0.991 -0.3787 -0.1840 -0.1122
32213W        W47682   0.064  18.418  14.408 -0.0239 -0.3514  0.0208
32214W        W47683   5.650   8.899  11.748 -0.0049  0.1070  0.0267
32215W        W47684   3.774   6.137   4.819 -0.0010 -0.0940  0.1533
32216W        W47685   7.402  14.403  12.481  0.0771 -0.0017  0.1406
32217W        W47686  12.368   7.778  10.630  0.1845 -0.2086 -0.1141
32218W        W47687  16.333  13.563   1.533 -0.1979  0.0853  0.3462
32219W        W47688  18.280   2.242   0.682 -0.2042 -0.0386  0.2537
32220W        W47689   4.257   2.725   1.027  0.1098 -0.0071 -0.0934
32221W        W47690   4.808   0.054   5.508  0.1273  0.0118  0.1512
32222W        W47691   0.151  10.378   1.946 -0.2185 -0.1254 -0.4172
32223W        W47692   5.648  17.048  10.557  0.0120  0.0040 -0.0180
32224W        W47693   3.332   7.874  11.757 -0.0211  0.2250  0.0452
32225W        W47694   2.533   5.624  13.622  0.0967 -0.2455 -0.1476
32226W        W47695   5.062   9.541  12.631 -0.4377 -0.0749 -0.1271
32227W        W47696   0.349   2.653   4.611 -0.0646 -0.0094 -0.1691
32228W        W47697  15.525   1.546  11.991  0.1017 -0.0357  0.0810
32229W        W47698   5.369  16.078  14.275  0.0971  0.1203 -0.1495
32230W        W47699   9.029   9.634  14.884 -0.2184 -0.3985 -0.1175
32231W        W47700   4.492  10.134  10.855 -0.4890 -0.2260 -0.2186
32232W        W47701   7.440   6.546   0.142  0.1263  0.1404  0.0639
32233W        W47702   6.270   3.542   0.904 -0.0756  0.0678 -0.1225
32234W        W47703   6.425  14.966   4.590  0.0427  0.0090 -0.1002
32235W        W47704   7.930   1.893   4.278  0.1143 -0.2424 -0.0331
32236W        W47705   5.907  17.923  13.820  0.0724 -0.0583  0.1773
32237W        W47706  17.870   7.275   4.736 -0.0133 -0.2099  0.2413
32238W        W47707   0.477  10.491  15.276  0.3313 -0.2993 -0.1060
32239W        W47708  12.501   9.609  12.514 -0.0155 -0.0086  0.0691
32240W        W47709  11.657   6.057   3.744 -0.1219  0.0265  0.0582
32241W        W47710   7.464   5.318  10.675 -0.2794  0.4878  0.0038
32242W        W47711   7.254  12.291  15.160  0.1375 -0.0849  0.0603
32243W        W47712  12.645   5.848   2.785 -0.0002  0.1597  0.1524
32244W        W47713   1.691   3.049  11.160  0.1254 -0.2951  0.0045
32245W        W47714  12.047  14.351   1.200  0.0025 -0.3562 -0.1382
32246W        W47715  11.530  11.261  13.076  0.0076  0.0064  0.0664
32247W        W47716   5.208   6.916   1.446  0.0540  0.0746 -0.0499
32248W        W47717  14.864  13.264   2.155 -0.0489  0.3851  0.0397
32249W        W47718   4.326  14.104  14.979  0.0815  0.3334 -0.0539
32250W        W47719   2.067  17.046  12.474  0.1286  0.0841 -0.4203
32251W        W47720   9.364  14.733   5.467 -0.0727  0.0229 -0.2750
32252W        W47721   5.355  12.739  11.487 -0.0475  0.1693 -0.0323
32253W        W47722  14.252  11.502   1.370  0.2263  0.0623  0.2073
32254W        W47723   6.901   5.916  11.738 -0.0322  0.1282  0.0001
32255W        W47724   8.280   5.223  14.715  0.3025  0.1104  0.0017
32256W        W47725   5.419   3.022   5.390 -0.0016 -0.0176  0.4772
32257W        W47726   7.373  10.532  13.086  0.3035 -0.0199 -0.0071
32258W        W47727   4.624   3.492   2.520  0.0634 -0.1829  0.2111
32259W        W47728   7.713   1.344   5.130  0.1508 -0.0652  0.0355
32260W        W47729  15.939  11.507  10.695 -0.1426  0.2942  0.0329
32261W        W47730   5.287  17.570  15.564 -0.0937  0.0961 -0.0509
32262W        W47731  10.021   9.777  12.824 -0.0694  0.0186  0.3506
32263W        W47732  11.984   1.114  10.553  0.0474  0.1722 -0.0701
32264W        W47733   5.745   1.320   2.402 -0.0244 -0.1400  0.0506
32265W        W47734   5.077  15.333   4.337  0.1157  0.1150 -0.2294
32266W        W47735   1.622  18.009   5.051  0.1309  0.0941 -0.0199
32267W        W47736   9.124   0.249  11.438  0.1330 -0.1500  0.4469
32268W        W47737   7.051  14.530   0.466 -0.1899 -0.0759  0.0926
32269W        W47738  17.150  15.114   9.808 -0.1186  0.1587  0.2383
32270W        W47739  14.208   7.348  13.856  0.1943  0.3537 -0.4191
32271W        W47740   5.688   5.620   5.094  0.1040 -0.1488  0.1374
32272W        W47741   3.534  10.429  11.249  0.1341 -0.2401  0.0384
32273W        W47742   5.150  12.112  12.662 -0.3454 -0.0845 -0.0588
32274W        W47743   4.035   6.252   0.122  0.3758  0.2516  0.2490
32275W        W47744  13.224   4.460  13.040 -0.0365  0.1113  0.0599
32276W        W47745   6.790   6.610   2.925  0.1086  0.2955  0.1874
32277W        W47746   1.490   5.740  13.216  0.0615 -0.2167 -0.3783
32278W        W47747  12.364  11.633   4.141 -0.1944 -0.0884 -0.1763
32279W        W47748  16.597  15.562  12.900 -0.2124 -0.0765 -0.0652
32280W        W47749   8.155  11.030  14.432  0.0231 -0.1561  0.0555
32281W        W47750  13.434  15.776  15.568  0.1242 -0.4502  0.1918
32282W        W47751   1.738   5.366  13.554  0.3153  0.2349  0.1535
32283W        W47752  16.465  16.528  14.196 -0.1229  0.0567 -0.0327
32284W        W47753  17.907  14.059  15.689 -0.2444  0.3365 -0.2233
32285W        W47754  17.984   3.929   2.976 -0.0851  0.3752 -0.0234
32286W        W47755  16.285   6.609  10.978  0.0707  0.3079  0.2664
32287W        W47756   5.469  11.434   0.862 -0.1356 -0.1639 -0.1992
32288W        W47757  15.431   4.941  13.123  0.0655 -0.0925  0.0420
32289W        W47758   5.448   3.895   5.226  0.3227 -0.1497  0.0497
32290W        W47759   1.189   2.885   2.015  0.0914 -0.1187  0.0363
32291W        W47760   1.074   5.002  10.975  0.0871 -0.0190  0.1708
32292W        W47761   5.090  16.898  11.219  0.2607 -0.0310  0.0362
32293W        W47762  13.679   3.552  11.583  0.1106 -0.2462  0.0886
32294W        W47763  17.890  11.554  11.443  0.2087  0.0577  0.1289
32295W        W47764  10.459   9.496   4.586 -0.2679  0.0269 -0.0191
32296W        W47765  15.558   1.142  14.991  0.0602 -0.0261 -0.0695
32297W        W47766   1.038  15.870   1.499 -0.4102 -0.3589 -0.1323
32298W        W47767   7.828  11.728   3.975 -0.2120  0.0069  0.0436
32299W        W47768   1.240  15.960   2.910 -0.3799  0.0525 -0.1243
32300W        W47769   6.342   6.834   3.721 -0.1879 -0.0687  0.1540
32301W        W47770  11.724  10.707   1.668  0.1080 -0.0266 -0.1128
32302W        W47771  16.902   6.856   3.399 -0.0197  0.1577 -0.4768
32303W        W47772   0.091   9.168   2.796  0.0492  0.0769  0.0570
32304W        W47773   6.460   9.839  11.945  0.1895  0.0467  0.0303
32305W        W47774   8.938  16.072  13.029  0.3656  0.2436  0.3433
32306W        W47775   4.883   0.506   3.430  0.2703  0.2838  0.2185
32307W        W47776  10.685   6.166  11.523  0.0671  0.3990  0.2881
32308W        W47777   6.530   3.171  15.737 -0.0152 -0.2180  0.0825
32309W        W47778  10.743   1.402   5.688 -0.1145  0.0583  0.1155
32310W        W47779  17.433  17.123   2.498 -0.3228  0.1835 -0.4773
32311W        W47780   4.052   1.434  15.000 -0.1537  0.3404 -0.1346
32312W        W47781   6.419   3.865   1.919 -0.2969 -0.2485 -0.3339
32313W        W47782   2.733   7.835   1.813  0.0072 -0.3537  0.2546
32314W        W47783  13.759  10.668  13.223 -0.0967 -0.1856 -0.1436
32315W        W47784  14.384   5.392  13.351 -0.2732  0.0887 -0.0560
32316W        W47785   2.235  11.365   1.164 -0.2132  0.1989  0.2334
32317W        W47786   3.096   3.201  15.708  0.2152  0.1563  0.2214
32318W        W47787   2.045  14.958  14.220 -0.2103  0.0171  0.0679
32319W        W47788  18.374   8.318   4.126  0.0123 -0.0081  0.1799
32320W        W47789  13.731  15.294  15.584 -0.2489 -0.3451 -0.0976
32321W        W47790   1.380   4.767  12.600 -0.0103  0.0224 -0.1017
32322W        W47791   3.456   7.435  13.394  0.1419 -0.3852 -0.1198
32323W        W47792   6.010  10.045  12.268  0.3349  0.2704 -0.1966
32324W        W47793  17.435  13.142   2.969 -0.1634 -0.4139  0.0792
32325W        W47794   7.494   4.610   5.802  0.3629  0.1173  0.0149
32326W        W47795  11.426   5.742  12.859  0.2118 -0.1993 -0.3208
32327W        W47796  11.554  14.793   2.634 -0.1307  0.1999  0.1989
32328W        W47797   9.497   3.106  12.188  0.1183  0.1401 -0.1999
32329W        W47798  10.308  14.389   3.488 -0.0508  0.0947  0.0033
32330W        W47799  15.602   9.018   3.727 -0.2231 -0.0739  0.3599
32331W        W47800  10.863   6.615   2.643  0.3226  0.0174  0.2723
32332W        W47801  13.185  10.117  13.522  0.0760  0.3550 -0.1414
32333W        W47802   5.729   1.693  11.709 -0.0309  0.0454  0.1759
32334W        W47803  12.558  16.314   2.315  0.0428 -0.0388 -0.0489
32335W        W47804   1.398   4.268   1.841  0.1432  0.0017 -0.2571
32336W        W47805  10.695   1.062   3.757 -0.0635  0.0223  0.2817
32337W        W47806  13.574   2.878   1.203 -0.2061 -0.1205  0.3258
32338W        W47807   9.541  15.617   0.014  0.4379  0.0901 -0.0670
32339W        W47808   5.307   8.987   2.458  0.2574  0.0062  0.0586
32340W        W47809   4.611  12.158  13.972 -0.0734  0.1270  0.0161
32341W        W47810   4.032   5.088   5.364  0.0277 -0.1434 -0.1579
32342W        W47811  16.564   8.469   1.958 -0.0179  0.2102  0.3101
32343W        W47812   2.134   5.069   3.146  0.2567  0.0431  0.2981
32344W        W47813   0.134  11.244  15.416  0.3282  0.1445 -0.1084
32345W        W47814  17.440  14.603  11.397 -0.1900 -0.2046  0.1076
32346W        W47815  13.198   0.862   4.245 -0.2212  0.0350  0.2058
32347W        W47816  15.080  16.735   4.646 -0.0708 -0.3753  0.0722
32348W        W47817   4.171  10.395   2.861  0.2763 -0.0480  0.3055
32349W        W47818  14.480  14.653  12.491 -0.0648  0.0288 -0.0476
32350W        W47819   3.787   3.892  11.632 -0.1515 -0.1342 -0.0683
32351W        W47820   8.930  10.125  14.810  0.1359 -0.2807 -0.0158
32352W        W47821  14.547  12.620   4.785  0.0988  0.0414  0.0691
32353W        W47822   7.251   0.398  15.748 -0.0984 -0.1414  0.0293
32354W        W47823   1.227   8.388   3.383  0.0512  0.3731  0.1903
32355W        W47824  17.752  16.318  12.276  0.0550  0.1133  0.2861
32356W        W47825  12.381   0.991   5.305  0.1226 -0.0637  0.3877
32357W        W47826  15.525  17.859  12.941  0.1074  0.1082 -0.0020
32358W        W47827  11.214  15.292  14.902  0.0189 -0.1372  0.2617
32359W        W47828   9.581   1.899  12.593 -0.3132 -0.3239  0.0467
32360W        W47829   8.381   2.174  15.643 -0.0410  0.1640  0.0522
32361W        W47830   2.875  11.854  11.907 -0.0810  0.1128  0.3415
32362W        W47831  11.584  17.013   1.603  0.2028  0.0458  0.2074
32363W        W47832  18.478   3.764  15.298  0.1012  0.0933  0.2990
32364W        W47833  15.729  15.306   0.323  0.2870 -0.0607  0.0889
32365W        W47834   8.582   1.724   2.984 -0.1662 -0.2139  0.4048
32366W        W47835  16.661   5.283  13.428  0.1742  0.0740  0.1636
32367W        W47836   5.753  13.148   3.340 -0.3811  0.0570 -0.0267
32368W        W47837   6.085  11.227   2.198  0.0703 -0.1188  0.1057
32369W        W47838   6.553  17.394   5.604  0.2293  0.2765  0.1106
32370W        W47839  14.829  16.542  10.900 -0.0161 -0.0413  0.1224
32371W        W47840   7.028  12.218   0.420 -0.2565 -0.4494 -0.0703
32372W        W47841  17.853   3.966   0.379 -0.0138  0.0216  0.1023
32373W        W47842  10.547  15.336  15.746 -0.1416  0.2891  0.0346
32374W        W47843  11.597  10.288   3.076 -0.1769  0.0950  0.1261
32375W        W47844   9.659   0.527  12.186 -0.1541  0.0298 -0.0096
32376W        W47845   9.770  14.755   5.786  0.2399  0.2047  0.0136
32377W        W47846  17.528  15.292   1.842  0.1862 -0.0672  0.5184
32378W        W47847   4.649  17.258  13.414  0.0896  0.1793  0.0180
32379W        W47848   2.861  15.126  11.098  0.0695  0.2884 -0.0985
32380W        W47849  16.320  10.453  12.478  0.1244 -0.1302  0.0022
32381W        W47850  12.988   7.518   4.077 -0.0014  0.4922  0.1273
32382W        W47851   4.661  11.311   1.485 -0.1673 -0.1814 -0.1821
32383W        W47852   8.778   0.680   4.755 -0.0794  0.3406  0.1031
32384W        W47853  10.969  15.774  11.535  0.2402 -0.2691  0.0426
32385W        W47854  10.472  13.108  10.384 -0.0949 -0.0051  0.1875
32386W        W47855  17.959   8.591   3.820 -0.2808  0.1299  0.0681
32387W        W47856  17.573  12.060  13.194  0.0199  0.0254  0.0738
32388W        W47857  14.351   6.277  10.883  0.3885 -0.3587 -0.1426
32389W        W47858   8.542   0.592   2.645  0.4459 -0.2158  0.2622
32390W        W47859   2.408  13.235  10.692  0.1000 -0.0617  0.1805
32391W        W47860   5.972  18.113   4.827  0.0915  0.1147 -0.1374
32392W        W47861  11.560  16.650   2.848 -0.3770 -0.1986  0.0306
32393W        W47862   3.398   8.859   3.516 -0.2470 -0.1833  0.0575
32394W        W47863   9.317   8.022   2.521 -0.2466  0.0954 -0.2373
32395W        W47864  16.148   4.344  13.428 -0.1908 -0.2772  0.0254
32396W        W47865  17.071   6.927  11.931  0.1988 -0.2085  0.0430
32397W        W47866  11.228   5.316   0.866 -0.0976 -0.4600  0.1635
32398W        W47867   5.115  14.679  14.216  0.3721 -0.1690 -0.2038
32399W        W47868  10.992   2.326   2.990  0.3086 -0.1714  0.3040
32400W        W47869  13.895  17.312   6.219  0.0235 -0.3515  0.0309
32401W        W47870  10.195  12.170   2.890 -0.0245  0.1077 -0.1616
32402W        W47871   4.486  16.929   5.188  0.1330  0.0008 -0.2874
32403W        W47872   3.761   0.842   4.230 -0.0598  0.3366 -0.3229
32404W        W47873   1.510  16.439  14.581 -0.1994  0.0482 -0.0331
32405W        W47874   9.801   3.491  11.977 -0.1200 -0.1842 -0.0792
32406W        W47875  12.900  12.869   0.541  0.1802  0.1194  0.0808
32407W        W47876  10.283   6.211  11.130  0.3137 -0.4034  0.0497
32408W        W47877   6.974  14.812  13.212 -0.4961  0.0751  0.1322
32409W        W47878  10.978   2.299  13.170 -0.0068  0.1464  0.1937
32410W        W47879  17.220  11.458  13.752 -0.1239  0.2994 -0.1302
32411W        W47880  10.794  16.207  13.873  0.0736  0.0332 -0.0578
32412W        W47881  16.664   2.298  14.527  0.2109 -0.2530  0.1205
32413W        W47882   6.298   4.182   4.770  0.3123 -0.1276  0.4302
32414W        W47883  13.275  15.045   0.161 -0.1451  0.1137 -0.0270
32415W        W47884   0.690   5.301   0.784 -0.2400  0.2692  0.0992
32416W        W47885  11.402  10.585   4.464  0.1235  0.0968  0.0717
32417W        W47886   0.836  14.948  12.437 -0.1844  0.0861  0.1038
32418W        W47887  17.725   2.517   0.690  0.0595  0.5542  0.1237
32419W        W47888  13.620  13.344   3.143  0.0287  0.0730  0.1194
32420W        W47889   9.091   1.599   1.156  0.1914  0.1415 -0.0883
32421W        W47890   2.123  13.512   1.905  0.0246 -0.1923  0.1098
32422W        W47891  15.159   0.578   4.133  0.0807  0.2159 -0.1954
32423W        W47892  14.806  12.724  10.464 -0.0126 -0.1356 -0.2562
32424W        W47893   1.963   0.115   4.481  0.1640 -0.2252  0.0424
32425W        W47894   9.292   8.352  11.357  0.3691  0.0813  0.0633
32426W        W47895   5.257  15.697   1.649 -0.0737  0.1627 -0.0068
32427W        W47896   1.472   1.806   4.575  0.0268  0.0007  0.1693
32428W        W47897   5.933   3.264  13.789 -0.0076  0.0488  0.2606
32429W        W47898   3.860   3.431   4.006 -0.1339  0.2333 -0.1025
32430W        W47899  16.488   4.792   0.728 -0.1628 -0.0908  0.3052
32431W        W47900   6.078  15.572   4.585 -0.3279  0.0133 -0.4551
32432W        W47901  15.966   6.548   1.159 -0.3143 -0.0110 -0.2190
32433W        W47902  16.306  11.606  10.379 -0.1771  0.1325 -0.2873
32434W        W47903   7.704  12.844  10.707 -0.1629  0.2106 -0.2036
32435W        W47904  17.949  13.996   1.013 -0.0558 -0.1452 -0.2706
32436W        W47905   8.341  16.388  14.743 -0.1707 -0.1065 -0.0995
32437W        W47906  14.367   2.096   0.189  0.0944  0.1463  0.2228
32438W        W47907  18.180   8.586   5.056 -0.0412 -0.2588 -0.0397
32439W        W47908  13.097   2.593   0.411  0.1895  0.1959 -0.0851
32440W        W47909  13.895   1.807  11.589  0.0911 -0.0008  0.0765
32441W        W47910   9.565  18.244   0.211  0.1036 -0.0850  0.0357
32442W        W47911   8.455   8.191  11.585  0.0335 -0.0023 -0.1283
32443W        W47912   7.087   6.135  14.659 -0.0231 -0.1672  0.1593
32444W        W47913   4.528   8.157   1.913  0.0176 -0.0719 -0.0051
32445W        W47914   8.827   6.005  11.107  0.1934  0.1535 -0.2635
32446W        W47915   5.745  12.744  11.055  0.3475  0.2890  0.0076
32447W        W47916  13.778   0.204  14.970 -0.0525 -0.0208  0.1163
32448W        W47917  17.209   3.464  11.975  0.0589  0.0375 -0.1437
32449W        W47918  17.159   1.870  13.564  0.3605  0.0802 -0.0262
32450W        W47919  15.138   3.405  14.483 -0.1395 -0.3259  0.1378
32451W        W47920   8.654   6.099   3.723  0.1858  0.0269  0.1005
32452W        W47921   7.212   1.076  10.182  0.0243 -0.0279 -0.3166
32453W        W47922  17.060   8.976  15.051 -0.2429  0.0176  0.0777
32454W        W47923   8.305  14.611   4.886  0.1292 -0.0794 -0.0500
32455W        W47924   0.990  15.678   0.854  0.1716 -0.4445  0.1079
32456W        W47925   1.358   3.292   0.615 -0.0767 -0.0398  0.2724
32457W        W47926   5.767   8.839  13.633  0.1182  0.0710  0.1717
32458W        W47927   9.551   2.659  10.276  0.0252 -0.0677 -0.0518
32459W        W47928  15.901  12.723  13.010 -0.0698 -0.1619 -0.2095
32460W        W47929  18.467   9.353  13.547  0.0773 -0.0591  0.4558
32461W        W47930   2.136   7.053  11.115 -0.1652  0.0432  0.3761
32462W        W47931   8.829   2.922  15.059  0.2903 -0.1767 -0.4595
32463W        W47932  13.815  12.838  13.275  0.3219  0.0131 -0.0807
32464W        W47933  11.032   6.041   3.941 -0.0078 -0.1105 -0.0340
32465W        W47934   3.406   9.246  15.874  0.2804  0.1985 -0.2446
32466W        W47935  12.225  11.080  15.889 -0.1740  0.0196  0.2388
32467W        W47936   1.679   2.121  15.571  0.0848 -0.4139 -0.0777
32468W        W47937   6.548   6.921  14.158  0.1598  0.0559 -0.1539
32469W        W47938  13.952   1.966   0.324  0.1302 -0.1658 -0.0523
32470W        W47939   6.231  10.351  13.997 -0.0244  0.1159  0.1389
32471W        W47940  10.645  18.264   5.961  0.1304 -0.4563 -0.0890
32472W        W47941   9.517   8.323   4.449  0.0442 -0.1862 -0.0931
32473W        W47942  11.957  12.847  13.654  0.0092 -0.0092 -0.1635
32474W        W47943  13.655  10.918   3.849 -0.0327 -0.0749  0.1896
32475W        W47944   0.069  11.932   1.682 -0.1361  0.0521  0.0893
32476W        W47945   0.130   7.019  10.826  0.2022 -0.0171  0.1613
32477W        W47946   6.157   3.115  14.254  0.3034 -0.1868 -0.1083
32478W        W47947   8.747   9.814  10.257  0.3161 -0.1769  0.1692
32479W        W47948  17.733   9.604   4.681  0.0024  0.0406 -0.3940
32480W        W47949   9.904  12.941   1.573  0.2546 -0.1111 -0.0620
32481W        W47950  14.628  13.480   4.289  0.1684  0.1479 -0.0561
32482W        W47951  14.732  12.240   2.946 -0.1070 -0.0105 -0.0026
32483W        W47952   6.085  11.992   4.794  0.1030  0.0699 -0.0427
32484W        W47953  13.428   4.583   2.952 -0.0764 -0.1157 -0.1126
32485W        W47954  12.655   9.849   2.139 -0.0168  0.0068  0.0883
32486W        W47955   0.973   8.491   3.807  0.0244  0.1918 -0.0698
32487W        W47956   3.391   1.516  15.274  0.1032 -0.2558 -0.0258
32488W        W47957   5.006   2.098   3.230  0.2744  0.1879  0.0099
32489W        W47958  15.929   5.696   2.344 -0.2698 -0.0906 -0.2134
32490W        W47959   4.706   7.698   3.212 -0.2435  0.0146 -0.2441
32491W        W47960   1.048  15.807  12.410 -0.0313 -0.2287 -0.0873
32492W        W47961  13.452   6.538  11.249 -0.1268 -0.3005  0.1060
32493W        W47962   1.405   4.486  14.487  0.0272  0.2442  0.0352
32494W        W47963   7.217  12.946  14.742  0.2371 -0.0427  0.0885
32495W        W47964   7.256  13.527  13.128 -0.1867 -0.2855  0.0384
32496W        W47965   9.841  12.833  13.526  0.1926  0.0897  0.0008
32497W        W47966   4.544  12.120   0.297  0.0757  0.1283  0.1179
32498W        W47967  14.638   8.510   0.638  0.1911 -0.0798 -0.0633
32499W        W47968  11.923  10.991   0.437  0.3336  0.2470 -0.3197
32500W        W47969  17.787   7.465   0.538 -0.0304  0.0073  0.0811
32501W        W47970   4.392   5.165   4.083 -0.0717 -0.1013  0.0972
32502W        W47971   3.550  17.717  11.319  0.1340 -0.0068  0.0468
32503W        W47972   7.027  15.060  10.990 -0.1599  0.0355 -0.0581
32504W        W47973   3.417  16.507  12.639  0.2483  0.0371 -0.0958
32505W        W47974  11.533  13.812   0.609 -0.3689  0.0570  0.0063
32506W        W47975   8.692   8.474  10.406  0.1172 -0.3564 -0.1422
32507W        W47976   3.126   8.031   4.421 -0.2770 -0.1749  0.3202
32508W        W47977   4.020   0.406  14.849 -0.0311  0.1778 -0.5541
32509W        W47978   5.659  14.769   0.790  0.1338 -0.1488 -0.0805
32510W        W47979  10.427   9.327  12.132  0.0511  0.3692 -0.0099
32511W        W47980  14.188  13.321   1.533 -0.0500  0.1430  0.3060
32512W        W47981  10.334   9.057  12.978  0.0093 -0.0489  0.0351
32513W        W47982   3.491   8.898   3.013 -0.2804 -0.2691  0.1293
32514W        W47983   1.370  10.374   2.647  0.3286  0.3554 -0.1842
32515W        W47984   1.217  11.585  11.993 -0.2056 -0.0601 -0.2988
32516W        W47985   4.396   0.415   5.992 -0.2322 -0.2328 -0.0187
32517W        W47986   7.536  11.242   3.734 -0.3659  0.2134  0.1553
32518W        W47987  18.279  16.225  11.433 -0.6047  0.2074  0.0927
32519W        W47988  15.824  13.499   1.235  0.4361 -0.0902 -0.2309
32520W        W47989  17.468  12.992  15.770  0.3983 -0.1672  0.2172
32521W        W47990   8.887   2.850   1.460 -0.0962 -0.0830 -0.2331
32522W        W47991   6.944  18.201   6.146 -0.1488  0.1673 -0.0385
32523W        W47992  10.013  13.742   2.773  0.0337  0.0882 -0.0449
32524W        W47993   9.580  17.402   4.646  0.0412  0.2355  0.0809
32525W        W47994  16.040   4.999  14.572 -0.1390 -0.1630  0.1900
32526W        W47995  11.176  15.386   1.876 -0.1813  0.1239 -0.0731
32527W        W47996   6.137   3.998   0.020  0.2375  0.1479  0.2981
32528W        W47997   9.238   3.971  11.767  0.1786 -0.0226 -0.0213
32529W        W47998  15.820   9.394  12.033 -0.0866  0.0476  0.0212
32530W        W47999  15.537  14.632   3.176  0.0907  0.1933  0.0216
32531W        W48000  17.815   2.829   0.286  0.3702 -0.0917  0.1387
32532W        W48001  13.697   6.722  11.874 -0.0617 -0.2116 -0.0051
32533W        W48002   5.993  16.235  15.410 -0.0061  0.0133 -0.2009
32534W        W48003  17.477   2.123  15.727  0.4765  0.3134  0.0371
32535W        W48004  12.117  11.358   2.457 -0.1375 -0.1986 -0.0364
32536W        W48005  11.688   5.174   0.599  0.3153  0.0554 -0.1663
32537W        W48006   8.064   7.331  12.373  0.2243  0.1823 -0.0795
32538W        W48007  16.591  14.160   2.282 -0.2728  0.1548 -0.2204
32539W        W48008  14.825   8.351  14.219  0.0268 -0.0720  0.0753
32540W        W48009  11.681   5.733  13.955 -0.2014  0.1599 -0.0654
32541W        W48010  14.599  18.076   2.937  0.2320  0.2901  0.2948
32542W        W48011   0.333   6.809   2.290 -0.1672 -0.1847 -0.0358
32543W        W48012  11.767  13.272   3.616  0.0492  0.0411 -0.1317
32544W        W48013   6.045   4.705   2.068 -0.1420  0.1541  0.3052
32545W        W48014  18.173  14.729   5.236  0.1157 -0.0660 -0.0991
32546W        W48015   2.654   4.165  12.658  0.2873  0.1079 -0.0530
32547W        W48016  13.239  15.577   5.391  0.0526  0.3809  0.1364
32548W        W48017   5.856  14.105  12.254  0.0094  0.1470  0.0115
32549W        W48018   8.923  13.446   1.717  0.1861 -0.1903  0.1193
32550W        W48019  14.562  11.258   2.831 -0.2535 -0.1931  0.1946
32551W        W48020  16.337  15.634   3.610  0.3032  0.1402  0.3380
32552W        W48021  18.020   8.820  15.656 -0.2832  0.3679 -0.2479
32553W        W48022   4.792  14.579   3.790 -0.5500 -0.2741 -0.1715
32554W        W48023   6.856   4.877  14.242  0.1034  0.1741 -0.0775
32555W        W48024  13.118  11.402  11.168 -0.0362  0.2577 -0.0127
32556W        W48025   4.376  12.760  13.005  0.1757  0.4362 -0.2514
32557W        W48026   5.688  12.831   3.772  0.1621 -0.0132  0.0398
32558W        W48027  18.425  13.609  11.824 -0.1393  0.2441 -0.2261
32559W        W48028   4.431  13.077  12.443 -0.1689  0.1095 -0.0549
32560W        W48029   6.771  14.927   2.044 -0.1987 -0.1226  0.0630
32561W        W48030   6.462   9.127  13.163  0.1698 -0.1661 -0.0890
32562W        W48031   1.159  15.087   4.029  0.1542 -0.2588 -0.1727
32563W        W48032  13.661   2.638  13.216 -0.0102 -0.0126  0.0615
32564W        W48033   9.452   8.694  12.995 -0.1446  0.0112  0.0680
32565W        W48034   5.773   3.858  15.565  0.1923 -0.1492 -0.2960
32566W        W48035   5.241   1.248   2.340 -0.3452 -0.0702  0.0693
32567W        W48036  17.005   7.087   0.665  0.1468 -0.4633  0.2634
32568W        W48037   7.978  16.727  14.864  0.1265  0.4321  0.0719
32569W        W48038  12.293   7.029  11.752  0.1069  0.0317 -0.0825
32570W        W48039   0.466   7.641   1.600  0.0438  0.3722  0.0000
32571W        W48040  11.578  10.068  14.012 -0.0104 -0.0839  0.1773
32572W        W48041   8.558  11.241   3.454 -0.1368  0.1498 -0.0471
32573W        W48042   6.674  12.820  12.198  0.1994 -0.0764  0.2457
32574W        W48043   0.623  16.268   3.993 -0.0741 -0.0539  0.0329
32575W        W48044   1.091  14.587   4.897 -0.3503 -0.3074 -0.0083
32576W        W48045   2.820   2.208   1.000  0.3866  0.2209  0.0804
32577W        W48046  18.291  16.749   4.152  0.1033 -0.0021  0.0128
32578W        W48047   5.985   6.416   3.695  0.1955  0.5486  0.0306
32579W        W48048  17.146   8.264   1.909 -0.3253 -0.0898  0.0854
32580W        W48049   1.042   3.270   1.625 -0.2706  0.0375 -0.0732
32581W        W48050   9.281   2.291  11.839 -0.2531  0.2301  0.2362
32582W        W48051  14.634   2.351   4.125  0.1632  0.0836 -0.1529
32583W        W48052   5.250   1.807  13.761  0.1851 -0.2892 -0.2578
32584W        W48053  15.763   4.510  14.584 -0.1251 -0.4369  0.0053
32585W        W48054   9.057  16.911  11.994 -0.0481  0.0569  0.3624
32586W        W48055  17.187  10.141   3.713  0.1202  0.4118 -0.1343
32587W        W48056   4.800  18.187  13.074  0.4504  0.1240  0.0133
32588W        W48057  12.916  15.506  14.715 -0.1294 -0.0810  0.0774
32589W        W48058   6.093  12.252   1.470  0.0354 -0.3375 -0.1154
32590W        W48059   8.112   6.861  12.508  0.0955  0.3683 -0.1760
32591W        W48060   3.921  10.944   9.939  0.0370 -0.1354  0.3847
32592W        W48061   7.748   5.844  13.399  0.0464  0.1330  0.2459
32593W        W48062   9.484  17.927  14.138 -0.2231  0.0763 -0.0563
32594W        W48063  11.079   0.165   4.091 -0.0347  0.5175 -0.0233
32595W        W48064  14.928   8.098   9.967 -0.0036  0.2186  0.2383
32596W        W48065  16.893  13.349   4.434  0.2176  0.0318  0.0657
32597W        W48066   8.169  10.785  13.898 -0.2040 -0.0779  0.2944
32598W        W48067  10.775   3.794   3.563 -0.0686 -0.1505  0.0063
32599W        W48068   6.969   1.165   5.502  0.2940  0.0930 -0.0456
32600W        W48069   4.781   6.708  13.959 -0.0005 -0.1247 -0.3499
32601W        W48070  12.420  14.065   2.718  0.4105  0.0431  0.1785
32602W        W48071  14.621  15.163  14.480  0.0909  0.3553  0.3103
32603W        W48072   3.653   9.095   2.509 -0.0381 -0.0424 -0.2004
32604W        W48073   0.891  12.784   4.316 -0.1252  0.1315  0.2602
32605W        W48074  16.490   2.196  13.237 -0.1665 -0.0049  0.0984
32606W        W48075   5.928   9.754  12.741  0.0580 -0.4653  0.2028
32607W        W48076   3.157   6.756   3.139  0.0028 -0.0850  0.2706
32608W        W48077   1.728  18.123  10.955 -0.0305 -0.0238  0.1807
32609W        W48078   9.052  12.831  12.327 -0.1016 -0.0186 -0.0867
32610W        W48079   4.818   8.739  14.573 -0.0383 -0.0909 -0.0118
32611W        W48080   7.077   7.954  11.386 -0.0739 -0.2660 -0.1575
32612W        W48081  17.881   1.997   3.131  0.0571 -0.3026 -0.0310
32613W        W48082   0.971  13.296   0.557 -0.1538 -0.0034  0.2168
32614W        W48083  16.261   6.619   2.014  0.1768  0.1272  0.1335
32615W        W48084   0.247   4.769   0.347  0.2460  0.1798  0.1334
32616W        W48085   7.132   9.916   2.916  0.0599 -0.2725 -0.1043
32617W        W48086  11.671   5.045   2.204 -0.3052  0.0317  0.3261
32618W        W48087   6.773  11.893  13.078  0.2299  0.0612 -0.3740
32619W        W48088   0.933  12.270  15.649 -0.1722 -0.2012  0.1377
32620W        W48089  14.130  14.506  13.300  0.1675  0.0774 -0.0057
32621W        W48090   7.343   4.794   0.115 -0.1480 -0.1333  0.0998
32622W        W48091   0.020  15.245  14.304  0.1776 -0.0192 -0.0935
32623W        W48092  16.168   2.433   2.317 -0.0423 -0.0049 -0.2593
32624W        W48093   2.747   9.513  14.398 -0.2154 -0.1680 -0.2014
32625W        W48094   1.978   4.448  15.760 -0.1840  0.0666 -0.1226
32626W        W48095  11.552   3.382  14.505  0.1312 -0.0761 -0.1621
32627W        W48096  15.271  13.461   4.815 -0.1393  0.0251  0.0630
32628W        W48097  11.538  17.178   0.356 -0.0178  0.0901  0.1232
32629W        W48098   8.186  13.998  12.948  0.3153  0.0737 -0.1423
32630W        W48099   0.386   7.610   5.136  0.1244 -0.1352 -0.0310
32631W        W48100   6.986   6.574  12.426  0.2227  0.3202  0.2660
32632W        W48101  11.526   9.342  14.940 -0.0017  0.2883  0.2173
32633W        W48102   8.814  11.564  14.964 -0.0083 -0.0617  0.0024
32634W        W48103  18.422  10.522  11.100 -0.0599  0.1369  0.2991
32635W        W48104   3.714  16.370   3.676  0.1614 -0.0971 -0.4145
32636W        W48105  14.775  10.338   1.102  0.0720 -0.0656 -0.0645
32637W        W48106   2.974   7.923   5.348 -0.3931 -0.2729  0.1620
32638W        W48107   0.789   2.225   6.202 -0.1420  0.2130 -0.1570
32639W        W48108   5.752  11.730  13.845  0.0816  0.1364  0.1873
32640W        W48109  10.030   1.944  10.162 -0.2768  0.1223  0.0096
32641W        W48110  11.993  14.015   0.183 -0.0342  0.0058 -0.0526
32642W        W48111  16.282  17.836  11.801  0.0387 -0.1579 -0.0907
32643W        W48112  11.789   9.153   5.714 -0.0797 -0.0462 -0.1351
32644W        W48113   1.170   5.326   5.175 -0.3735 -0.2536 -0.0980
32645W        W48114   8.795  18.211   3.760 -0.1820  0.2084  0.2142
32646W        W48115   7.818  13.851  15.316 -0.0164  0.0839  0.0996
32647W        W48116   7.676  14.414  10.951  0.0283 -0.3443  0.4043
32648W        W48117  13.814  10.105  12.896  0.0216 -0.0337  0.0069
32649W        W48118  14.967  13.428  11.386 -0.0134  0.1954  0.0122
32650W        W48119  10.334   8.311   4.565 -0.0814 -0.3754 -0.0315
32651W        W48120   9.899  18.466  10.270 -0.0556 -0.3621  0.2315
32652W        W48121   5.228  12.137  14.647 -0.3034  0.3705  0.0807
32653W        W48122   5.885  16.220   5.226  0.0931  0.2664 -0.0307
32654W        W48123   0.177   2.379  12.366 -0.1451  0.1551 -0.0008
32655W        W48124   7.286  10.299   5.196 -0.2252  0.0902 -0.0203
32656W        W48125   8.781  12.542  13.534  0.3076 -0.2065 -0.0243
32657W        W48126   2.630  11.084   3.523  0.0583  0.2111 -0.0071
32658W        W48127  12.810  15.233   5.164 -0.0117  0.2553 -0.0146
32659W        W48128  16.503  17.258   3.350 -0.1000  0.1624  0.1983
32660W        W48129   1.609  14.266   4.972 -0.3014  0.3983  0.1245
32661W        W48130  14.806  18.397  14.139 -0.2078 -0.0818 -0.2240
32662W        W48131   2.224   0.590  15.483  0.1313 -0.0847  0.0590
32663W        W48132   4.739   6.960  13.268 -0.1956 -0.2285 -0.0312
32664W        W48133   3.659  14.636  10.926 -0.0132 -0.0211 -0.0489
32665W        W48134   9.098   1.621  11.325  0.1414  0.0589 -0.0270
32666W        W48135  14.175   5.484  15.723 -0.0886 -0.0480 -0.1737
32667W        W48136   2.545  16.513   3.756 -0.0411 -0.2651  0.1669
32668W        W48137   8.483   9.127   0.936 -0.1836  0.2298 -0.3299
32669W        W48138   8.525  10.117   4.602  0.1767 -0.2969  0.0297
32670W        W48139   6.260   1.535   2.526  0.1550  0.1705  0.0912
32671W        W48140  15.722  13.757  10.177 -0.1189 -0.0876 -0.0077
32672W        W48141   2.898  11.423   3.800  0.1296  0.5648  0.1516
32673W        W48142  11.342  16.415   1.162 -0.0675  0.0417 -0.1853
32674W        W48143  13.675   9.317  10.617 -0.0719 -0.2384  0.0724
32675W        W48144  14.039  14.419   3.312 -0.1449  0.0861 -0.1749
32676W        W48145  16.237  16.064   2.395  0.3862 -0.1997 -0.1904
32677W        W48146   1.287   1.522  11.179  0.0397  0.0762 -0.0757
32678W        W48147   6.484   8.951   0.543  0.3255  0.5041 -0.0468
32679W        W48148   3.614   6.063   2.634  0.2309  0.3643  0.1388
32680W        W48149  16.766   6.786   2.067 -0.3523 -0.0165 -0.0417
32681W        W48150  14.299   1.504   1.467  0.1820 -0.1844  0.1055
32682W        W48151  15.645   0.570  14.653 -0.3108 -0.4068  0.0509
32683W        W48152   5.446   6.457  12.808 -0.0745 -0.1141 -0.3402
32684W        W48153  14.121   7.393   2.853 -0.2470 -0.1270 -0.0270
32685W        W48154   5.899   3.071   5.812 -0.2661  0.2050  0.0177
32686W        W48155  18.208  14.664   3.182 -0.0142  0.1308 -0.1288
32687W        W48156  14.631   9.152  11.837  0.0550  0.1526 -0.1162
32688W        W48157  11.058  16.710   3.087  0.0039  0.2103 -0.2547
32689W        W48158   5.558  11.389   3.078 -0.0387 -0.2372 -0.0361
32690W        W48159  16.707   5.431   1.652  0.3786  0.1263  0.0884
32691W        W48160   5.028  15.852  11.245  0.0576 -0.4885  0.0610
32692W        W48161   0.840  15.642   5.219  0.0807 -0.0497  0.1625
32693W        W48162  16.373  11.571  14.716  0.0411  0.2169 -0.2039
32694W        W48163  17.983   4.996  12.117  0.1763 -0.3980  0.0691
32695W        W48164   9.775  15.477   3.158 -0.0490  0.0740 -0.0628
32696W        W48165   2.150  10.852  11.764  0.1785  0.0043 -0.0401
32697W        W48166   4.507   7.292   2.039 -0.0342 -0.0088 -0.3080
32698W        W48167  17.591  10.272   1.523  0.1918  0.0853  0.2683
32699W        W48168   1.621  12.397   1.816 -0.3379 -0.1190  0.1302
32700W        W48169  11.748   1.117   2.699 -0.1564  0.0676  0.0250
32701W        W48170   1.680   1.161   2.411 -0.0310  0.0972  0.2779
32702W        W48171  14.096   8.976   3.141 -0.1003  0.2312 -0.1635
32703W        W48172   7.276   6.899   4.198 -0.0790  0.1576  0.2814
32704W        W48173  13.751   8.141   0.589 -0.0023 -0.1374  0.0201
32705W        W48174   1.337   3.523  14.663 -0.1210  0.1386 -0.0088
32706W        W48175   2.246   6.873   5.392  0.1167  0.2638  0.2108
32707W        W48176   4.606  15.867  12.263 -0.0255 -0.0616 -0.2139
32708W        W48177   5.815   0.832   4.828 -0.1970  0.0824  0.0598
32709W        W48178  16.967   0.432  12.548 -0.1736  0.0066  0.0975
32710W        W48179  10.118  15.399   6.287 -0.0692  0.3918  0.0595
32711W        W48180  17.514   6.889  11.537 -0.0657 -0.2359  0.3052
32712W        W48181  12.971   7.736  11.450  0.1494  0.0748 -0.3134
32713W        W48182   9.855   9.057   1.962  0.2163  0.1466 -0.0214
32714W        W48183   5.203  17.389  11.366  0.1821  0.0207 -0.0709
32715W        W48184   6.761  16.513  14.318  0.1254 -0.0358  0.4184
32716W        W48185   5.058   9.326  14.828  0.0598  0.1131  0.0086
32717W        W48186  18.399   6.523   1.254 -0.0640 -0.0194  0.2939
32718W        W48187   3.786  14.582  15.746  0.1003  0.2089 -0.3450
32719W        W48188   7.999  14.938   1.876  0.0097  0.2668  0.3965
32720W        W48189   4.817   3.275   4.460  0.2682  0.3733  0.4727
32721W        W48190   2.080  12.285   4.732 -0.2120  0.0236 -0.1949
32722W        W48191  17.970   7.224   5.272 -0.0955 -0.1460  0.3348
32723W        W48192  14.172   4.144   1.752  0.0756  0.0153  0.0329
32724W        W48193   1.782  15.824  14.726 -0.0798  0.3262 -0.1754
32725W        W48194   5.663  14.362   1.527 -0.0151  0.2993 -0.1522
32726W        W48195  17.349   4.514   5.985  0.0960  0.0687 -0.0350
32727W        W48196   0.965   6.986   1.542  0.0119  0.2172 -0.0723
32728W        W48197  12.036   5.413  15.298 -0.3348  0.0779 -0.0511
32729W        W48198   8.406   0.141   2.398 -0.1632 -0.1445 -0.2497
32730W        W48199   8.268   0.372  11.944 -0.0555 -0.2769  0.2419
32731W        W48200  16.388  15.033  15.835 -0.0749 -0.0149  0.0990
32732W        W48201  15.124  14.641   4.869  0.2987 -0.3467 -0.2207
32733W        W48202   4.369  18.084  12.608 -0.1091 -0.1863  0.2613
32734W        W48203   0.867  14.417   0.047 -0.1421 -0.2137 -0.2534
32735W        W48204  10.612  10.026  14.552  0.0044 -0.2208  0.0711
32736W        W48205  16.743  13.732  14.826 -0.2821 -0.2084  0.1449
32737W        W48206   4.745   5.313   2.056 -0.0759 -0.0842  0.0492
32738W        W48207  13.443   5.907  14.576 -0.0020  0.1916  0.2427
32739W        W48208   7.339  15.559  14.378  0.2655  0.0295  0.2622
32740W        W48209   3.108   7.128   2.552  0.3186  0.3785 -0.0584
32741W        W48210   2.726  12.594  11.413 -0.1906  0.0709  0.0125
32742W        W48211   2.083  14.101   3.523  0.2093  0.1820  0.1641
32743W        W48212  16.917  13.694  12.348  0.0117  0.0036 -0.0001
32744W        W48213   8.523  15.573  11.001  0.2927 -0.2560  0.0729
32745W        W48214  12.735   2.517  15.708  0.2537 -0.0098  0.1767
32746W        W48215  13.565   2.129  12.144 -0.2665  0.2378  0.0610
32747W        W48216   4.985  13.583   2.028 -0.1051 -0.0812 -0.0132
32748W        W48217   9.510  17.774   0.243  0.0886 -0.0259  0.1876
32749W        W48218  13.796   4.935  15.521 -0.2069  0.1166 -0.1083
32750W        W48219   3.956   7.453   0.421 -0.3978 -0.1511  0.1333
32751W        W48220   8.729  10.945   2.057 -0.0465 -0.0764 -0.1393
32752W        W48221   4.203   1.400  13.301 -0.0415  0.0885  0.2481
32753W        W48222   1.985   3.053  10.286  0.0043 -0.3148 -0.1279
32754W        W48223   8.283   4.296   1.560 -0.0057 -0.0760  0.3407
32755W        W48224  10.578  14.049  11.029 -0.2904 -0.1677  0.1669
32756W        W48225  17.136   5.683   1.378 -0.3232 -0.0236 -0.0473
32757W        W48226   9.177   4.554   0.934 -0.0548  0.1055 -0.0320
32758W        W48227   0.667  14.138  15.536 -0.0104 -0.1778 -0.1150
32759W        W48228   6.998   9.161  13.081  0.1724 -0.0055  0.2264
32760W        W48229  15.267   5.878  10.073  0.1504  0.0027  0.2073
32761W        W48230   0.342   7.189   1.969 -0.0968 -0.0742  0.2053
32762W        W48231  11.912  11.071   4.148 -0.2122  0.0313  0.0972
32763W        W48232  17.222  14.184  11.736  0.0873  0.1582  0.0389
32764W        W48233   8.994  14.061  10.855 -0.0748 -0.1939  0.1154
32765W        W48234  17.644  12.514   4.969  0.0888  0.1387  0.0500
32766W        W48235  10.319   7.556   0.325  0.1599  0.2162 -0.2289
32767W        W48236  13.428   9.069  11.023  0.0779  0.0164 -0.1556
32768W        W48237  15.830   0.285   5.528  0.2028 -0.1379 -0.1020
32769W        W48238   9.542   5.852   4.152  0.0803 -0.2117 -0.1909
32770W        W48239   0.810   0.578   2.211 -0.1942  0.0293  0.4098
32771W        W48240   4.718  17.189  14.372 -0.2171 -0.3461  0.0157
32772W        W48241   1.322   2.306  13.838  0.0247  0.0158 -0.1505
32773W        W48242  15.892  16.182  11.947 -0.0442 -0.0653  0.2082
32774W        W48243  14.522  17.502   3.057  0.2321  0.1786  0.0678
32775W        W48244   2.176   5.147   1.769  0.1847  0.1716  0.1370
32776W        W48245  16.320   4.879  12.514  0.1089 -0.2157 -0.1410
32777W        W48246  12.101   2.625  13.374 -0.3789  0.2301 -0.2024
32778W        W48247  18.004  17.672   5.412  0.1793 -0.1547 -0.2083
32779W        W48248   6.810   2.788   0.813 -0.3142 -0.1234 -0.2418
32780W        W48249  10.250   6.256   4.914  0.1720 -0.0124 -0.1653
32781W        W48250   1.043  12.580   2.586  0.2229  0.4249 -0.1867
32782W        W48251  11.511   6.843   4.797 -0.4165 -0.0824 -0.0998
32783W        W48252   6.496  11.993   9.901  0.0677  0.0614  0.0856
32784W        W48253  12.151   6.397  11.032  0.1912 -0.2305  0.0055
32785W        W48254  14.122   3.825  11.937  0.2999  0.3220  0.0477
32786W        W48255   0.340   9.638   0.203 -0.2269  0.0820  0.1288
32787W        W48256   9.880  11.038  13.082  0.0338  0.2818 -0.1740
32788W        W48257  15.385   4.362   1.162 -0.1911  0.1256 -0.1793
32789W        W48258   9.060   8.394  13.067 -0.1292  0.1880  0.1940
32790W        W48259   0.687  16.920   0.641  0.1659  0.1037  0.0769
32791W        W48260   2.570  18.096   0.547 -0.1255  0.0147 -0.0185
32792W        W48261   5.657   3.377  11.705 -0.2422  0.0579  0.0932
32793W        W48262  13.035  15.384   0.976  0.2394 -0.3014 -0.0957
32794W        W48263  13.023  17.816   4.722  0.1336 -0.0592  0.1701
32795W        W48264  12.523  13.028   2.925 -0.1660 -0.2571 -0.0285
32796W        W48265   2.958  10.916   5.710 -0.0041  0.2013 -0.1093
32797W        W48266  12.921  17.118  10.477  0.1032  0.0347 -0.0965
32798W        W48267   6.184   3.173  11.798  0.0567 -0.2048 -0.2079
32799W        W48268   2.339   3.901  13.832  0.2036 -0.1415  0.0180
32800W        W48269   3.280  13.117   5.241  0.1907 -0.3199 -0.0856
32801W        W48270  10.164   3.343  14.749 -0.0437  0.0772  0.2753
32802W        W48271   8.831  18.472   4.352  0.1503 -0.1944 -0.1128
32803W        W48272   6.946  13.003  13.998  0.0280 -0.0915  0.1565
32804W        W48273  12.876   4.666   3.539 -0.1192  0.3112 -0.0752
32805W        W48274   9.591   9.560  13.125  0.2469  0.0909 -0.1431
32806W        W48275  10.278   5.933   4.498  0.1863  0.1187  0.1813
32807W        W48276   8.813   9.190  15.274  0.2277  0.2381 -0.0778
32808W        W48277  15.470  11.764   2.503  0.1683  0.1211 -0.1780
32809W        W48278   2.076   8.509   3.949  0.2804 -0.0427 -0.1673
32810W        W48279  17.054   7.368   2.070  0.2457  0.0221 -0.2729
32811W        W48280  10.168   7.859  12.136 -0.0569  0.0288 -0.2002
32812W        W48281  14.127   2.965   0.326  0.1112  0.2288 -0.1802
32813W        W48282   0.766   3.691  15.311 -0.3525  0.0323 -0.4736
32814W        W48283   5.702   2.921  14.086 -0.2143  0.1370 -0.2657
32815W        W48284   9.477  10.437  15.007  0.1326 -0.0607  0.3453
32816W        W48285   7.350  12.059   0.062 -0.2124  0.2538  0.0319
32817W        W48286  13.838   1.702  15.409 -0.2476 -0.2527  0.1298
32818W        W48287  14.960  13.236  14.920  0.1743  0.0886  0.1035
32819W        W48288  18.422  17.929  12.130 -0.3112  0.1998 -0.1599
32820W        W48289  12.078  12.177   2.925 -0.2143 -0.1029 -0.1303
32821W        W48290   7.824   2.444   4.084 -0.2739  0.0387  0.3314
32822W        W48291   3.413   4.135   1.622 -0.1435  0.0545  0.3556
32823W        W48292   4.314  15.947  13.088 -0.1184 -0.0663  0.0583
32824W        W48293   9.302  17.440   3.194  0.3695 -0.0118  0.3386
32825W        W48294  16.937   2.810   2.907  0.1019 -0.0768  0.1171
32826W        W48295  17.560  16.524  14.896  0.4636 -0.1300 -0.0484
32827W        W48296  11.066  10.032  15.410  0.0091  0.1726 -0.2275
32828W        W48297   4.901   4.671   0.282  0.1025  0.0979  0.2972
32829W        W48298  10.848  10.329   0.005  0.0884  0.0543  0.0733
32830W        W48299   7.417   6.076  13.729 -0.1781 -0.2510 -0.1363
32831W        W48300   2.633  17.421  14.565  0.0018 -0.1069  0.3280
32832W        W48301   9.062   7.149  11.755  0.1029 -0.0147 -0.0244
32833W        W48302   7.358  10.292  11.289 -0.1471 -0.0223  0.1671
32834W        W48303   5.239   9.115   0.093 -0.1281  0.0861 -0.0236
32835W        W48304   8.349  18.338   0.635 -0.1311 -0.0603 -0.0712
32836W        W48305  17.412   3.616  12.878 -0.1012  0.1059 -0.0948
32837W        W48306  11.995   0.860   3.299  0.1039  0.0381 -0.0986
32838W        W48307   1.083  16.419   4.874 -0.0917 -0.0650  0.0048
32839W        W48308   5.512   7.481   2.126 -0.1875  0.0982  0.2220
32840W        W48309   8.987   4.713  12.506  0.0994  0.1265 -0.0827
32841W        W48310  14.618   6.532   0.757 -0.0649 -0.0520 -0.1527
32842W        W48311  10.722  16.056  11.830  0.1195  0.0939 -0.1917
32843W        W48312  14.484  16.603  13.449  0.1123 -0.1123 -0.2734
32844W        W48313  14.726   3.307   2.824 -0.0497  0.2328  0.2986
32845W        W48314   3.150   9.390  15.292  0.1487 -0.2045 -0.3684
32846W        W48315   6.196  16.985   0.779 -0.0997 -0.1065 -0.1277
32847W        W48316   0.811  14.889  11.832  0.1064 -0.2378 -0.0208
32848W        W48317  16.595   4.173  15.339  0.0811 -0.3764  0.2278
32849W        W48318  17.267  17.200   3.872 -0.1453  0.2147  0.0541
32850W        W48319  16.062   9.509  14.782  0.1381  0.2572 -0.1419
32851W        W48320  13.516   8.209  14.614 -0.2196 -0.0448 -0.2603
32852W        W48321  10.625   6.412  12.819  0.1168 -0.1193 -0.2457
32853W        W48322   8.339   9.593  15.613  0.0706  0.2907  0.0084
32854W        W48323   1.946  12.082   3.694  0.0391  0.1786  0.2519
32855W        W48324   7.811   5.216   3.022  0.0869 -0.0441 -0.0050
32856W        W48325   6.488   9.608  15.248 -0.1217 -0.3141 -0.1396
32857W        W48326   2.526  16.308   2.014  0.0123  0.1567  0.0017
32858W        W48327   6.748   9.891   0.357  0.3276  0.0581  0.4402
32859W        W48328  17.748   1.723  11.706  0.0058  0.1582  0.1803
32860W        W48329   4.017   2.276   5.137  0.0478  0.1943  0.0919
32861W        W48330   7.877   4.978   0.113 -0.2148 -0.0004 -0.0044
32862W        W48331  16.638  17.426  14.693 -0.0220  0.1919 -0.0889
32863W        W48332  18.164   8.186  13.622  0.0771  0.0408 -0.1605
32864W        W48333   4.048   6.580  12.620  0.0093 -0.1140  0.1384
32865W        W48334   0.262  10.990   1.513  0.1608 -0.0656 -0.1450
32866W        W48335   7.472  16.416   0.328  0.1243  0.2706 -0.0943
32867W        W48336   2.290  15.057   3.707 -0.1594  0.0369 -0.2650
32868W        W48337   6.350   8.320  15.379  0.0838  0.0182  0.1569
32869W        W48338  14.123   6.667   0.760 -0.1591  0.5605  0.0471
32870W        W48339   0.071   6.814  14.394  0.1197 -0.1444 -0.1345
32871W        W48340  17.489   8.491   9.991 -0.2241 -0.2346  0.0507
32872W        W48341  18.079   8.129   2.575 -0.1521 -0.1362 -0.2321
32873W        W48342   4.858   8.764   4.153  0.0477  0.0204  0.0897
32874W        W48343  15.782   3.375   4.281  0.0805 -0.0455  0.2203
32875W        W48344  13.687  14.608  11.971 -0.1226  0.3169 -0.0644
32876W        W48345   3.053  14.397  11.808 -0.1615  0.0181  0.1510
32877W        W48346  15.863  10.863  13.602  0.3379  0.5455 -0.1674
32878W        W48347   7.446   2.045  12.680 -0.3042 -0.0653 -0.0641
32879W        W48348   5.267   0.580  14.330  0.1313 -0.1165  0.0511
32880W        W48349  13.704   5.850   2.536 -0.1641  0.1165 -0.0444
32881W        W48350   0.398  12.199   2.947 -0.0361 -0.2449  0.0634
32882W        W48351   7.924   5.714  12.666  0.2851 -0.0343  0.1182
32883W        W48352   9.409   9.953  14.840  0.2037  0.1832 -0.0419
32884W        W48353  18.242   1.582   5.057  0.1883 -0.3270 -0.2925
32885W        W48354   7.006   6.379  15.520 -0.0147  0.0049 -0.0873
32886W        W48355  16.616  10.853   3.860 -0.2365  0.2411 -0.2081
32887W        W48356  13.791  16.649  14.446 -0.0022 -0.3890  0.0592
32888W        W48357  10.273  11.711   4.205 -0.1135 -0.2228 -0.2633
32889W        W48358  16.565  12.634   1.199 -0.0849 -0.5105 -0.2706
32890W        W48359  17.123   4.792   2.723  0.4393 -0.0130  0.0928
32891W        W48360   3.463  10.127  10.353 -0.0528  0.4269 -0.0199
32892W        W48361   5.656   2.445   1.313 -0.0251  0.1153 -0.0579
32893W        W48362   7.206   5.812   2.590 -0.0066 -0.3650  0.0929
32894W        W48363   0.579  11.284  15.839 -0.1104  0.1008  0.3123
32895W        W48364  15.222   4.724  15.372 -0.0924 -0.0731 -0.1080
32896W        W48365   5.073   3.178  13.426  0.4412 -0.3232 -0.1850
32897W        W48366   7.514  15.415   3.431 -0.0647 -0.0024  0.2679
32898W        W48367  11.435   7.418   3.900 -0.2689 -0.2285  0.1231
32899W        W48368   2.025  10.267   0.972 -0.0506 -0.0668 -0.2758
32900ION     NA48369   0.281   1.809  15.880  0.1653  0.1026  0.0876
32901ION     NA48370  15.622  12.734   9.957 -0.0824  0.1300  0.2011
32902ION     NA48371  15.584   4.738   3.889  0.3935 -0.0267 -0.3346
32903ION     NA48372   9.183  12.647  15.506 -0.1972  0.1007 -0.0841
32904ION     NA48373  11.777   0.117   1.735  0.0010  0.0396 -0.3453
32905ION     NA48374  17.033  16.066  10.158  0.2693  0.1035  0.1152
32906ION     NA48375  18.184  16.404   4.736 -0.0762  0.0625  0.0575
32907ION     NA48376  11.396  13.796  14.279  0.2004 -0.2102 -0.2066
32908ION     NA48377   0.215   6.004  12.093  0.0167  0.0995  0.3863
32909ION     NA48378  14.231   3.273   3.234  0.3297  0.0990  0.3088
32910ION     NA48379  13.435  15.352   9.886 -0.0463  0.0639 -0.3020
32911ION     NA48380  16.962  15.030   3.807 -0.1027 -0.1731  0.5462
32912ION     NA48381  16.883   7.049   1.648  0.0694  0.3457 -0.2595
32913ION     NA48382  16.170  16.707  15.205  0.3440  0.1460 -0.1648
32914ION     NA48383  16.068  14.450   1.560 -0.0498  0.0088  0.0577
32915ION     NA48384  18.173  17.887  10.379 -0.0779  0.2221  0.1401
32916ION     NA48385   2.775   0.858  15.641 -0.1746  0.2882 -0.2314
32917ION     NA48386   6.580   1.640  12.752 -0.0307  0.1935  0.2840
32918ION     NA48387   0.147  17.524  12.662  0.0647  0.0529  0.3459
32919ION     NA48388   7.796  12.967  10.191  0.0216  0.2079 -0.2238
32920ION     NA48389   2.918   6.673   2.281  0.0128  0.1048 -0.0535
32921ION     NA48390   7.083   3.373   9.926 -0.1442  0.2860 -0.0667
32922ION     NA48391   8.228   9.087   1.386 -0.0740  0.1821  0.0398
32923ION     NA48392  16.867   5.899   4.910  0.1928  0.0745 -0.2461
32924ION     NA48393   0.690   0.668  14.730  0.0145  0.0090  0.1792
32925ION     NA48394  11.740   8.167   5.439 -0.1278  0.1175 -0.0055
32926ION     NA48395   8.786   1.609  13.124  0.1446 -0.1913  0.0520
32927ION     NA48396   0.584   8.144  13.631  0.1538 -0.0370  0.1017
32928ION     NA48397   0.376   0.413   1.735 -0.1036  0.2296  0.0140
32929ION     NA48398  12.836   0.892   3.099  0.0387 -0.0729 -0.1453
32930ION     NA48399  13.477   0.207  13.710  0.0764  0.1167 -0.1152
32931ION     NA48400  17.808   7.649   2.395  0.0328 -0.1195  0.2355
32932ION     NA48401   5.880  18.168   1.461  0.0116  0.2055  0.0904
32933ION     NA48402   6.905   0.684  10.244 -0.0941  0.0771  0.0524
32934ION     NA48403   1.104   5.492   2.044  0.0635  0.0090  0.0759
32935ION     NA48404  11.901  15.741   6.017 -0.0195 -0.1451 -0.2991
32936ION     NA48405   5.400  14.921  10.389 -0.2476 -0.0212 -0.3169
32937ION     NA48406   3.995  14.897   5.780 -0.2613  0.3473  0.2454
32938ION     NA48407  15.108   6.800   5.058 -0.0962  0.1477  0.2566
32939ION     NA48408   5.694   7.399   5.780 -0.0589 -0.1596  0.1325
32940ION     NA48409   0.218   0.888   3.534 -0.0480  0.0853  0.3184
32941ION     NA48410  13.887  11.062   1.366 -0.1536  0.0508 -0.0866
32942ION     NA48411   1.778  16.084  10.193 -0.3779  0.0680  0.0576
32943ION     NA48412  14.830  14.580   5.658 -0.0527  0.0767  0.0519
32944ION     NA48413   7.107  18.158  10.123  0.0233  0.4194  0.0164
32945ION     NA48414   7.022   8.295   5.696 -0.1883 -0.2016 -0.2710
32946ION     NA48415   7.431  11.528   5.629  0.0419 -0.1470  0.3502
32947ION     NA48416   7.160  17.219   0.516 -0.0060 -0.0983 -0.1599
32948ION     NA48417  14.646   0.515  10.086 -0.2335 -0.0135  0.2423
32949ION     NA48418   3.388   5.247   0.231  0.1253 -0.3124  0.0599
32950ION     NA48419  18.314   7.706   2.647 -0.2621  0.0693  0.1510
32951ION     NA48420   5.591   0.959  14.028 -0.0958  0.2945  0.2878
32952ION     NA48421   3.683   8.240  10.565 -0.1481 -0.2106  0.2635
32953ION     NA48422   0.146   0.932  10.438  0.3782 -0.0170 -0.2686
32954ION     NA48423   3.613   5.727  14.020 -0.1993 -0.0935 -0.0011
32955ION     NA48424   4.346  10.466  10.024 -0.3638 -0.0516  0.1714
32956ION     NA48425   9.009  17.046   2.875  0.2104  0.0788 -0.0349
32957ION     NA48426  11.012  17.912  10.636 -0.2470  0.1241 -0.1226
32958ION     NA48427  13.652   3.626  13.798  0.0077 -0.0953  0.1331
32959ION     NA48428  13.500   3.504   9.632  0.0894 -0.0362  0.2424
32960ION     NA48429  17.483  11.280   9.680  0.0666  0.0091  0.0656
32961ION     NA48430   8.867   8.289  13.553  0.1379  0.1859 -0.1112
32962ION     NA48431   9.578  13.301   5.720  0.2959 -0.0553  0.1179
32963ION     NA48432  13.487   5.333  12.546 -0.2538  0.1287 -0.0651
32964ION     NA48433  14.068  11.697   5.378 -0.0311  0.0117  0.2929
32965ION     NA48434  15.916  11.232  14.631  0.1677 -0.1455  0.2758
32966ION     NA48435  13.780   2.676   5.709  0.0126 -0.0656  0.0365
32967ION     NA48436   7.238   9.412  11.571  0.1014  0.0498 -0.3260
32968ION     NA48437   0.432   1.865   1.784  0.3010  0.3123 -0.6493
32969ION     NA48438  17.064  12.156  14.482 -0.0040 -0.0317 -0.2818
32970ION     NA48439  13.446  12.114  15.297  0.0569  0.1802  0.0923
32971ION     NA48440  14.646  11.553  10.009  0.1915  0.2027 -0.1516
32972ION     NA48441  11.540   7.652  13.348 -0.0162  0.1411  0.0450
32973ION     NA48442  14.385  17.603   0.967  0.0860 -0.1550  0.0833
32974ION     NA48443  14.887   3.445   0.255 -0.0874  0.0226 -0.0933
32975ION     NA48444  16.002   5.443  11.726 -0.0086  0.2482 -0.1388
32976ION     NA48445  10.031   1.311   1.803 -0.1612 -0.0577 -0.1797
32977ION     NA48446   3.322   3.269   6.269  0.1291  0.2927  0.0817
32978ION     NA48447   6.212  12.426   4.423 -0.2249  0.2961 -0.1084
32979ION     NA48448   9.294   6.377   1.268 -0.0955  0.2488  0.1333
32980ION     NA48449  15.310  14.140   4.269  0.1690  0.0605 -0.0847
32981ION     NA48450   5.902   8.673  12.699  0.0897 -0.2253 -0.0780
32982ION     NA48451   7.437  12.463  13.314 -0.0557  0.1139 -0.0192
32983ION     NA48452   5.003  15.605  10.327 -0.1216  0.2577  0.3436
32984ION     NA48453  14.096   5.507   5.580  0.1419 -0.1263 -0.1157
32985ION     NA48454  11.158  15.563  13.287 -0.2562  0.0895  0.2606
32986ION     NA48455  12.776   8.762   9.998 -0.2195 -0.0937  0.1829
32987ION     NA48456   5.402   9.949   0.536  0.2533  0.1664 -0.2666
32988ION     NA48457   2.598  11.323   0.844  0.1629  0.1334 -0.1569
32989ION     NA48458  11.731  11.800  10.124  0.1975  0.0793  0.1729
32990ION     NA48459   4.052   3.260   5.202  0.0224  0.1622  0.1149
32991ION     NA48460  15.750   8.179  11.698  0.0967  0.1742  0.2855
32992ION     NA48461  12.297   7.936   1.068  0.0655 -0.0035 -0.2223
32993ION     NA48462  13.187  10.090  10.460  0.0271  0.0830 -0.2724
32994ION     NA48463   6.249  16.528  14.626 -0.0756 -0.3987 -0.0354
32995ION     NA48464   9.983   1.360  13.307 -0.0361  0.0546 -0.2074
32996ION     NA48465   7.940   3.526  10.435 -0.1209  0.4112 -0.0976
32997ION     NA48466   2.023  17.609   4.984  0.2753  0.3134  0.0502
32998ION     NA48467   6.453   1.509  10.532 -0.1672  0.0002  0.1751
32999ION     NA48468  17.747   6.572  10.038  0.3964 -0.3508 -0.0085
33000ION     NA48469  11.767   7.152   1.406 -0.1151 -0.0306 -0.2258
33001ION     NA48470   0.816  16.190   1.035 -0.0914  0.1231 -0.1119
33002ION     NA48471   0.251   8.956   9.682  0.1008  0.2458  0.1254
33003ION     NA48472  10.540  12.516   2.928  0.1557 -0.0213 -0.1645
33004ION     NA48473   5.475   4.273   3.352  0.1187  0.1293 -0.0857
33005ION     NA48474   3.775   1.123   6.123 -0.0157  0.1792 -0.1551
33006ION     NA48475  12.561  11.059  10.036  0.1149  0.2114 -0.0884
33007ION     NA48476  17.948   3.841  13.550 -0.1756  0.1376  0.0195
33008ION     NA48477  13.849  12.082  10.034  0.0310 -0.0661 -0.1561
33009ION     NA48478  11.440  10.190   1.705  0.0315  0.1160  0.0769
33010ION     NA48479  17.090   8.988   9.835  0.0025  0.1867 -0.0426
33011ION     NA48480   7.975   8.599  10.253  0.5113 -0.4424  0.2599
33012ION     NA48481   5.853   5.159   4.945  0.0958  0.1111 -0.0681
33013ION     NA48482   1.976  12.082   1.569  0.2220 -0.1117 -0.0712
33014ION     NA48483  16.983   1.376  12.994  0.0560  0.1885  0.2072
33015ION     NA48484   9.220   0.649  10.284 -0.0186  0.0697  0.0905
33016ION     NA48485   9.871  16.351  10.598  0.2576  0.2752 -0.2470
33017ION     NA48486   6.584  10.742  14.209  0.1288  0.0616 -0.1113
33018ION     NA48487  15.409  17.273  11.390 -0.0773  0.0166 -0.2488
33019ION     NA48488  11.521   4.970  11.834 -0.0686 -0.2400 -0.0146
33020ION     NA48489   3.658  10.538   1.334  0.1186  0.2810 -0.0938
33021ION     NA48490  11.981  15.854  14.152  0.0343 -0.1187 -0.1302
33022ION     NA48491   8.087   7.591  10.317 -0.0129  0.2045 -0.0977
33023ION     NA48492  15.737  11.752  14.155  0.2889 -0.0108  0.2424
33024ION     NA48493  11.592  13.739   3.469  0.1946 -0.0582  0.0523
33025ION     NA48494  15.826   4.099  10.367  0.0824 -0.0696 -0.0954
33026ION     NA48495  10.872   7.578   3.317  0.2003  0.1046 -0.0907
33027ION     NA48496   3.704   3.243   2.661 -0.1362 -0.0253  0.0255
33028ION     NA48497   9.760  18.113   6.096 -0.1935 -0.1364  0.0984
33029ION     NA48498  13.873   4.006   2.128  0.2485 -0.2050  0.0073
33030ION     NA48499   6.605   4.819  15.011  0.0742 -0.1989  0.0175
33031ION     NA48500  15.242   8.636  15.698 -0.0183 -0.0332 -0.1578
33032ION     NA48501  12.364  17.585  13.480  0.3443  0.0494 -0.1683
33033ION     NA48502  17.778   3.455   5.941  0.0144 -0.0807  0.0329
33034ION     NA48503  11.824   2.218   4.699 -0.0578 -0.1881  0.1683
33035ION     NA48504   6.422   6.343   3.484 -0.2058 -0.2505 -0.0341
33036ION     NA48505   4.795  13.379  14.735 -0.0558  0.2180  0.4217
33037ION     NA48506   0.608  12.786   1.483  0.2676 -0.0353 -0.0654
33038ION     NA48507  16.369   0.562  10.028 -0.0160 -0.1342 -0.0226
33039ION     NA48508   0.468   5.007   9.990 -0.2120 -0.0643  0.0913
33040ION     NA48509   7.611   5.517   5.599 -0.5764 -0.2363 -0.3947
33041ION     NA48510   7.104  17.868  12.481  0.1821 -0.2971  0.0579
33042ION     NA48511  15.561  15.026   3.594  0.1398 -0.0065 -0.1285
33043ION     NA48512   4.811   0.591   5.749 -0.1107  0.3987 -0.2760
33044ION     NA48513   9.016  16.719  10.432  0.0827  0.0047 -0.1971
33045ION     NA48514   0.312  10.528   9.661 -0.3138  0.2929  0.0756
33046ION     NA48515   7.280  15.030   5.807 -0.0549  0.1489 -0.3886
33047ION     NA48516   0.388  12.917   9.806 -0.0777  0.0008 -0.0944
33048ION     NA48517   7.322  10.797   5.586  0.3544 -0.1629 -0.0460
33049ION     NA48518   6.253   9.932   1.943  0.1004 -0.2756  0.1411
33050ION     NA48519   6.507  15.347   0.702 -0.3417  0.0148  0.3936
33051ION     NA48520  11.983   3.913   9.806 -0.2656  0.3559 -0.0434
33052ION     NA48521  18.042   1.909   3.612  0.1170  0.0582 -0.5513
33053ION     NA48522   6.982   4.240  10.090  0.1984  0.0453 -0.1186
33054ION     NA48523   9.140  12.596  11.864  0.1309 -0.2070 -0.2070
33055ION     NA48524   7.313   7.657   5.124  0.3708 -0.0707  0.2379
33056ION     NA48525   6.613   4.624  15.464  0.0588  0.1812 -0.0844
33057ION     NA48526  14.665   9.223  10.857 -0.3539  0.2522 -0.3096
33058ION     NA48527  14.679   9.851   4.532 -0.1255  0.0081 -0.2228
33059ION     NA48528   5.196  17.148   6.030  0.2284  0.0797  0.3148
33060ION     NA48529  16.771  17.602   1.365 -0.2270 -0.4607  0.0318
33061ION     NA48530   7.471  17.542  15.189  0.1195  0.0649 -0.0558
33062ION     NA48531   2.478   2.528   2.221  0.1586 -0.0692  0.2775
33063ION     NA48532  15.841  12.514  12.602 -0.2445  0.2136  0.2179
33064ION     NA48533  15.415   2.355   2.552  0.2256  0.2241  0.1947
33065ION     NA48534   2.197  12.231   4.127 -0.1419  0.1985 -0.0156
33066ION     NA48535   7.574   2.044  10.360 -0.0138 -0.0501  0.1626
33067ION     NA48536  11.416  17.894  13.800 -0.2893 -0.2590 -0.1053
33068ION     NA48537  13.549   0.166   3.432 -0.3019  0.1258  0.0418
33069ION     NA48538   8.876   8.938   9.933 -0.1192 -0.0768 -0.0072
33070ION     NA48539   4.556   7.357  10.106  0.2080 -0.2212  0.0472
33071ION     NA48540  15.354  15.417   5.906 -0.1140 -0.0865  0.0456
33072ION     NA48541   1.925  11.504  12.535 -0.1703 -0.1072 -0.2136
33073ION     NA48542  10.278   9.130  14.647 -0.1261  0.1797 -0.0385
33074ION     NA48543  11.296  12.554  10.191 -0.0763  0.1015 -0.0307
33075ION     NA48544   3.743   6.995  10.449  0.0491  0.2706 -0.2210
33076ION     NA48545  18.462  17.355   4.584 -0.0542 -0.0492  0.1411
33077ION     NA48546   5.994   7.904  13.383 -0.1642  0.1475  0.2346
33078ION     NA48547  16.235  12.198   1.679  0.3822  0.2123  0.0852
33079ION     NA48548  15.292  12.739  12.039  0.0275  0.0736  0.0874
33080ION     NA48549  14.155   0.164   0.393 -0.0588  0.3657  0.0512
33081ION     NA48550  11.371  15.469  10.530 -0.2173  0.1169 -0.0374
33082ION     NA48551  17.060   1.334  12.251  0.1462 -0.2293 -0.0413
33083ION     NA48552   2.866  12.488   0.676 -0.0381 -0.5573 -0.0127
33084ION     NA48553   7.841   6.528  10.055 -0.5042  0.0815  0.1491
33085ION     NA48554  12.558   2.519  13.846  0.0259 -0.1505 -0.1361
33086ION     NA48555   7.510  11.904   0.516  0.1427  0.1193  0.2382
33087ION     NA48556  16.822   3.452  12.921  0.1484  0.3120 -0.0620
33088ION     NA48557  12.752  13.545  10.144  0.3541  0.4551  0.2424
33089ION     NA48558   4.165   9.240  13.468 -0.0174 -0.0482 -0.1169
33090ION     NA48559  10.193   7.409   5.797 -0.1264 -0.0483 -0.2687
33091ION     NA48560   8.865  13.951   3.564  0.0342  0.2447  0.0172
33092ION     NA48561  14.848  13.799   1.293 -0.0531  0.0508 -0.0723
33093ION     NA48562   9.464   9.796   5.214 -0.1297 -0.2266  0.2630
33094ION     NA48563  12.879  16.497  14.404  0.2101  0.2418  0.0862
33095ION     NA48564   5.058   6.291   1.127 -0.0408  0.0392 -0.4569
33096ION     NA48565   5.478  12.442   3.116 -0.2886  0.1412  0.0934
33097ION     NA48566   2.579  18.352  10.259  0.0125 -0.1130  0.0230
33098ION     NA48567  18.443   4.148  11.742  0.0595 -0.1615  0.0341
33099ION     NA48568  10.349   8.425  10.294  0.0219  0.2205  0.3944
33100ION     NA48569   3.966  13.901   1.793  0.1260  0.4442  0.0776
33101ION     NA48570  10.949  11.676  10.267 -0.1921 -0.0199 -0.1110
33102ION     NA48571  14.057  10.179   5.025  0.0097  0.2801  0.4056
33103ION     NA48572  18.220  18.140   0.420 -0.2058 -0.0245 -0.0390
33104ION     NA48573   3.397  16.045  12.460 -0.2052 -0.0932  0.0603
33105ION     NA48574   1.753  15.912   5.352 -0.2170  0.1368 -0.4957
33106ION     NA48575   3.422   0.007  12.684 -0.0111 -0.0017  0.0746
33107ION     NA48576   2.165   8.425   5.927 -0.1599  0.0298  0.0303
33108ION     NA48577  13.105   2.167   5.857  0.1446 -0.1125  0.2490
33109ION     NA48578  18.160   3.829   5.837 -0.1161  0.3057  0.1009
33110ION     NA48579  17.129   1.390   0.629 -0.0126  0.0946  0.1239
33111ION     NA48580   5.072   9.680   5.374 -0.0852 -0.0529  0.3023
33112ION     NA48581   3.688   4.760   5.780 -0.1310 -0.0676  0.0513
33113ION     NA48582   5.752   9.152   2.315  0.1625  0.2659 -0.0922
33114ION     NA48583   8.458  17.091  14.308  0.0775  0.1497  0.1246
33115ION     NA48584   1.735  16.278  12.896  0.0038  0.0226 -0.2337
33116ION     NA48585  12.943   6.703   0.608 -0.1577  0.2763 -0.2437
33117ION     NA48586  16.502   5.472   3.741  0.2208 -0.0825  0.2618
33118ION     NA48587   6.192  13.140  15.660  0.1662  0.0486 -0.0509
33119ION     NA48588  11.135  12.951   1.375  0.1443 -0.2087  0.1655
33120ION     NA48589  10.130   4.256   9.919  0.1883 -0.0100  0.0508
33121ION     NA48590  13.163   5.882  12.877  0.0147 -0.0087  0.0500
33122ION     NA48591  13.849  13.571  10.153  0.0685  0.2047  0.1749
33123ION     NA48592   1.368   5.281  10.164  0.2168 -0.2211  0.1537
33124ION     NA48593   2.474  10.721  14.324 -0.0663  0.2027  0.0667
33125ION     NA48594  15.633   8.356  14.300  0.1927  0.1177 -0.2402
33126ION     NA48595  11.168   3.652   0.459 -0.2521 -0.2236 -0.0655
33127ION     NA48596   1.229   7.314   5.713  0.1257 -0.5649  0.1669
33128ION     NA48597  12.612   5.258   2.950  0.1603 -0.1233 -0.1154
33129ION     NA48598  18.189   7.497  13.588 -0.0857 -0.4003 -0.3222
33130ION     NA48599   5.168   7.730  10.745  0.0256 -0.2749 -0.1564
33131ION     NA48600  12.132  15.569   5.171 -0.0678 -0.2558 -0.1508
33132ION     NA48601  10.628  14.624   5.232  0.1542  0.2424 -0.3497
33133ION     NA48602  17.975  14.454  14.443  0.3033 -0.1888  0.1902
33134ION     NA48603   4.520   8.144   3.389 -0.1334 -0.2293 -0.3937
33135ION     NA48604  15.731   0.754   1.940  0.0860 -0.0348 -0.0373
33136ION     NA48605  14.709  15.368   3.139  0.0281  0.2389 -0.0136
33137ION     NA48606   0.110  13.765   9.940 -0.3778 -0.0355  0.0124
33138ION     NA48607  12.957   6.330   5.719 -0.2780 -0.0503 -0.0627
33139ION     NA48608  11.110   1.980  12.776  0.4919 -0.0010  0.3233
33140ION     NA48609  17.761  12.454  15.527  0.2092  0.0713 -0.2042
33141ION     NA48610  15.548  14.879   0.524 -0.1786  0.3183 -0.0548
33142ION     NA48611   8.567  15.640   2.550  0.1540 -0.2308 -0.1723
33143ION     NA48612   0.602   6.973   9.944 -0.1044 -0.1919 -0.3089
33144ION     NA48613   0.389   3.391   1.046 -0.2222  0.4263  0.0024
33145ION     NA48614  18.307   4.475   4.907 -0.1264  0.4024 -0.0144
33146ION     NA48615   0.068   2.316  15.154 -0.2694  0.1533 -0.1119
33147ION     NA48616  12.690  10.901   4.864 -0.0313  0.2137  0.1628
33148ION     NA48617   3.510  13.732   4.420  0.2820 -0.0718 -0.0905
33149ION     NA48618   2.202   1.722  10.503 -0.0318 -0.0746 -0.2855
33150ION     NA48619  15.087  14.853   9.790  0.1374  0.0159 -0.2262
33151ION     NA48620   9.510  18.288  10.604  0.2236  0.0095 -0.0390
33152ION     NA48621  10.730  11.549   1.390  0.1538 -0.0377  0.2529
33153ION     NA48622   9.082   0.544   2.714  0.1658 -0.2690 -0.2009
33154ION     NA48623   2.507   9.402  13.559  0.2219 -0.1014 -0.0186
33155ION     NA48624  17.514  10.287   9.798  0.3388  0.1301 -0.1132
33156ION     NA48625   0.395  12.079   2.148 -0.0685  0.1856  0.1357
33157ION     NA48626  12.947  16.312   0.392  0.2035 -0.0853  0.0259
33158ION     NA48627   9.360   5.525   0.898 -0.2529  0.1440 -0.0496
33159ION     NA48628  15.184  14.017  13.749  0.2598  0.2403 -0.3717
33160ION     NA48629  18.362   6.981  15.241  0.1162  0.2398 -0.1528
33161ION     NA48630   7.372   3.519   2.083  0.0872  0.1530  0.1523
33162ION     NA48631  10.729   7.631   5.116  0.0861  0.0809  0.1812
33163ION     NA48632  10.317  18.469  10.503  0.0457  0.1812 -0.0145
33164ION     NA48633  10.040   7.164   9.866 -0.0888  0.0149  0.3845
33165ION     NA48634   6.440   8.071   4.986 -0.5605  0.2489 -0.0017
33166ION     NA48635  10.909   2.014   6.175 -0.1769  0.2326  0.0701
33167ION     NA48636  15.127   3.570   5.685 -0.0415  0.0159  0.0365
33168ION     NA48637   3.476   3.431  13.865 -0.0581  0.1079 -0.0004
33169ION     NA48638  11.768   2.115   2.034  0.0275  0.1383 -0.1759
33170ION     NA48639   1.250  14.145  10.097  0.3404  0.1030  0.1899
33171ION     NA48640   0.106  15.451   3.753 -0.0810 -0.0549  0.3932
33172ION     NA48641   1.070  15.675  10.235  0.3173 -0.0619 -0.1483
33173ION     NA48642  18.241   3.906   1.169  0.1726 -0.1067  0.0792
33174ION     NA48643   8.980  11.279   9.823  0.0102  0.2545  0.0992
33175ION     NA48644  12.471   9.495   5.076  0.0453  0.3737  0.1570
33176ION     NA48645  12.201  11.915   5.541 -0.2930 -0.0501  0.0711
33177ION     NA48646   5.558  12.979   2.216 -0.0438  0.2018  0.3670
33178ION     NA48647   5.023  10.150  15.002 -0.1024 -0.1497  0.0238
33179ION     NA48648  15.528   4.972  10.033  0.0898 -0.1662 -0.1365
33180ION     NA48649  12.589   6.479   2.196 -0.0126 -0.0750  0.3475
33181ION     NA48650  14.225   1.614   0.649  0.1781 -0.1557  0.2841
33182ION     NA48651   9.000   8.925   2.720  0.1327 -0.0152  0.3334
33183ION     NA48652   5.367  12.300  10.252 -0.1305  0.1345  0.1718
33184ION     NA48653  13.351  13.504   3.711  0.2489 -0.2855 -0.0204
33185ION     NA48654   5.734  10.979   3.338  0.0498  0.1414 -0.0876
33186ION     NA48655  15.547   7.945  15.600 -0.0544  0.0478 -0.0211
33187ION     NA48656  11.091  13.939  10.027  0.0488  0.0575 -0.2018
33188ION     NA48657   9.136  15.527  13.604  0.0623  0.0766 -0.0282
33189ION     NA48658   2.857   6.814  10.405  0.0882  0.2390 -0.1210
33190ION     NA48659  13.831  11.392   3.332  0.3465  0.1512  0.2265
33191ION     NA48660  14.151   3.045   1.385 -0.1170  0.3388 -0.1268
33192ION     NA48661  10.175  11.291  10.101 -0.1169 -0.2936 -0.1218
33193ION     NA48662   2.086  16.346  13.601  0.0772  0.3905 -0.0056
33194ION     NA48663  10.520  11.336  13.414 -0.3059 -0.1144 -0.2138
33195ION     NA48664  17.152   5.160   5.341 -0.3073  0.0374  0.0929
33196ION     NA48665   7.186  17.605  10.313 -0.2329  0.2767 -0.1967
33197ION     NA48666   0.509  11.096   5.351 -0.3595 -0.1169 -0.2392
33198ION     NA48667  16.220   3.449  10.149 -0.1688 -0.2896 -0.1005
33199ION     NA48668  16.440  15.713  14.248 -0.2148  0.0753 -0.0693
33200ION     NA48669  10.377  13.351   9.928 -0.0998 -0.5233  0.2510
33201ION     NA48670  11.732  10.335  10.221  0.0672  0.0462  0.3769
33202ION     NA48671  14.815  12.371  10.004  0.0217  0.2334 -0.0891
33203ION     NA48672   5.484   3.116  10.438  0.2468 -0.1324 -0.4021
33204ION     NA48673  17.736  16.738   5.729 -0.1979  0.3300 -0.0041
33205ION     NA48674  16.231  16.278   9.772 -0.2669  0.0629  0.2254
33206ION     NA48675   1.158  13.685   4.320  0.0204  0.1625 -0.0456
33207ION     NA48676  18.367   2.265   5.696 -0.1768 -0.2105 -0.0961
33208ION     NA48677  12.634   0.871   5.892 -0.3148 -0.0934  0.1844
33209ION     NA48678  11.171  10.490  13.458 -0.0619 -0.1879  0.0203
33210ION     NA48679   1.160   7.339  10.015 -0.3353  0.0758 -0.2659
33211ION     NA48680   0.588   9.093   1.382  0.0815 -0.2239 -0.0286
33212ION     NA48681   2.590  17.652  12.954  0.0915  0.2506 -0.0872
33213ION     NA48682  16.356   8.499   9.895 -0.3347  0.1355 -0.0066
33214ION     NA48683   6.422  14.726   5.969 -0.1063  0.2106  0.1142
33215ION     NA48684  11.933   8.168  10.039  0.3214 -0.0974 -0.1161
33216ION     NA48685   9.195  10.005  11.754  0.1441 -0.1644  0.0607
33217ION     NA48686  17.302   9.749  12.984 -0.2463 -0.3743  0.3074
33218ION     NA48687   4.754   2.050  12.011 -0.1780  0.2675 -0.0602
33219ION     NA48688   1.570  11.010   9.714 -0.0600 -0.0043 -0.2134
33220ION     NA48689   8.879  13.697  10.322 -0.1403 -0.0869 -0.2325
33221ION     NA48690  17.328  13.198   0.636  0.0373 -0.0863 -0.0379
33222ION     NA48691   2.256  14.845  11.988 -0.1040  0.1570 -0.0117
33223ION     NA48692  11.291  14.655   3.721  0.0636 -0.2129 -0.2566
33224ION     NA48693  14.055   4.327   9.776  0.1650  0.0847 -0.0222
33225ION     NA48694  14.043  10.032   5.785 -0.0338  0.1477  0.0253
33226ION     NA48695   0.453  14.920  10.005  0.1071  0.1789 -0.2108
33227ION     NA48696   3.257   6.192  15.475  0.2160  0.0885  0.0666
33228ION     NA48697   2.121   4.845   2.548 -0.0149  0.1244 -0.0735
33229ION     NA48698   4.944   6.533  10.461  0.0150 -0.0103 -0.0110
33230ION     NA48699   5.225  15.146   3.875 -0.0442  0.2442 -0.4902
33231ION     NA48700   6.421  15.570  10.287 -0.3572  0.0386  0.3724
33232ION     NA48701  10.551   1.247  10.775  0.0054 -0.1462 -0.1114
33233ION     NA48702  13.773  15.448   0.813  0.1308  0.1574  0.2839
33234ION     NA48703  11.723   0.077  12.206 -0.1483  0.1052  0.0917
33235ION     NA48704   8.545  11.338   5.859  0.0132  0.1702 -0.0005
33236ION     NA48705  17.451  10.509   5.448 -0.0542 -0.2993  0.1641
33237ION     NA48706   9.554  15.557   6.111 -0.1488 -0.0860 -0.0913
33238ION     NA48707   3.232  14.274  10.042 -0.2729  0.0529 -0.1491
33239ION     NA48708   2.387  17.964   5.912 -0.2451 -0.2046 -0.2783
33240ION     NA48709   9.396   0.541   6.088 -0.1205 -0.0916 -0.0094
33241ION     NA48710  16.940   8.842  13.810 -0.1472  0.1108  0.1716
33242ION     NA48711   2.546  14.710  10.217  0.0301  0.0661 -0.0239
33243ION     NA48712  17.188   4.557  11.793  0.0794 -0.1370  0.0995
33244ION     NA48713  12.358   7.516   5.893 -0.3253 -0.2108 -0.0354
33245ION     NA48714   6.194   7.504   1.545  0.1216  0.1159 -0.2571
33246ION     NA48715  11.885   5.797   9.851 -0.1297 -0.3423 -0.1502
33247ION     NA48716  12.632   4.819  14.896 -0.1107 -0.1436 -0.2054
33248ION     NA48717  12.694   2.053  10.248 -0.2570 -0.1745 -0.1805
33249ION     NA48718  16.681   5.833   9.869 -0.0717 -0.3174 -0.0937
33250ION     NA48719  17.272   9.079  15.874  0.0563  0.1916 -0.0244
33251ION     NA48720   5.172  16.102   3.592 -0.1528  0.0154  0.2134
33252ION     NA48721  12.714   7.721   4.454  0.0202 -0.1491  0.2597
33253ION     NA48722  10.661   5.888   2.128 -0.1750  0.0700  0.0302
33254ION     NA48723   2.802   3.530  10.173  0.2391 -0.2981 -0.1369
33255ION     NA48724   2.708  12.551   2.727 -0.0270 -0.2200  0.4086
33256ION     NA48725   6.999   5.230  11.826 -0.0331  0.2448 -0.1015
33257ION     NA48726  16.945   6.838   9.871  0.4936 -0.0091 -0.0853
33258ION     NA48727   8.174   3.837  12.645 -0.0406 -0.0552  0.1533
33259ION     NA48728  12.236   8.624  15.173  0.1312  0.3210 -0.2371
33260ION     NA48729   8.201   0.152   5.257 -0.2385 -0.1781 -0.2666
33261ION     NA48730   9.438   3.975   3.064  0.0589 -0.0589  0.1661
33262ION     NA48731  17.253  13.731   5.698 -0.3894  0.0913 -0.1388
33263ION     NA48732  17.387  10.958   3.174 -0.1976  0.0747  0.1649
33264ION     NA48733  15.897   1.176   3.590 -0.3906  0.0832 -0.3250
33265ION     NA48734   9.919  16.939  12.399  0.0595  0.1433  0.1198
33266ION     NA48735   3.614  15.475   3.280 -0.0120 -0.2081  0.2459
33267ION     NA48736   7.105   8.781  10.222  0.0456  0.2371  0.3501
33268ION     NA48737  11.994   4.106  13.377 -0.0255  0.2716  0.2138
33269ION     NA48738  10.007   9.671  15.282 -0.2947 -0.0384 -0.1042
33270ION     NA48739   3.037   5.144  13.300  0.0198  0.0469  0.1027
33271ION     NA48740  11.880  17.316  15.415  0.0752 -0.0152 -0.0314
33272ION     NA48741   5.838  10.413   4.578  0.1818 -0.0645  0.0514
33273ION     NA48742  10.127  12.190   9.774 -0.0789  0.1510  0.0012
33274ION     NA48743   7.133  10.754  10.221 -0.1630 -0.0829  0.1650
33275ION     NA48744   3.141  17.137  10.159  0.3735  0.0520 -0.3524
33276ION     NA48745   4.627   6.629  15.697 -0.0940  0.1756 -0.0180
33277ION     NA48746   4.808   5.548   2.632 -0.2076 -0.5234  0.0473
33278ION     NA48747   5.411  11.097  10.579  0.3416 -0.1438 -0.1526
33279ION     NA48748   3.056  10.453  11.602 -0.4038  0.0899 -0.0692
33280ION     NA48749  15.475  15.310   2.383  0.3061 -0.2708 -0.0314
33281ION     NA48750  16.100  15.884   5.654 -0.0332 -0.1697 -0.0771
33282ION     NA48751   6.970  10.940   5.073 -0.0851  0.4133  0.2155
33283ION     NA48752   3.278  15.692   5.766  0.3361  0.4319 -0.2228
33284ION     NA48753  14.598   7.913   5.573  0.0121 -0.0591 -0.0205
33285ION     NA48754  12.087  18.080  14.357 -0.1393 -0.3292  0.0988
33286ION     NA48755   1.048  17.359   1.251 -0.3415 -0.2837  0.1611
33287ION     NA48756   3.622  14.216   0.140 -0.0827  0.1275 -0.2021
33288ION     NA48757   8.094  11.911   3.572  0.1152 -0.1851  0.3963
33289ION     NA48758   4.231   5.524  10.110 -0.0098 -0.0161  0.0912
33290ION     NA48759   9.250   4.046   9.680 -0.2626 -0.0622 -0.1565
33291ION     NA48760   9.931  16.416   6.229  0.3647 -0.1709 -0.0140
33292ION     NA48761   0.308   4.895  15.748  0.0908  0.4003  0.0773
33293ION     NA48762   7.101  14.210   4.737  0.0254 -0.1031  0.0476
33294ION     NA48763   8.629   6.167  13.612  0.0710 -0.5307 -0.0685
33295ION     NA48764   5.724   9.899  10.116 -0.0939 -0.2733 -0.1491
33296ION     NA48765  14.178  14.570   1.977 -0.1627 -0.0280 -0.2695
33297ION     NA48766   9.964  13.122   0.006  0.2488 -0.1279 -0.0125
33298ION     NA48767  10.607   7.227  15.834  0.0439  0.1748  0.3281
33299ION     NA48768   3.461   5.778  10.629 -0.0080 -0.2390  0.0450
33300ION     NA48769   8.877  11.362   0.769  0.0749  0.0805 -0.0777
33301ION     NA48770  12.280  14.841  13.964  0.1554 -0.1332  0.1019
33302ION     NA48771   5.329  17.432   5.080  0.0920 -0.1013 -0.3669
33303ION     NA48772   2.581  15.668  10.248  0.2767  0.1068  0.0443
33304ION     NA48773   8.449  11.895  10.147 -0.0611 -0.0155 -0.0447
33305ION     NA48774  14.165  10.026   9.997  0.1512 -0.2375 -0.1215
33306ION     NA48775   3.466  18.166  10.077  0.3645 -0.0787 -0.0596
33307ION     NA48776  13.136  17.099   6.175 -0.0135 -0.0397  0.2759
33308ION     NA48777   5.517  17.794   2.623  0.0872 -0.0527  0.0209
33309ION     NA48778   6.271  11.137   0.562 -0.2649 -0.1635 -0.0820
33310ION     NA48779  11.721   7.218   9.915 -0.2763  0.0970 -0.1204
33311ION     NA48780   8.255  10.567  15.646  0.2377 -0.4017  0.0467
33312ION     NA48781   5.614   6.610   5.440  0.0636  0.2080  0.3070
33313ION     NA48782   3.891   2.339  10.648  0.0534  0.3222  0.0914
33314ION     NA48783  10.788   9.768   4.923 -0.2013 -0.1336  0.2783
33315ION     NA48784  15.573  13.835  12.869 -0.2142 -0.0191  0.2048
33316ION     NA48785   2.977  14.528   3.817 -0.2249 -0.4494  0.0062
33317ION     NA48786   8.129   6.590   1.917  0.0154  0.0057  0.1609
33318ION     NA48787  14.124   8.408  10.248  0.1238  0.3514 -0.1740
33319ION     NA48788   5.477  13.457  10.387  0.2139  0.1548 -0.2723
33320ION     NA48789   3.505   0.112   5.974 -0.1204 -0.2418  0.0617
33321ION     NA48790   3.213  15.183  10.283  0.2684  0.2169  0.2130
33322ION     NA48791  14.488   9.331   5.926  0.2041 -0.1188  0.3345
33323ION     NA48792   0.934  16.305  14.585 -0.4025 -0.0068  0.1233
33324ION     NA48793   6.423  17.963   1.816 -0.1574 -0.0710 -0.2370
33325ION     NA48794   3.603  13.205  15.302  0.1774  0.1689  0.4073
33326ION     NA48795  15.786  10.608   4.959  0.0661 -0.1029  0.0607
33327ION     NA48796  15.868  15.371   9.930  0.0852  0.0145  0.0860
33328ION     NA48797  13.884   4.218   4.672 -0.2755 -0.0474  0.1571
33329ION     NA48798   8.396  14.379   5.331 -0.1643 -0.1231  0.0119
33330ION     NA48799  14.352   0.108   2.701  0.4202  0.2126  0.2730
33331ION     NA48800  10.256  17.049   3.112  0.0712  0.3194 -0.1626
33332ION     NA48801   6.468   9.263  14.887 -0.0276  0.0770  0.1070
33333ION     NA48802  10.437  17.844   1.266  0.1319  0.1468 -0.2632
33334ION     NA48803   4.582  13.738   2.334 -0.1621 -0.2424 -0.0394
33335ION     NA48804  13.768  10.804   5.784 -0.0376  0.3250 -0.1464
33336ION     NA48805   8.491   3.202  14.077 -0.2440  0.1884  0.1532
33337ION     NA48806   9.207   8.390   5.828 -0.0078  0.0058  0.2467
33338ION     NA48807   7.001   6.178   9.906 -0.1607 -0.0585 -0.1480
33339ION     NA48808  16.444  10.843  12.894 -0.0104 -0.0206 -0.1451
33340ION     NA48809   3.690   9.048   4.998 -0.2092 -0.1471 -0.0922
33341ION     NA48810   2.923  17.042   5.738  0.3680  0.0045 -0.0900
33342ION     NA48811  11.125   3.862   5.811  0.2236 -0.0478  0.1550
33343ION     NA48812   2.287   9.009   1.316  0.2712  0.1567  0.0107
33344ION     NA48813  12.958  12.334   2.631  0.2644  0.0939  0.0129
33345ION     NA48814   4.895   4.527   5.535  0.1708 -0.2480 -0.2304
33346ION     NA48815   2.930   2.638   4.179 -0.2651 -0.1371  0.1442
33347ION     NA48816  14.232   8.216  15.715  0.1306  0.1675  0.0648
33348ION     NA48817  16.197   2.436  10.258 -0.1165 -0.0590  0.0219
33349ION     NA48818   0.651   9.665   9.886  0.1848 -0.0393  0.0777
33350ION     NA48819  17.307   7.902   3.176  0.0447  0.0268 -0.0946
33351ION     NA48820   6.875   8.255   3.611 -0.0284 -0.1314 -0.0056
33352ION     NA48821  18.445  11.874   9.712  0.1117 -0.2124 -0.2054
33353ION     NA48822  14.054  15.072   5.674  0.1981  0.1857 -0.0351
33354ION     NA48823  10.438  15.605  10.481 -0.2259 -0.0183  0.0339
33355ION     NA48824   4.962   0.620  12.047 -0.0853  0.1543  0.2843
33356ION     NA48825  11.579   8.941   2.987 -0.4068  0.3723  0.1285
33357ION     NA48826   0.549   4.167  10.102  0.2289 -0.1858 -0.2463
33358ION     NA48827   5.230   5.898  11.155  0.1216 -0.1252  0.0972
33359ION     NA48828  10.517  18.116   4.186  0.2254 -0.0379 -0.1983
33360ION     NA48829   2.836   1.654  11.860 -0.3594  0.0295 -0.2420
33361ION     NA48830   1.525  16.002   5.967 -0.1781 -0.1571 -0.4225
33362ION     NA48831   8.716  15.668   3.588 -0.0614 -0.0747 -0.0236
33363ION     NA48832  13.971  11.088  14.549 -0.1537 -0.1725  0.0624
33364ION     NA48833  14.541  15.408  15.565  0.1163 -0.0274 -0.1620
33365ION     NA48834   0.657  14.066   3.582 -0.1640  0.0078  0.0382
33366ION     NA48835  16.484   4.536   9.962  0.2083  0.2415 -0.0498
33367ION     NA48836  15.782  11.268   5.711  0.1064 -0.3245  0.0944
33368ION     NA48837   5.887   6.614  10.194  0.0217 -0.0042 -0.3046
33369ION     NA48838  11.680  16.695  10.544 -0.0673 -0.2319 -0.0364
33370ION     NA48839   0.389  17.268   5.884  0.2492  0.2552  0.0509
33371ION     NA48840   6.979  14.986  10.441  0.1506  0.0168  0.0002
33372ION     NA48841  15.288   7.399   9.907  0.1835  0.0050 -0.1984
33373ION     NA48842   2.111  16.857   5.360  0.1652 -0.0650 -0.0058
33374ION     NA48843  12.711   4.100  14.528 -0.0054  0.2903  0.1823
33375ION     NA48844   9.329  16.613   5.127  0.1501 -0.1632  0.2953
33376ION     NA48845  17.480   7.924   0.512 -0.2393 -0.1691  0.1283
33377ION     NA48846   3.183  10.502  10.261 -0.3018 -0.1053 -0.1663
33378ION     NA48847  16.215   4.070   2.110  0.2588  0.0521  0.0267
33379ION     NA48848   5.381   5.256  10.086 -0.1933 -0.0028 -0.2117
33380ION     NA48849   1.435   2.750  10.443 -0.2088 -0.7325 -0.2368
33381ION     NA48850   8.079  10.750  11.369  0.4730 -0.1344 -0.1507
33382ION     NA48851  10.754  16.916   0.502  0.2329 -0.1201 -0.0389
33383ION     NA48852  17.266   0.653   3.366  0.1418  0.0458 -0.0860
33384ION     NA48853   6.241   2.052   6.128 -0.2776  0.2762 -0.0095
33385ION     NA48854   9.142   7.385   5.897  0.1244 -0.0157 -0.1455
33386ION     NA48855   2.087   3.636   3.905  0.2020 -0.0115 -0.1276
33387ION     NA48856   1.851   9.501   0.644  0.2711 -0.1468  0.1941
33388ION     NA48857   9.913  13.164   2.906  0.1217 -0.0553  0.1132
33389ION     NA48858  14.255  16.429  10.195 -0.3033  0.1192  0.0966
33390ION     NA48859   6.624   6.882  12.694  0.2207 -0.0198 -0.2924
33391ION     NA48860   6.178  10.031  15.147 -0.0186 -0.1087  0.1354
33392ION     NA48861   5.818   5.286   5.495 -0.1002  0.0230 -0.0195
33393ION     NA48862   4.888   5.781   5.438 -0.2679 -0.1029 -0.2420
33394ION     NA48863   8.784   2.408   2.543  0.1008 -0.2390 -0.0392
33395ION     NA48864  11.578  11.072  12.275 -0.2050 -0.0432 -0.0476
33396ION     NA48865  15.095  11.305   4.446  0.2126  0.2581  0.3084
33397ION     NA48866   2.729  17.181  13.584 -0.1943 -0.0161 -0.1145
33398ION     NA48867   3.804  12.036   4.005  0.2220  0.3442 -0.1076
33399ION     NA48868  18.011  17.007  10.108 -0.3331 -0.0049 -0.2727
33400ION     NA48869   7.292   1.424   4.204 -0.1061 -0.2045 -0.0756
33401ION     NA48870  12.773  11.806  12.822  0.1736  0.0262  0.1106
33402ION     NA48871   0.461   1.881  12.177  0.0581 -0.0207 -0.0265
33403ION     NA48872   1.393   3.804   5.640 -0.2200  0.4327 -0.0454
33404ION     NA48873   5.502  13.194   5.896  0.1167 -0.0511  0.1066
33405ION     NA48874   9.601   5.003  14.303 -0.0816  0.1670  0.2620
33406ION     NA48875   4.407  11.053   5.505  0.0466 -0.0548 -0.0128
33407ION     NA48876  14.790  14.010   9.763 -0.0961  0.1110  0.3773
33408ION     NA48877  17.069   7.981  10.766 -0.0134  0.1299  0.2579
33409ION     NA48878  11.665  16.522  14.761 -0.1317  0.1080  0.1282
33410ION     NA48879   6.758  12.889  10.208 -0.0952 -0.2111 -0.1148
33411ION     NA48880   1.250   4.137  10.299  0.0018 -0.1407 -0.1182
33412ION     NA48881   1.395  15.248   0.542  0.1167  0.0584 -0.1897
33413ION     NA48882  16.594  14.515  10.180  0.1062  0.0106 -0.1272
33414ION     NA48883  10.497   5.565   9.996  0.0960 -0.0739  0.0090
33415ION     NA48884  14.836   5.967   9.771 -0.3879 -0.1279 -0.0635
33416ION     NA48885  15.087  13.024   3.474  0.3034 -0.0890  0.1073
33417ION     NA48886  18.402  14.195   1.048 -0.0617 -0.1246 -0.1351
33418ION     NA48887  11.718   8.168   3.413  0.1413  0.4401 -0.0950
33419ION     NA48888  12.501  17.987   2.346  0.0395 -0.1498 -0.1960
33420ION     NA48889   8.255   4.527  14.582 -0.0716 -0.3026 -0.0539
33421ION     NA48890  12.360   0.442  10.259  0.3541 -0.1153 -0.1019
33422ION     NA48891  13.326   8.734   1.255 -0.1776 -0.1607  0.0937
33423ION     NA48892  11.671   8.634   5.483 -0.1216  0.0479 -0.1208
33424ION     NA48893  17.546  15.580  15.104 -0.0058  0.2880 -0.3132
33425ION     NA48894  15.335   2.153   5.665  0.2439  0.2175  0.0445
33426ION     NA48895  16.569  12.921   4.707 -0.0460  0.0698 -0.1332
33427ION     NA48896   4.847   0.561  10.560  0.0718 -0.1267 -0.2686
33428ION     NA48897  12.229  17.388  10.612 -0.0157 -0.1883 -0.1286
33429ION     NA48898  15.698   0.538   0.722 -0.1901 -0.1742  0.2262
33430ION     NA48899   1.277   5.619   5.898 -0.0100 -0.2482  0.2800
33431ION     NA48900   3.030   0.976   5.874 -0.0952  0.1508 -0.0928
33432ION     NA48901  12.661   3.084   5.588 -0.3260 -0.3061 -0.2490
33433ION     NA48902   4.004   5.621  15.283  0.0919 -0.0293  0.4969
33434ION     NA48903  12.776  18.058  10.429 -0.2437  0.1767 -0.2239
33435ION     NA48904   8.852   4.913   9.913  0.3085  0.2274 -0.2626
33436ION     NA48905   8.619   0.943   6.414 -0.0800  0.3567  0.1403
33437ION     NA48906  15.324  17.787  10.179  0.0792  0.0935  0.0373
33438ION     NA48907  16.597   1.563  10.031  0.0647 -0.1017 -0.0114
33439ION     NA48908  13.890   7.518  15.150  0.1790  0.3980  0.1835
33440ION     NA48909   0.462   6.348   0.118 -0.0948  0.0685  0.0030
33441ION     NA48910   6.783  13.257   5.896 -0.1701  0.0241 -0.0383
33442ION     NA48911   1.692  17.042   2.734  0.3087  0.3363 -0.1321
33443ION     NA48912   0.024   4.651   5.733 -0.1578  0.2632 -0.1281
33444ION     NA48913  14.433  16.593   0.200 -0.0598  0.0825  0.0093
33445ION     NA48914   6.255  12.919  14.583  0.1364 -0.1002 -0.2052
33446ION     NA48915   3.683   9.707  10.375  0.0596 -0.1655  0.0631
33447ION     NA48916   8.010   8.956   5.394 -0.4131 -0.0233 -0.1133
33448ION     NA48917  11.773   1.842  10.592 -0.0853  0.1566  0.1280
33449ION     NA48918  14.798  16.422   2.519 -0.0037  0.1204  0.1953
33450ION     NA48919   6.183   7.128   0.595 -0.1252  0.0452  0.0043
33451ION     NA48920   2.439   9.903  10.245 -0.2288  0.1031 -0.2839
33452ION     NA48921   3.127  10.159  12.708 -0.2306  0.1540  0.1346
33453ION     NA48922  13.292   1.728   4.088 -0.2631  0.0248 -0.2727
33454ION     NA48923  18.076   3.788   3.872 -0.0638 -0.3052 -0.0015
33455ION     NA48924  17.014  10.596  10.554 -0.0569  0.3068  0.2089
33456ION     NA48925   5.034   7.704   0.810 -0.3077  0.2068  0.0430
33457ION     NA48926   8.698  15.989   4.908 -0.0736 -0.0532 -0.1933
33458ION     NA48927  16.695  13.262  10.435  0.1101 -0.1093  0.4087
33459ION     NA48928  12.301   0.524   5.173  0.0693 -0.1894 -0.2268
33460ION     NA48929   4.105  17.218  13.464 -0.1508 -0.0912 -0.1519
33461ION     NA48930  15.873  17.997   1.643 -0.1618  0.0775  0.0237
33462ION     NA48931   2.150  10.695  10.140  0.1328 -0.3492 -0.0347
33463ION     NA48932  15.473   9.266   9.727  0.4033  0.0710  0.0667
33464ION     NA48933  10.711  16.799   1.799 -0.2555  0.0640  0.1346
33465ION     NA48934  14.416   6.769  10.051  0.0643  0.0684  0.0385
33466ION     NA48935  17.295  17.695  10.639 -0.0646  0.0124 -0.1438
33467ION     NA48936   0.878  14.050   0.921 -0.2831 -0.2416  0.1998
33468ION     NA48937   4.859  11.397  10.074  0.0018 -0.0798  0.1909
33469ION     NA48938  10.244   4.050  12.812 -0.0125  0.0033  0.2966
33470ION     NA48939   9.425   7.540  10.225  0.1289 -0.1634  0.0504
33471ION     NA48940  17.758  16.322  13.907  0.1510 -0.1049  0.3001
33472ION     NA48941   6.872   5.203  10.082  0.2571  0.0567 -0.2285
33473ION     NA48942   8.963  11.357  13.176  0.1604  0.1722 -0.0600
33474ION     NA48943   5.773  14.124  13.682 -0.1768  0.1204  0.2456
33475ION     NA48944   8.072  14.534  15.711  0.0674  0.0270  0.0030
33476ION     NA48945   4.097   6.577   6.080  0.3592 -0.3621  0.4749
33477ION     NA48946  14.768   3.210  12.141  0.2013 -0.1682 -0.2217
33478ION     NA48947   5.857   1.622  15.286  0.0768  0.0201  0.0143
33479ION     NA48948   1.809   5.834   1.365 -0.1981  0.0981 -0.0977
33480ION     NA48949   3.674  12.205   1.973 -0.2510 -0.2074  0.0967
33481ION     NA48950   8.306   1.420  10.283  0.0529 -0.0044 -0.0498
33482ION     NA48951   2.602  12.993   9.942  0.1564  0.0714  0.0278
33483ION     NA48952  13.318   9.625   5.428  0.0053 -0.0630  0.3076
33484ION     NA48953  16.741  14.059  11.431 -0.1033 -0.2391  0.0867
33485ION     NA48954   5.267   8.869   2.936 -0.1571 -0.0295 -0.1865
33486ION     NA48955   2.479  10.960  13.392 -0.2444 -0.1198  0.0341
33487ION     NA48956  17.082   3.105   2.436 -0.0513  0.2390 -0.2346
33488ION     NA48957  11.296  10.023   5.668  0.4541  0.1106 -0.0184
33489ION     NA48958   6.427   5.909  13.749  0.0943  0.0900  0.1384
33490ION     NA48959  18.452  12.235  11.865  0.1955  0.0768 -0.1878
33491ION     NA48960   7.887   0.609  10.106 -0.3699  0.1214 -0.0585
33492ION     NA48961  14.145  16.451   4.264 -0.2009  0.4882 -0.4903
33493ION     NA48962  17.679  12.346   9.864  0.3026 -0.1777 -0.0136
33494ION     NA48963   3.900   4.062  10.387 -0.2142  0.0997  0.1457
33495ION     NA48964   0.538   1.121  11.482  0.1432  0.1040  0.2334
33496ION     NA48965  12.497   3.597   2.801 -0.2965  0.2251 -0.0123
33497ION     NA48966   3.170   0.494  10.242  0.0542  0.0306 -0.2557
33498ION     NA48967   0.261  17.043  10.222  0.4502 -0.1437 -0.3052
33499ION     NA48968  16.076   3.039   5.785 -0.2631 -0.2898 -0.2116
33500ION     NA48969  12.214  15.439  10.271  0.2850  0.0686 -0.2346
33501ION     NA48970  17.352   6.889  14.260  0.1202  0.2424  0.1976
33502ION     NA48971  11.209  10.983   2.946 -0.0806  0.0511  0.2562
33503ION     NA48972  14.975   7.727   0.211 -0.2592  0.2022 -0.1517
33504ION     NA48973  11.336   5.736   5.708 -0.1823  0.1213  0.0418
33505ION     NA48974   3.818   4.175   1.119  0.2413  0.0368 -0.2520
33506ION     NA48975  13.736  15.944  15.901  0.3751  0.0056  0.0480
33507ION     NA48976  13.198   2.303   1.947 -0.0218  0.1175 -0.2112
33508ION     NA48977   9.743   1.550   6.247  0.2444 -0.1923 -0.0813
33509ION     NA48978   2.220  13.414   5.893  0.0106  0.0014 -0.1415
33510ION     NA48979   8.181  11.037   9.871  0.1896  0.1033  0.3326
33511ION     NA48980  12.818  16.122   6.124 -0.1458 -0.2402  0.1128
33512ION     NA48981  11.329   1.290  14.274  0.2562 -0.1512  0.1908
33513ION     NA48982   7.131  15.054  14.200 -0.2369  0.0865  0.0153
33514ION     NA48983   1.653   8.177  10.090  0.0053 -0.2864  0.3306
33515ION     NA48984  17.899  13.129   5.282  0.3017  0.3787  0.2389
33516ION     NA48985   4.534  18.085  10.358 -0.1636 -0.1940  0.3572
33517ION     NA48986   8.768   1.521  10.410  0.3109 -0.3298  0.4527
33518ION     NA48987   3.871  16.845   2.202 -0.2139  0.0688 -0.2213
33519ION     NA48988   1.172  16.825  10.357 -0.0831  0.2615 -0.3199
33520ION     NA48989   1.794  11.547  14.390 -0.1677 -0.2977 -0.0272
33521ION     NA48990   8.437   5.691  14.775  0.0074  0.0504 -0.0484
33522ION     NA48991   2.228   1.447   6.160  0.0412  0.2194 -0.2329
33523ION     NA48992   3.048  12.075  13.075 -0.1986  0.1941 -0.0985
33524ION     NA48993  17.689   4.521  10.089 -0.1199 -0.0261  0.3516
33525ION     NA48994   1.446   0.792   6.401  0.5875 -0.1867  0.1510
33526ION     NA48995   6.848   1.983   2.889 -0.1143 -0.0485  0.1348
33527ION     NA48996  11.525   1.855   0.247 -0.2136  0.0669 -0.0400
33528ION     NA48997  11.715  17.907   1.363 -0.0541 -0.1376  0.0970
33529ION     NA48998   1.112   4.670   5.766  0.1646  0.0819  0.0862
33530ION     NA48999  12.570   9.506  10.008 -0.0960 -0.2555  0.2301
33531ION     NA49000   8.014  16.642   5.055  0.2407 -0.0974  0.0808
33532ION     NA49001  12.004   2.943   5.231 -0.0820 -0.0041  0.4823
33533ION     NA49002   0.676   2.681  10.327 -0.0535  0.2010 -0.2410
33534ION     NA49003  16.224   7.248  15.005 -0.2546  0.1915 -0.0726
33535ION     NA49004   4.205   2.725   5.910 -0.0946  0.3667  0.0325
33536ION     NA49005   9.658  10.312   9.940  0.0632 -0.2087  0.1129
33537ION     NA49006  11.461   0.395  10.456 -0.0313 -0.0328  0.1443
33538ION     NA49007  14.772   5.641   3.344 -0.0556 -0.2390 -0.0285
33539ION     NA49008  13.583  18.009   0.101  0.2748  0.1004  0.0613
33540ION     NA49009   1.124  15.128  12.799  0.2712 -0.0526  0.0306
33541ION     NA49010   8.195  15.223   5.794 -0.0156 -0.2711 -0.3847
33542ION     NA49011   8.025   9.834  11.346  0.4585 -0.1154  0.1954
33543ION     NA49012   5.709  17.263   6.081 -0.0726  0.3550  0.0213
33544ION     NA49013   5.650   9.845  14.349 -0.0249 -0.0165 -0.2029
33545ION     NA49014  11.647  14.801  10.343  0.3453  0.0239 -0.1978
33546ION     NA49015   0.987   0.774  10.431 -0.0603  0.2030  0.1292
33547ION     NA49016  14.924   8.117  12.686 -0.0085 -0.0653 -0.2290
33548ION     NA49017   9.211   8.283   5.255 -0.1267  0.0208  0.0898
33549ION     NA49018  13.773   6.379   0.022  0.0753  0.2534  0.2639
33550ION     NA49019  16.527   0.903   4.248 -0.2555  0.0739  0.1963
33551ION     NA49020  15.687  16.649   5.285  0.0028  0.0597  0.1069
33552ION     NA49021  10.886  18.432   3.318 -0.0738  0.2053 -0.1815
33553ION     NA49022  17.182   8.742   5.516 -0.0472 -0.2119 -0.0292
33554ION     NA49023  14.430  15.611   9.893  0.2163  0.1512 -0.1910
33555ION     NA49024  15.465  11.644  10.032 -0.0358 -0.1534  0.1439
33556ION     NA49025  10.925   6.177   1.274  0.1262 -0.0604  0.1599
33557ION     NA49026   3.821  12.953   5.613 -0.2001  0.0416  0.0910
33558ION     NA49027   5.857  13.736   0.332 -0.2174 -0.0526 -0.1260
33559ION     NA49028  14.328  14.162   9.906  0.0050  0.4208  0.0390
33560ION     NA49029   6.982   0.023   4.091  0.2052  0.1103 -0.0365
33561ION     NA49030  13.746  12.693   5.727  0.2591 -0.2709  0.1510
33562ION     NA49031   5.046  15.417   2.017 -0.0138 -0.0668 -0.1358
33563ION     NA49032  10.126   3.185   5.756  0.0683 -0.2809  0.0087
33564ION     NA49033   8.148   4.506   9.843  0.1144  0.2456  0.3192
33565ION     NA49034   0.445   1.469  14.093  0.1227  0.0611  0.0625
33566ION     NA49035  16.966  14.459   2.027 -0.1806 -0.0144 -0.0945
33567ION     NA49036  15.059   4.520  10.210  0.2694  0.2947  0.0415
33568ION     NA49037  12.343  10.341  12.597 -0.2243  0.0156  0.2535
33569ION     NA49038  10.959   7.849   5.615  0.2464 -0.3144 -0.2275
33570ION     NA49039  13.220   7.899  13.313  0.0546  0.1407 -0.0974
33571ION     NA49040   6.592  10.409   5.266 -0.3702  0.1638  0.2624
33572ION     NA49041  14.188  11.655   1.846 -0.0008 -0.3857  0.0149
33573ION     NA49042   5.427   6.157   2.880  0.2684 -0.2345  0.1944
33574ION     NA49043   3.839   0.753   2.004 -0.3520 -0.2649 -0.2149
33575ION     NA49044  17.983   8.612   9.955  0.0934 -0.1709  0.2407
33576ION     NA49045   6.382   6.475  14.397  0.4780 -0.0737 -0.1559
33577ION     NA49046  12.732  13.634   1.862 -0.0032 -0.2305  0.0638
33578ION     NA49047   9.144   8.135   0.609  0.1764  0.0680  0.1327
33579ION     NA49048   4.444  14.866   1.499 -0.0986  0.0010 -0.4982
33580ION     NA49049  17.375   5.743  13.576 -0.0093  0.1902  0.1272
33581ION     NA49050   9.816   6.483  14.744  0.0116 -0.0380  0.1470
33582ION     NA49051  11.459   0.237  14.848 -0.4972  0.1784  0.0376
33583ION     NA49052   4.385  14.219  10.327  0.2192 -0.2734 -0.0579
33584ION     NA49053  12.938  14.274   4.141  0.2730 -0.0511  0.0602
33585ION     NA49054  14.951   9.243  15.274 -0.0962 -0.0974 -0.0493
33586ION     NA49055   4.616  14.730  14.184 -0.1174 -0.1289 -0.1272
33587ION     NA49056  10.990   1.000   2.349  0.0667  0.1043  0.0153
33588ION     NA49057   7.738  13.530  12.082  0.1186  0.3531 -0.0465
33589ION     NA49058  12.103  13.662   5.440  0.0437 -0.1136  0.0537
33590ION     NA49059   2.228   4.372   4.939  0.1073  0.1590 -0.1623
33591ION     NA49060   0.331   1.993  10.244 -0.0849  0.0552  0.0035
33592ION     NA49061  17.121  10.215  13.093 -0.0848 -0.2434  0.0696
33593ION     NA49062   6.440  15.609   6.099 -0.0147  0.1684  0.0070
33594ION     NA49063   3.319  13.303  13.894  0.1582 -0.1236 -0.0470
33595ION     NA49064   3.214   1.811  10.472 -0.0400  0.2515  0.0990
33596ION     NA49065   7.925   1.289   5.624 -0.1530  0.1269 -0.0240
33597ION     NA49066   3.449   8.635   2.581  0.0834  0.0576  0.0341
33598ION     NA49067  10.861   6.569  14.607 -0.1130  0.0775 -0.0870
33599ION     NA49068  12.969   3.109  10.265 -0.3301  0.2162 -0.2252
33600ION     NA49069   6.708   6.507   5.524 -0.0685 -0.0681  0.0583
33601ION     NA49070  11.023   7.906   9.947  0.1629  0.3145  0.3081
33602ION     NA49071  10.543  11.425   5.451 -0.0774  0.4688 -0.1896
33603ION     NA49072   8.896   9.161   0.674  0.1932  0.2011  0.2924
33604ION     NA49073   3.368   6.429   6.018  0.1188 -0.0974 -0.0765
33605ION     NA49074   7.693   6.448   2.897 -0.0746 -0.1494  0.2526
  18.48275  18.48275  15.91600
