INSANE! Membrane UpperLeaflet>loPI:POPI:DPPI:PYPI:ERGO=20.0:5.0:3.0:2.0:10.0 LowerLeaflet>PSPI:POPI:POPS:YOPS:POPE:YOPE:POPC:YOPC:ERGO=6.0:14.0:21.0:9.0:9.0:21.0:12.0:48.0:60.0
48947
    1loPI    C1    1   7.726   2.274  10.034  0.1776 -0.1122 -0.1203
    1loPI    C2    2   7.397   2.363  10.245  0.2697  0.1772 -0.0951
    1loPI    C3    3   7.662   2.100  10.389  0.1116  0.0365 -0.0584
    1loPI   PO4    4   7.771   2.526   9.927 -0.1026 -0.1496 -0.2580
    1loPI   GL1    5   7.744   2.574   9.523 -0.0531  0.2699  0.0730
    1loPI   GL2    6   7.491   2.762   9.489  0.0175 -0.1119 -0.1069
    1loPI   C1A    7   7.509   2.322   9.281  0.0824 -0.0264 -0.0225
    1loPI   C2A    8   7.358   2.349   8.775 -0.3915  0.2193 -0.0939
    1loPI   C3A    9   7.364   2.374   8.235 -0.2166 -0.0400 -0.1109
    1loPI   C4A   10   7.448   2.359   7.817 -0.3273 -0.2862 -0.1123
    1loPI   C5A   11   7.606   2.644   7.457 -0.0418 -0.0201 -0.1134
    1loPI   C6A   12   7.513   3.098   7.369  0.1018 -0.1278  0.0909
    1loPI   C1B   13   7.438   2.785   9.049 -0.2445 -0.0684  0.1756
    1loPI   C2B   14   7.337   2.810   8.609 -0.0122 -0.0777 -0.0512
    1loPI   C3B   15   7.405   2.850   8.224 -0.2225 -0.0806 -0.0471
    1loPI   C4B   16   7.385   2.876   7.841  0.3877  0.0861  0.1299
    2loPI    C1   17   1.391   4.014  10.913 -0.1027  0.1187 -0.1014
    2loPI    C2   18   1.678   4.239  11.076  0.1085 -0.2275  0.0146
    2loPI    C3   19   1.509   3.946  11.289 -0.2324 -0.1196 -0.1020
    2loPI   PO4   20   1.402   4.142  10.676  0.2586  0.0559  0.1127
    2loPI   GL1   21   1.289   4.091  10.209  0.1237  0.1815 -0.2518
    2loPI   GL2   22   1.608   4.017  10.241  0.0555  0.0961  0.0983
    2loPI   C1A   23   1.345   4.171   9.754 -0.2966 -0.0523  0.1097
    2loPI   C2A   24   1.360   4.154   9.243 -0.0363  0.3669  0.0240
    2loPI   C3A   25   1.354   4.095   8.777 -0.0448  0.0659  0.1472
    2loPI   C4A   26   1.407   4.073   8.374 -0.0340 -0.0929 -0.0508
    2loPI   C5A   27   1.648   4.212   8.111  0.0844 -0.1113 -0.2969
    2loPI   C6A   28   1.783   4.623   8.159 -0.0010 -0.1341  0.3428
    2loPI   C1B   29   1.823   3.950   9.913 -0.0239  0.0651  0.1463
    2loPI   C2B   30   1.874   3.885   9.418  0.0058  0.1246 -0.1742
    2loPI   C3B   31   1.809   3.846   9.074 -0.1316  0.1837  0.1654
    2loPI   C4B   32   1.681   3.734   8.727 -0.1629  0.0496 -0.0408
    3loPI    C1   33   1.349   3.083  10.922  0.0083 -0.0521  0.2056
    3loPI    C2   34   1.490   2.773  11.132  0.1849 -0.0343  0.1157
    3loPI    C3   35   1.692   2.906  10.814  0.0508  0.1013  0.0864
    3loPI   PO4   36   1.122   3.007  10.738 -0.1330 -0.0670  0.2089
    3loPI   GL1   37   1.078   2.921  10.281  0.0287  0.3868  0.0187
    3loPI   GL2   38   1.414   2.808  10.388 -0.0224  0.1651  0.4428
    3loPI   C1A   39   0.922   2.859   9.957 -0.1883 -0.2697  0.1025
    3loPI   C2A   40   0.948   2.755   9.576  0.1643  0.0582 -0.1953
    3loPI   C3A   41   0.862   2.832   9.178 -0.1448 -0.0239 -0.0919
    3loPI   C4A   42   0.797   3.006   8.744  0.2274  0.0175  0.2471
    3loPI   C5A   43   0.928   2.959   8.346 -0.0925  0.2382 -0.2229
    3loPI   C6A   44   0.844   3.291   8.086 -0.0133 -0.0745 -0.0534
    3loPI   C1B   45   1.387   2.621   9.982 -0.0210 -0.2551 -0.1860
    3loPI   C2B   46   1.387   2.534   9.534 -0.0057 -0.1555  0.0328
    3loPI   C3B   47   1.442   2.472   9.082  0.1231 -0.0157 -0.1234
    3loPI   C4B   48   1.291   2.512   8.634  0.2108 -0.1199 -0.3089
    4loPI    C1   49  10.616   5.602  10.441  0.3714 -0.1070  0.0521
    4loPI    C2   50  10.368   5.543  10.749  0.0191  0.0693 -0.1911
    4loPI    C3   51  10.763   5.520  10.804 -0.0432 -0.0956  0.2286
    4loPI   PO4   52  10.715   5.779  10.315 -0.0114 -0.0151 -0.0939
    4loPI   GL1   53  10.821   5.908   9.933  0.0359  0.0569 -0.2168
    4loPI   GL2   54  11.143   5.740   9.916  0.1387 -0.0498 -0.0904
    4loPI   C1A   55  10.607   5.851   9.555  0.0826 -0.1509  0.0083
    4loPI   C2A   56  10.653   5.846   9.133  0.0814  0.0736  0.0027
    4loPI   C3A   57  10.679   5.825   8.690 -0.0481 -0.3127  0.1881
    4loPI   C4A   58  10.438   5.821   8.311  0.3083  0.0311  0.1739
    4loPI   C5A   59  10.005   6.017   8.288 -0.1087  0.0168 -0.1750
    4loPI   C6A   60   9.598   6.093   8.182  0.1123  0.2791  0.1125
    4loPI   C1B   61  11.050   5.793   9.417 -0.0540  0.3916 -0.0007
    4loPI   C2B   62  11.122   5.762   8.969  0.1610  0.1092 -0.2065
    4loPI   C3B   63  11.373   5.858   8.659  0.1363  0.1361  0.0662
    4loPI   C4B   64  11.282   5.872   8.247  0.2766 -0.3040  0.1450
    5loPI    C1   65   1.638   3.344  10.610  0.0127  0.0320  0.1657
    5loPI    C2   66   1.816   3.698  10.550  0.0749 -0.0168  0.0580
    5loPI    C3   67   1.687   3.598  10.915 -0.1768  0.2246  0.0388
    5loPI   PO4   68   1.376   3.385  10.405 -0.1034 -0.2574 -0.1176
    5loPI   GL1   69   1.468   3.173  10.052 -0.1699  0.1752 -0.1603
    5loPI   GL2   70   1.734   3.416  10.060 -0.0207  0.1192 -0.3841
    5loPI   C1A   71   1.444   3.064   9.726 -0.0379  0.2340  0.0268
    5loPI   C2A   72   1.428   2.959   9.294 -0.4283 -0.2459 -0.0532
    5loPI   C3A   73   1.334   2.972   8.847 -0.1294  0.0580 -0.2197
    5loPI   C4A   74   1.437   2.963   8.483 -0.1361  0.4088 -0.0533
    5loPI   C5A   75   1.474   3.131   8.120  0.3482 -0.0385 -0.0870
    5loPI   C6A   76   1.647   3.168   7.856 -0.1403 -0.0384 -0.3534
    5loPI   C1B   77   1.865   3.386   9.730 -0.2834  0.0105 -0.0940
    5loPI   C2B   78   1.925   3.374   9.335  0.1367  0.1513  0.0763
    5loPI   C3B   79   1.825   3.264   8.972 -0.1721  0.1818  0.1296
    5loPI   C4B   80   1.827   3.261   8.499  0.2100 -0.2995  0.0761
    6loPI    C1   81   3.480  10.621  10.737 -0.2235 -0.0306  0.1308
    6loPI    C2   82   3.628  10.882  11.001  0.1393 -0.1924  0.0934
    6loPI    C3   83   3.262  10.731  11.053 -0.0654  0.2967  0.1300
    6loPI   PO4   84   3.539  10.756  10.521  0.1128  0.1604  0.0381
    6loPI   GL1   85   3.650  10.642  10.113  0.5520 -0.0859  0.2881
    6loPI   GL2   86   3.737  10.902  10.081  0.1448  0.1500  0.3812
    6loPI   C1A   87   3.796  10.571   9.744  0.2940 -0.0353  0.2272
    6loPI   C2A   88   3.892  10.651   9.315 -0.1464 -0.0155  0.3346
    6loPI   C3A   89   3.736  10.614   8.850 -0.0900 -0.1512 -0.2509
    6loPI   C4A   90   3.734  10.869   8.459  0.2176  0.1594  0.0583
    6loPI   C5A   91   3.806  11.318   8.365 -0.1996 -0.3531 -0.1745
    6loPI   C6A   92   3.963  11.692   8.321 -0.2664 -0.0934  0.0551
    6loPI   C1B   93   3.780  11.115   9.733 -0.2365 -0.2908 -0.0596
    6loPI   C2B   94   3.880  11.168   9.270  0.1578  0.1047  0.1153
    6loPI   C3B   95   3.814  11.196   8.904 -0.2617  0.2712  0.1922
    6loPI   C4B   96   3.436  11.258   8.661 -0.3624  0.0670 -0.3442
    7loPI    C1   97   8.770   8.907  11.062  0.0337 -0.1726  0.2759
    7loPI    C2   98   9.065   8.865  10.796 -0.1677 -0.1354  0.0437
    7loPI    C3   99   8.983   8.568  11.050  0.0263 -0.1712  0.0661
    7loPI   PO4  100   8.541   9.069  10.954  0.0367 -0.1698 -0.0672
    7loPI   GL1  101   8.624   9.149  10.464 -0.2336  0.1947  0.0491
    7loPI   GL2  102   8.412   9.066  10.328  0.1921 -0.1296 -0.0711
    7loPI   C1A  103   8.905   9.144  10.108  0.1365 -0.1759  0.1060
    7loPI   C2A  104   8.930   9.250   9.779 -0.1031  0.1063 -0.0105
    7loPI   C3A  105   8.869   9.183   9.356  0.0195  0.1316 -0.0538
    7loPI   C4A  106   8.936   9.328   8.975 -0.2099  0.2090 -0.1350
    7loPI   C5A  107   8.940   9.513   8.546 -0.2880 -0.1135  0.0593
    7loPI   C6A  108   9.369   9.552   8.361 -0.0057 -0.1892  0.0846
    7loPI   C1B  109   8.531   8.851   9.958  0.2290  0.1852 -0.1648
    7loPI   C2B  110   8.482   8.832   9.419  0.0363 -0.0991 -0.3116
    7loPI   C3B  111   8.587   8.949   9.015 -0.3159  0.4080  0.0142
    7loPI   C4B  112   8.540   9.176   8.632 -0.1637 -0.0864  0.0120
    8loPI    C1  113  10.722   0.769  10.700  0.1220  0.0555 -0.0030
    8loPI    C2  114  10.924   0.425  10.672  0.0930  0.0514 -0.1711
    8loPI    C3  115  10.861   0.591  11.030 -0.1018 -0.2424 -0.0652
    8loPI   PO4  116  10.520   0.691  10.460  0.3799  0.0662 -0.0798
    8loPI   GL1  117  10.342   0.605   9.982  0.3433 -0.1072  0.2278
    8loPI   GL2  118  10.173   0.364   9.798 -0.0792  0.0690 -0.0003
    8loPI   C1A  119  10.479   0.588   9.515 -0.0004 -0.0815 -0.2422
    8loPI   C2A  120  10.526   0.394   9.055  0.1492  0.1300 -0.0297
    8loPI   C3A  121  10.533   0.240   8.597 -0.1858  0.0807 -0.1678
    8loPI   C4A  122  10.839   0.009   8.280  0.0261 -0.2790 -0.0846
    8loPI   C5A  123  11.089  -0.053   7.873  0.0774 -0.1036 -0.1249
    8loPI   C6A  124  11.488  -0.162   7.928 -0.0488  0.0618 -0.1767
    8loPI   C1B  125  10.127   0.217   9.393 -0.1363 -0.2374 -0.0365
    8loPI   C2B  126  10.130   0.151   8.957  0.1499 -0.0664  0.0491
    8loPI   C3B  127   9.991   0.220   8.586  0.4152 -0.2440 -0.2047
    8loPI   C4B  128   9.829   0.358   8.191 -0.0478  0.1841  0.0752
    9loPI    C1  129   2.340   6.855  10.618 -0.0293  0.0161  0.1945
    9loPI    C2  130   2.199   6.511  10.764 -0.1499  0.0441  0.1456
    9loPI    C3  131   2.406   6.759  11.000  0.1010 -0.1479  0.1320
    9loPI   PO4  132   2.539   6.796  10.393 -0.2929  0.3574  0.2673
    9loPI   GL1  133   2.437   6.730   9.921 -0.0214  0.1777 -0.0012
    9loPI   GL2  134   2.698   6.457   9.739  0.0926  0.0678 -0.1463
    9loPI   C1A  135   2.364   6.653   9.433  0.1061 -0.0791 -0.1985
    9loPI   C2A  136   2.365   6.683   8.968 -0.3700  0.1033  0.2642
    9loPI   C3A  137   2.259   6.426   8.583 -0.2860 -0.1310 -0.3548
    9loPI   C4A  138   2.271   6.115   8.372  0.2861  0.0590 -0.4073
    9loPI   C5A  139   2.185   5.971   7.983  0.2060  0.1986  0.0237
    9loPI   C6A  140   1.974   5.549   7.956 -0.1134 -0.0113  0.0516
    9loPI   C1B  141   2.770   6.406   9.301 -0.0969  0.0868 -0.1374
    9loPI   C2B  142   2.778   6.387   8.872 -0.0507  0.2496  0.0409
    9loPI   C3B  143   2.739   6.362   8.526  0.1091  0.0452  0.0594
    9loPI   C4B  144   2.684   6.330   8.154  0.1967 -0.4585  0.0205
   10loPI    C1  145   5.762   5.053  10.783  0.1097 -0.0408  0.1543
   10loPI    C2  146   5.816   5.421  10.634 -0.0892 -0.1452 -0.1864
   10loPI    C3  147   5.659   5.374  10.998  0.0259  0.1076 -0.1022
   10loPI   PO4  148   5.812   4.878  10.452  0.0586  0.0745  0.2120
   10loPI   GL1  149   5.905   4.792   9.953  0.2786  0.1684 -0.0112
   10loPI   GL2  150   5.499   4.842   9.916 -0.0000 -0.1691 -0.1507
   10loPI   C1A  151   5.780   4.908   9.498 -0.1697  0.0982  0.0251
   10loPI   C2A  152   5.769   4.924   9.032 -0.2323  0.1584  0.2944
   10loPI   C3A  153   5.806   4.829   8.593 -0.1401  0.1277  0.1306
   10loPI   C4A  154   6.129   4.531   8.489  0.1523 -0.1287 -0.0934
   10loPI   C5A  155   6.092   4.195   8.236 -0.1235  0.2038  0.4077
   10loPI   C6A  156   5.812   4.043   7.946  0.0807 -0.0494  0.1010
   10loPI   C1B  157   5.281   4.668   9.494  0.0002  0.1068 -0.1043
   10loPI   C2B  158   5.179   4.659   9.229 -0.3350 -0.1461  0.0338
   10loPI   C3B  159   5.265   4.746   8.812 -0.1375  0.0500 -0.0668
   10loPI   C4B  160   4.995   4.999   8.623  0.3096 -0.0693 -0.0787
   11loPI    C1  161  14.257  12.856  10.893 -0.0425 -0.2174 -0.1661
   11loPI    C2  162  14.562  12.620  11.000  0.0560  0.1375  0.3777
   11loPI    C3  163  14.240  12.649  11.235 -0.3797 -0.1792 -0.1566
   11loPI   PO4  164  14.238  12.802  10.638  0.0414  0.1034  0.2176
   11loPI   GL1  165  14.469  13.080  10.381  0.2335 -0.1377  0.0110
   11loPI   GL2  166  14.757  13.183  10.237 -0.0780  0.2363 -0.0825
   11loPI   C1A  167  14.272  13.253   9.910  0.1414 -0.1095 -0.0525
   11loPI   C2A  168  13.943  13.207   9.541  0.0594 -0.3638  0.1519
   11loPI   C3A  169  13.645  13.649   9.489 -0.1142  0.3277  0.0972
   11loPI   C4A  170  13.628  13.705   9.013 -0.0770 -0.0682  0.4951
   11loPI   C5A  171  13.790  13.574   8.595  0.0255 -0.1069 -0.1653
   11loPI   C6A  172  14.096  13.458   8.312  0.1292  0.1693 -0.0809
   11loPI   C1B  173  15.065  13.308   9.859  0.0496  0.2634  0.0976
   11loPI   C2B  174  15.085  13.318   9.373 -0.0051  0.0842  0.0640
   11loPI   C3B  175  15.026  13.278   8.939 -0.2789 -0.1202 -0.2880
   11loPI   C4B  176  15.083  13.308   8.488 -0.0034  0.1255  0.0467
   12loPI    C1  177  10.641   2.778  10.325 -0.1310  0.1331 -0.0538
   12loPI    C2  178  10.720   2.959  10.673  0.1235 -0.0959  0.0114
   12loPI    C3  179  10.847   2.585  10.609 -0.3035 -0.2177 -0.1613
   12loPI   PO4  180  10.719   2.883  10.163 -0.0183  0.2028 -0.2378
   12loPI   GL1  181  10.760   3.044   9.707  0.1036  0.1450 -0.2169
   12loPI   GL2  182  10.836   2.751   9.696  0.2110  0.2256 -0.5453
   12loPI   C1A  183  10.780   2.909   9.197 -0.1839  0.0324  0.3967
   12loPI   C2A  184  10.855   2.888   8.759  0.0051 -0.0947  0.0958
   12loPI   C3A  185  11.066   3.019   8.349 -0.0608  0.1991  0.0051
   12loPI   C4A  186  11.192   3.106   7.959 -0.0754  0.1130  0.0425
   12loPI   C5A  187  11.425   3.326   7.650 -0.0209 -0.0392 -0.2548
   12loPI   C6A  188  11.791   3.566   7.705 -0.0198  0.1758 -0.2897
   12loPI   C1B  189  10.626   2.463   9.461  0.0635 -0.4227 -0.2083
   12loPI   C2B  190  10.760   2.361   9.064  0.2142 -0.0927  0.1373
   12loPI   C3B  191  10.925   2.397   8.570  0.2371  0.1503  0.2219
   12loPI   C4B  192  10.773   2.166   8.181 -0.2529 -0.0153  0.0196
   13loPI    C1  193  14.099   0.925  10.696 -0.0217  0.0806  0.1594
   13loPI    C2  194  14.257   0.666  10.956  0.1546  0.0504  0.0239
   13loPI    C3  195  14.129   1.023  11.083  0.3753  0.0939  0.1293
   13loPI   PO4  196  14.237   0.841  10.496  0.1335 -0.1470  0.0388
   13loPI   GL1  197  14.475   0.866  10.087  0.3786  0.1393 -0.1680
   13loPI   GL2  198  14.412   0.544   9.977  0.1063 -0.5873 -0.0049
   13loPI   C1A  199  14.659   0.979   9.683 -0.1627  0.0169  0.0860
   13loPI   C2A  200  14.762   1.106   9.308  0.0236 -0.2898  0.0205
   13loPI   C3A  201  14.854   1.083   8.926 -0.1619 -0.2109  0.2313
   13loPI   C4A  202  14.857   1.040   8.528  0.0281  0.0649 -0.0858
   13loPI   C5A  203  15.140   1.218   8.235  0.0650  0.0856  0.0831
   13loPI   C6A  204  15.385   0.984   7.888  0.2026  0.3756  0.0573
   13loPI   C1B  205  14.499   0.422   9.475 -0.0202 -0.0856 -0.1563
   13loPI   C2B  206  14.427   0.456   9.136  0.0244 -0.1578  0.2443
   13loPI   C3B  207  14.423   0.223   8.765 -0.0432 -0.0129  0.1316
   13loPI   C4B  208  14.152   0.003   8.542  0.2892  0.3374  0.1416
   14loPI    C1  209  14.659   0.293  10.799  0.1050  0.2187  0.0453
   14loPI    C2  210  15.043   0.396  10.754  0.1822  0.0279  0.2480
   14loPI    C3  211  14.824   0.564  11.043  0.0592  0.2719  0.0175
   14loPI   PO4  212  14.672   0.049  10.561  0.0350 -0.1921  0.1689
   14loPI   GL1  213  14.683   0.117  10.221  0.0505 -0.0205  0.1576
   14loPI   GL2  214  14.898   0.425  10.226  0.0111 -0.2614  0.0719
   14loPI   C1A  215  14.490   0.113   9.831  0.1586 -0.3449 -0.1901
   14loPI   C2A  216  14.452  -0.240   9.564 -0.2414 -0.2039  0.0709
   14loPI   C3A  217  14.528  -0.285   9.214  0.4597  0.3357 -0.0324
   14loPI   C4A  218  14.585  -0.283   8.769 -0.0742 -0.0952  0.1706
   14loPI   C5A  219  14.590  -0.080   8.363 -0.2591 -0.2589  0.2487
   14loPI   C6A  220  14.867   0.185   8.083  0.1316 -0.0866  0.0907
   14loPI   C1B  221  14.868   0.494   9.812 -0.0749  0.3424  0.1219
   14loPI   C2B  222  14.982   0.574   9.363 -0.1123  0.0451  0.1599
   14loPI   C3B  223  14.947   0.589   8.908 -0.1742 -0.2333  0.0254
   14loPI   C4B  224  14.801   0.545   8.551  0.3628  0.0686  0.2147
   15loPI    C1  225   6.167   7.075  10.691 -0.0139 -0.0059 -0.0409
   15loPI    C2  226   5.897   6.860  10.487  0.1203 -0.1157 -0.1046
   15loPI    C3  227   5.808   7.231  10.607  0.0119 -0.0785 -0.2961
   15loPI   PO4  228   6.389   7.075  10.531 -0.0239 -0.3127  0.3610
   15loPI   GL1  229   6.588   6.798  10.263  0.0287  0.1810 -0.0628
   15loPI   GL2  230   6.693   6.614  10.098 -0.0168  0.1770  0.2568
   15loPI   C1A  231   6.597   7.051   9.881 -0.4476 -0.1066  0.1454
   15loPI   C2A  232   6.683   7.182   9.504 -0.1286 -0.0100 -0.1363
   15loPI   C3A  233   6.561   7.047   9.111  0.0099 -0.1904 -0.3101
   15loPI   C4A  234   6.294   6.999   8.764  0.0490  0.0455  0.0539
   15loPI   C5A  235   6.226   7.014   8.380 -0.1138 -0.1117  0.0035
   15loPI   C6A  236   5.946   7.134   7.973 -0.0717  0.2591  0.2638
   15loPI   C1B  237   6.859   6.599   9.730  0.1304  0.0718 -0.1022
   15loPI   C2B  238   7.010   6.651   9.281 -0.1042 -0.0604  0.1077
   15loPI   C3B  239   6.991   6.787   8.816 -0.3486 -0.0117 -0.2582
   15loPI   C4B  240   6.967   6.779   8.389  0.1399 -0.4079 -0.0337
   16loPI    C1  241   8.495   8.504  10.875 -0.0372 -0.0566 -0.0830
   16loPI    C2  242   8.164   8.659  11.038 -0.0376 -0.0149 -0.1233
   16loPI    C3  243   8.480   8.573  11.268 -0.0855 -0.0781 -0.0809
   16loPI   PO4  244   8.497   8.624  10.579 -0.0336  0.2437 -0.1138
   16loPI   GL1  245   8.215   8.613  10.249 -0.1575  0.0541  0.3514
   16loPI   GL2  246   8.492   8.392  10.184  0.0202 -0.0810 -0.1658
   16loPI   C1A  247   8.068   8.681   9.816 -0.0590 -0.1226  0.3398
   16loPI   C2A  248   7.952   8.736   9.361  0.0324  0.1584 -0.0349
   16loPI   C3A  249   8.100   8.697   9.031  0.1282 -0.1312 -0.1144
   16loPI   C4A  250   8.199   8.744   8.605  0.0349 -0.1120 -0.0751
   16loPI   C5A  251   8.257   9.045   8.246 -0.0586 -0.2889 -0.1141
   16loPI   C6A  252   8.224   9.364   7.906  0.0231  0.3093  0.0977
   16loPI   C1B  253   8.457   8.428   9.660  0.1820 -0.0718 -0.0955
   16loPI   C2B  254   8.500   8.404   9.209  0.0689  0.0453 -0.0606
   16loPI   C3B  255   8.567   8.463   8.757  0.1200 -0.0795 -0.0689
   16loPI   C4B  256   8.607   8.601   8.339 -0.1187  0.0285 -0.0802
   17loPI    C1  257   5.349  16.099  10.960 -0.0785  0.0276  0.0982
   17loPI    C2  258   5.466  15.996  11.329  0.0240 -0.0240  0.0517
   17loPI    C3  259   5.634  16.309  11.146  0.0603 -0.0728  0.0012
   17loPI   PO4  260   5.262  15.861  10.863 -0.0600  0.0159 -0.0808
   17loPI   GL1  261   4.972  15.621  10.496  0.0227 -0.0135 -0.3094
   17loPI   GL2  262   4.661  15.781  10.391 -0.2058  0.0912  0.0111
   17loPI   C1A  263   5.104  15.654  10.110  0.1781 -0.3507 -0.0785
   17loPI   C2A  264   5.035  15.680   9.647 -0.1327  0.2491 -0.0283
   17loPI   C3A  265   5.063  15.801   9.289  0.1498 -0.0227 -0.2097
   17loPI   C4A  266   5.121  15.831   8.890  0.1023  0.1918 -0.0301
   17loPI   C5A  267   5.047  15.651   8.506 -0.3298  0.2379 -0.0095
   17loPI   C6A  268   5.342  15.434   8.380 -0.1656 -0.0798 -0.0675
   17loPI   C1B  269   4.648  15.927  10.003  0.0879 -0.0897  0.0784
   17loPI   C2B  270   4.565  15.946   9.541 -0.0145  0.2257 -0.3652
   17loPI   C3B  271   4.648  15.940   9.080  0.1901 -0.1469 -0.2560
   17loPI   C4B  272   4.681  16.012   8.692  0.2378  0.2998 -0.0861
   18loPI    C1  273  16.796   6.162  10.514 -0.0088  0.0350  0.0873
   18loPI    C2  274  16.612   6.360  10.810 -0.2161 -0.0972  0.0486
   18loPI    C3  275  16.908   6.104  10.894  0.0799  0.2529  0.0961
   18loPI   PO4  276  16.590   6.124  10.368 -0.1663  0.3480  0.1485
   18loPI   GL1  277  16.651   6.060   9.951  0.0506  0.2111 -0.1485
   18loPI   GL2  278  16.594   6.354   9.922 -0.2058 -0.0594 -0.1978
   18loPI   C1A  279  16.530   6.006   9.516  0.2077 -0.1590 -0.0316
   18loPI   C2A  280  16.448   5.903   9.164 -0.0143 -0.2056 -0.0314
   18loPI   C3A  281  16.318   5.800   8.754  0.4266 -0.1516 -0.2031
   18loPI   C4A  282  16.212   5.860   8.209  0.1381  0.0225 -0.2821
   18loPI   C5A  283  15.996   5.608   7.966  0.1861 -0.3630  0.0276
   18loPI   C6A  284  15.607   5.679   7.711 -0.1147 -0.1808  0.2025
   18loPI   C1B  285  16.665   6.467   9.528 -0.2049 -0.3270 -0.0560
   18loPI   C2B  286  16.661   6.510   9.130 -0.2288 -0.0628 -0.1001
   18loPI   C3B  287  16.397   6.306   8.837 -0.2317 -0.0335  0.1579
   18loPI   C4B  288  16.357   6.266   8.453  0.2375  0.3429 -0.1878
   19loPI    C1  289   2.520   1.558  11.231 -0.0098 -0.1610 -0.0880
   19loPI    C2  290   2.248   1.804  11.389  0.0597 -0.2072  0.1066
   19loPI    C3  291   2.309   1.444  11.551  0.3383 -0.1408  0.1551
   19loPI   PO4  292   2.401   1.549  10.986  0.1208  0.0586  0.1152
   19loPI   GL1  293   2.533   1.250  10.644  0.1106 -0.0237 -0.0800
   19loPI   GL2  294   2.644   1.626  10.505 -0.1107  0.0817 -0.2929
   19loPI   C1A  295   2.389   1.029  10.244 -0.1028  0.0069 -0.1762
   19loPI   C2A  296   2.423   0.978   9.817  0.1089 -0.0359  0.1752
   19loPI   C3A  297   2.281   0.962   9.351 -0.1299 -0.2295  0.0232
   19loPI   C4A  298   2.176   0.943   8.938  0.0732  0.3889 -0.2571
   19loPI   C5A  299   1.808   1.123   8.748  0.2378  0.0844  0.0960
   19loPI   C6A  300   1.261   1.279   8.628 -0.2199 -0.2601 -0.1359
   19loPI   C1B  301   2.490   1.501  10.146  0.2009 -0.1489  0.1507
   19loPI   C2B  302   2.380   1.543   9.765 -0.2055  0.0686  0.1000
   19loPI   C3B  303   2.397   1.455   9.315 -0.0756 -0.2643 -0.1639
   19loPI   C4B  304   2.209   1.497   8.858 -0.2551 -0.2552  0.0205
   20loPI    C1  305   0.267   0.868  11.219  0.0728  0.0852  0.1303
   20loPI    C2  306   0.620   1.020  11.330  0.1465 -0.1541  0.2304
   20loPI    C3  307   0.433   0.756  11.565  0.0666 -0.2916  0.0151
   20loPI   PO4  308   0.294   0.676  10.952 -0.1219  0.2939 -0.1371
   20loPI   GL1  309   0.212   0.714  10.512 -0.0344  0.2231  0.0338
   20loPI   GL2  310   0.001   0.528  10.591  0.1222  0.1384 -0.0053
   20loPI   C1A  311   0.441   0.684  10.116  0.0900  0.2677  0.0503
   20loPI   C2A  312   0.610   0.670   9.702  0.0345 -0.0189 -0.0090
   20loPI   C3A  313   0.471   0.760   9.272  0.2800  0.0792  0.1796
   20loPI   C4A  314   0.460   1.092   8.976 -0.1213  0.1043  0.1584
   20loPI   C5A  315   0.286   1.323   8.679 -0.0124 -0.2225  0.0177
   20loPI   C6A  316   0.056   1.705   8.648 -0.1123  0.3322 -0.1368
   20loPI   C1B  317   0.224   0.219  10.294 -0.0372 -0.2301 -0.0483
   20loPI   C2B  318   0.301   0.237   9.861 -0.1121  0.1236 -0.0513
   20loPI   C3B  319   0.415   0.257   9.473  0.0725 -0.1708  0.0274
   20loPI   C4B  320   0.422   0.162   9.096 -0.2299  0.1575  0.0781
   21loPI    C1  321  10.906  12.855  10.518 -0.1364 -0.0155  0.0485
   21loPI    C2  322  11.280  12.804  10.651 -0.0315  0.0200 -0.2257
   21loPI    C3  323  11.072  13.128  10.758  0.0275  0.0164 -0.0984
   21loPI   PO4  324  10.930  12.878  10.229  0.3135 -0.2418  0.2212
   21loPI   GL1  325  10.948  12.892   9.783 -0.0175 -0.2423 -0.1164
   21loPI   GL2  326  10.789  13.192   9.718 -0.0420  0.0850 -0.1247
   21loPI   C1A  327  10.888  12.801   9.421 -0.0023 -0.3137  0.0226
   21loPI   C2A  328  10.841  12.674   9.046 -0.0593 -0.0204  0.0349
   21loPI   C3A  329  10.837  12.615   8.578  0.0096  0.1163  0.0554
   21loPI   C4A  330  10.592  12.676   8.163  0.0019 -0.0168  0.0867
   21loPI   C5A  331  10.446  12.848   7.750  0.0132  0.1594 -0.2103
   21loPI   C6A  332  10.446  12.851   7.308 -0.1736 -0.0263 -0.2442
   21loPI   C1B  333  10.706  13.213   9.219  0.0964  0.1874  0.3105
   21loPI   C2B  334  10.517  13.157   8.774  0.0410  0.2794 -0.3749
   21loPI   C3B  335  10.458  13.166   8.375 -0.0963  0.1082  0.0171
   21loPI   C4B  336  10.061  13.160   8.115 -0.2020 -0.0082 -0.2063
   22loPI    C1  337  13.201   4.177  10.744 -0.0613  0.3455 -0.2100
   22loPI    C2  338  12.829   4.285  10.844 -0.1025  0.0020  0.0249
   22loPI    C3  339  13.112   4.257  11.126  0.0750  0.1505 -0.1359
   22loPI   PO4  340  13.200   4.264  10.529 -0.0343 -0.1476 -0.1433
   22loPI   GL1  341  13.176   4.297  10.126 -0.4883  0.3044  0.0289
   22loPI   GL2  342  13.190   3.896  10.082 -0.0192 -0.1678 -0.2154
   22loPI   C1A  343  13.409   4.323   9.762 -0.1037  0.0873  0.0073
   22loPI   C2A  344  13.601   4.413   9.426 -0.1080 -0.2065 -0.0195
   22loPI   C3A  345  13.524   4.409   8.960  0.1502 -0.2456 -0.0772
   22loPI   C4A  346  13.665   4.381   8.566  0.0744  0.0052 -0.2471
   22loPI   C5A  347  13.831   4.522   8.092 -0.1967 -0.2252  0.1267
   22loPI   C6A  348  14.071   4.434   7.679 -0.1769 -0.1039  0.0927
   22loPI   C1B  349  13.021   3.997   9.711 -0.0854  0.1395  0.0969
   22loPI   C2B  350  13.117   4.287   9.322 -0.0882  0.1262  0.1674
   22loPI   C3B  351  13.030   4.270   8.947 -0.0004 -0.0404  0.0699
   22loPI   C4B  352  13.128   4.390   8.543  0.0749  0.3256 -0.0482
   23loPI    C1  353   5.140   1.248  10.937 -0.0466  0.2711 -0.1636
   23loPI    C2  354   4.755   1.276  11.041 -0.0191 -0.0465  0.0380
   23loPI    C3  355   5.041   1.336  11.314  0.0710 -0.0320 -0.0588
   23loPI   PO4  356   5.048   1.139  10.583 -0.0868  0.2415  0.1303
   23loPI   GL1  357   5.044   1.302  10.168  0.1104  0.2391 -0.3470
   23loPI   GL2  358   4.793   1.422  10.098 -0.0785  0.2052  0.1544
   23loPI   C1A  359   5.274   1.115   9.951  0.0654  0.0305 -0.0162
   23loPI   C2A  360   5.179   0.920   9.515  0.0327  0.0556 -0.2990
   23loPI   C3A  361   5.170   0.994   9.056  0.0301 -0.0324  0.0847
   23loPI   C4A  362   5.233   0.903   8.581  0.1545 -0.1197 -0.2017
   23loPI   C5A  363   5.235   0.855   8.172 -0.1405  0.2326 -0.1134
   23loPI   C6A  364   5.463   0.693   7.888  0.0134  0.1671  0.1555
   23loPI   C1B  365   4.738   1.172   9.716  0.1030  0.0767  0.0139
   23loPI   C2B  366   4.711   1.137   9.246  0.2411 -0.3750 -0.0696
   23loPI   C3B  367   4.731   1.201   8.815  0.0068  0.3784  0.0710
   23loPI   C4B  368   4.677   1.295   8.358 -0.0612 -0.2810 -0.0764
   24loPI    C1  369  10.679   1.361  10.333 -0.1493 -0.0172 -0.1090
   24loPI    C2  370  10.912   1.627  10.519 -0.0095 -0.2403  0.0396
   24loPI    C3  371  10.515   1.674  10.522  0.0310  0.1845 -0.2813
   24loPI   PO4  372  10.761   1.190  10.370 -0.0018 -0.0691  0.3480
   24loPI   GL1  373  10.974   0.915  10.019 -0.1552 -0.4386 -0.0530
   24loPI   GL2  374  10.726   0.833   9.868  0.2043 -0.0710  0.1927
   24loPI   C1A  375  11.132   1.111   9.674  0.0052 -0.4723 -0.1488
   24loPI   C2A  376  10.814   1.035   9.372  0.0585  0.0264 -0.0213
   24loPI   C3A  377  10.682   0.873   8.939 -0.0171  0.2733  0.0482
   24loPI   C4A  378  10.732   0.678   8.605  0.3156 -0.0643 -0.1744
   24loPI   C5A  379  10.824   0.492   8.303  0.0736  0.0309 -0.1902
   24loPI   C6A  380  11.179   0.464   7.962  0.0956 -0.1100  0.0726
   24loPI   C1B  381  10.975   0.631   9.630  0.3263 -0.0385  0.1203
   24loPI   C2B  382  11.083   0.555   9.166 -0.0463 -0.1509  0.1695
   24loPI   C3B  383  11.181   0.595   8.811 -0.0300 -0.1184 -0.2091
   24loPI   C4B  384  11.448   0.589   8.496  0.2471 -0.3493 -0.0519
   25loPI    C1  385  16.217   8.543  10.635  0.2945  0.0706 -0.1738
   25loPI    C2  386  16.034   8.815  10.865  0.0210 -0.3414  0.1106
   25loPI    C3  387  16.412   8.874  10.748 -0.0570  0.1910  0.1016
   25loPI   PO4  388  16.070   8.461  10.502  0.3018 -0.1902 -0.0976
   25loPI   GL1  389  15.874   8.328  10.151 -0.0576 -0.0494  0.2568
   25loPI   GL2  390  16.135   8.117   9.960 -0.1208  0.0523 -0.1458
   25loPI   C1A  391  15.707   8.269   9.754  0.1665 -0.2733 -0.1568
   25loPI   C2A  392  15.737   8.257   9.411 -0.1560  0.1792 -0.3112
   25loPI   C3A  393  15.742   8.129   8.990 -0.2659  0.0497  0.1740
   25loPI   C4A  394  15.642   7.690   8.721  0.1042 -0.0669  0.0272
   25loPI   C5A  395  15.561   7.440   8.335 -0.0288  0.1240  0.0030
   25loPI   C6A  396  15.289   7.083   8.373  0.1405  0.0968  0.1430
   25loPI   C1B  397  16.224   8.317   9.556  0.1914 -0.0287  0.1830
   25loPI   C2B  398  16.173   8.394   9.104 -0.2617 -0.2012  0.0800
   25loPI   C3B  399  16.427   8.435   8.752  0.1065 -0.1793  0.2601
   25loPI   C4B  400  16.487   8.232   8.357  0.0853 -0.0592  0.0446
   26loPI    C1  401   5.519  14.974  11.511 -0.0280 -0.0458  0.0443
   26loPI    C2  402   5.874  14.807  11.592 -0.0207  0.0715  0.2602
   26loPI    C3  403   5.567  14.757  11.844 -0.1401  0.0242  0.1066
   26loPI   PO4  404   5.596  15.010  11.134  0.0591  0.1559  0.1540
   26loPI   GL1  405   5.726  14.852  10.777  0.0658  0.0518  0.2998
   26loPI   GL2  406   5.401  14.980  10.648  0.1705 -0.0562 -0.0004
   26loPI   C1A  407   6.107  14.765  10.390 -0.1569 -0.3063  0.1728
   26loPI   C2A  408   6.098  14.698   9.974  0.1798 -0.1526 -0.1876
   26loPI   C3A  409   6.064  14.726   9.542  0.1183 -0.2960 -0.1651
   26loPI   C4A  410   6.076  14.698   9.183  0.2434  0.0886  0.0663
   26loPI   C5A  411   6.046  14.811   8.803 -0.1024 -0.2317  0.3357
   26loPI   C6A  412   5.880  15.129   8.511  0.0279  0.2099 -0.1744
   26loPI   C1B  413   5.585  14.908  10.234  0.0221  0.0561 -0.2744
   26loPI   C2B  414   5.612  14.951   9.835  0.0488  0.1242  0.3237
   26loPI   C3B  415   5.561  14.954   9.417  0.0374 -0.0690  0.0365
   26loPI   C4B  416   5.598  14.980   8.895 -0.0170  0.0153  0.0135
   27loPI    C1  417   4.393  10.177  10.578 -0.0778 -0.0550  0.1181
   27loPI    C2  418   4.545   9.905  10.829 -0.0918 -0.0069  0.1789
   27loPI    C3  419   4.651  10.290  10.862 -0.1043  0.0017  0.1197
   27loPI   PO4  420   4.331  10.079  10.411 -0.1059  0.2698  0.0366
   27loPI   GL1  421   4.511   9.894  10.051 -0.1341  0.1012 -0.1409
   27loPI   GL2  422   4.647  10.184  10.045  0.1214  0.0182 -0.1262
   27loPI   C1A  423   4.371   9.906   9.629  0.0149 -0.0756  0.2055
   27loPI   C2A  424   4.280   9.807   9.222 -0.1769  0.0667 -0.0300
   27loPI   C3A  425   4.190   9.846   8.851  0.1291  0.2186  0.0643
   27loPI   C4A  426   4.215   9.663   8.486 -0.1995 -0.1207  0.0662
   27loPI   C5A  427   3.977   9.376   8.196 -0.0490  0.0423  0.1282
   27loPI   C6A  428   3.702   8.974   8.337  0.1854  0.0757  0.1176
   27loPI   C1B  429   4.724  10.210   9.605  0.2867  0.0521  0.1933
   27loPI   C2B  430   4.739  10.191   9.227  0.3031  0.0362  0.0439
   27loPI   C3B  431   4.731  10.023   8.860  0.1202 -0.0785 -0.1643
   27loPI   C4B  432   4.458  10.159   8.445 -0.0242 -0.0943 -0.2236
   28loPI    C1  433   2.390   4.187  10.889 -0.2136  0.1070 -0.0855
   28loPI    C2  434   2.087   3.926  10.879 -0.1146 -0.0122  0.0015
   28loPI    C3  435   2.147   4.151  11.205 -0.1619  0.0740 -0.0493
   28loPI   PO4  436   2.397   4.262  10.577  0.4342 -0.1742  0.0370
   28loPI   GL1  437   2.300   3.949  10.403  0.0092 -0.0067  0.2462
   28loPI   GL2  438   2.635   3.866  10.264 -0.1662  0.1923 -0.2344
   28loPI   C1A  439   2.320   4.226   9.948 -0.2688  0.0350 -0.1932
   28loPI   C2A  440   2.258   4.174   9.489  0.0753 -0.0950  0.0283
   28loPI   C3A  441   2.294   4.060   9.022  0.0086 -0.0785 -0.1036
   28loPI   C4A  442   2.248   4.075   8.589  0.0169  0.0720 -0.1309
   28loPI   C5A  443   2.029   3.824   8.257  0.1803 -0.0054 -0.0103
   28loPI   C6A  444   1.640   3.625   8.199  0.0471 -0.0646  0.4771
   28loPI   C1B  445   2.769   3.929   9.890  0.2032  0.1556 -0.2444
   28loPI   C2B  446   2.757   3.900   9.441 -0.0537  0.2543 -0.2713
   28loPI   C3B  447   2.767   3.793   9.108  0.0673  0.1601  0.0952
   28loPI   C4B  448   2.664   3.805   8.704  0.0485 -0.1075  0.2050
   29loPI    C1  449  10.370  15.604  10.638 -0.1228  0.0858 -0.0200
   29loPI    C2  450  10.770  15.608  10.629 -0.1109 -0.3090  0.1347
   29loPI    C3  451  10.572  15.864  10.865  0.0606 -0.3027  0.2731
   29loPI   PO4  452  10.292  15.632  10.453  0.0410 -0.2041 -0.1239
   29loPI   GL1  453  10.433  15.438  10.142 -0.0532 -0.0811  0.2497
   29loPI   GL2  454  10.570  15.644  10.050  0.2145  0.0343  0.3760
   29loPI   C1A  455  10.311  15.345   9.711  0.0554 -0.1021 -0.2861
   29loPI   C2A  456  10.272  15.410   9.275  0.1561 -0.0411  0.2243
   29loPI   C3A  457  10.151  15.441   8.783 -0.0473  0.0029  0.0168
   29loPI   C4A  458  10.190  15.488   8.329  0.0805 -0.1480  0.0622
   29loPI   C5A  459  10.052  15.803   8.218  0.1371  0.0713 -0.2740
   29loPI   C6A  460   9.857  16.012   7.939 -0.0362  0.4052  0.1970
   29loPI   C1B  461  10.723  15.672   9.712  0.3583 -0.0794 -0.0968
   29loPI   C2B  462  10.632  15.724   9.339 -0.1449 -0.1676 -0.0955
   29loPI   C3B  463  10.560  15.825   8.988 -0.1133 -0.2806 -0.1783
   29loPI   C4B  464  10.661  15.725   8.678  0.0756  0.1274  0.0330
   30loPI    C1  465   4.767   4.225  10.415 -0.1597  0.0306 -0.1764
   30loPI    C2  466   4.367   4.230  10.402 -0.1707  0.1718  0.1335
   30loPI    C3  467   4.555   4.135  10.742  0.0600  0.1390 -0.0016
   30loPI   PO4  468   4.945   4.553  10.294  0.0367  0.1826 -0.1181
   30loPI   GL1  469   5.057   4.583   9.906  0.2023 -0.1215 -0.1825
   30loPI   GL2  470   4.928   4.320   9.769 -0.0430  0.0569  0.1155
   30loPI   C1A  471   4.779   4.825   9.556 -0.4195 -0.0992  0.2416
   30loPI   C2A  472   4.682   4.830   9.108 -0.1379 -0.1937  0.0941
   30loPI   C3A  473   4.524   4.923   8.672 -0.1445 -0.1234  0.2064
   30loPI   C4A  474   4.354   4.853   8.314 -0.2335 -0.1656 -0.1642
   30loPI   C5A  475   3.986   4.724   8.052  0.0111 -0.2417  0.3055
   30loPI   C6A  476   3.514   4.713   8.003 -0.0677  0.2763 -0.1706
   30loPI   C1B  477   4.768   4.333   9.280  0.2033 -0.0793 -0.2234
   30loPI   C2B  478   4.671   4.339   8.869  0.1222 -0.0545  0.2495
   30loPI   C3B  479   4.791   4.487   8.411  0.0196  0.0918  0.1191
   30loPI   C4B  480   4.953   4.546   7.935  0.0787  0.1305 -0.0392
   31loPI    C1  481   6.437   6.178  10.900 -0.3914 -0.0115  0.2103
   31loPI    C2  482   6.581   5.867  11.105  0.3524  0.0051 -0.2504
   31loPI    C3  483   6.597   6.234  11.262  0.2246 -0.0767 -0.0406
   31loPI   PO4  484   6.388   5.956  10.620  0.0152 -0.0295 -0.0246
   31loPI   GL1  485   6.370   6.142  10.216  0.2500 -0.0128  0.0681
   31loPI   GL2  486   6.251   6.440  10.216  0.0553  0.1103 -0.1634
   31loPI   C1A  487   6.360   6.056   9.817 -0.0205 -0.1059 -0.1422
   31loPI   C2A  488   6.273   6.232   9.471 -0.0507  0.4786 -0.1500
   31loPI   C3A  489   6.266   6.270   9.022  0.1779 -0.1830 -0.0524
   31loPI   C4A  490   6.552   6.148   8.778 -0.0209 -0.5618  0.0090
   31loPI   C5A  491   6.792   5.858   8.677  0.0462  0.0947 -0.2434
   31loPI   C6A  492   6.928   5.810   8.258 -0.0740 -0.1221  0.0009
   31loPI   C1B  493   6.318   6.595   9.822 -0.1527  0.1345  0.0621
   31loPI   C2B  494   6.467   6.662   9.436 -0.0833 -0.0309 -0.1187
   31loPI   C3B  495   6.597   6.593   8.996  0.0561 -0.1603  0.1500
   31loPI   C4B  496   6.535   6.611   8.567 -0.1227 -0.2588  0.2397
   32loPI    C1  497  15.516  10.498  10.910 -0.0097  0.0548  0.1418
   32loPI    C2  498  15.452  10.454  11.302  0.0617  0.0100  0.1485
   32loPI    C3  499  15.422  10.816  11.134 -0.0676  0.0129  0.1770
   32loPI   PO4  500  15.618  10.252  10.754 -0.0191 -0.1765 -0.2449
   32loPI   GL1  501  15.635  10.103  10.399 -0.0539 -0.0758 -0.0211
   32loPI   GL2  502  15.956  10.148  10.196  0.1664 -0.1067 -0.0663
   32loPI   C1A  503  15.476   9.968   9.996  0.1998  0.1233  0.0463
   32loPI   C2A  504  15.635   9.926   9.599 -0.1711  0.0837  0.0143
   32loPI   C3A  505  15.479   9.942   9.231 -0.0274 -0.0250 -0.2318
   32loPI   C4A  506  15.547   9.935   8.816  0.1141  0.0229 -0.0148
   32loPI   C5A  507  15.658   9.751   8.397  0.1050 -0.1026  0.0793
   32loPI   C6A  508  15.459   9.770   8.030  0.3489  0.0006 -0.2833
   32loPI   C1B  509  16.016  10.208   9.819  0.1552 -0.0303  0.0735
   32loPI   C2B  510  16.019  10.203   9.329 -0.1141 -0.2497  0.1217
   32loPI   C3B  511  15.993  10.247   8.910  0.1807  0.3115 -0.2381
   32loPI   C4B  512  15.803  10.214   8.518 -0.0472 -0.1087  0.0226
   33loPI    C1  513   3.789  16.420  11.134  0.1658 -0.0896  0.3598
   33loPI    C2  514   4.031  16.738  11.152  0.2154 -0.0838 -0.2227
   33loPI    C3  515   4.079  16.467  10.862 -0.2708 -0.2556 -0.1507
   33loPI   PO4  516   3.537  16.473  11.063  0.1454  0.0807  0.0529
   33loPI   GL1  517   3.403  16.691  10.681 -0.1563  0.1193 -0.1582
   33loPI   GL2  518   3.273  16.360  10.663 -0.1931 -0.0058  0.1077
   33loPI   C1A  519   3.362  16.708  10.200 -0.0811  0.0605 -0.0055
   33loPI   C2A  520   3.297  16.682   9.790 -0.0555 -0.0501  0.0881
   33loPI   C3A  521   3.302  16.770   9.305 -0.2621  0.4843  0.2645
   33loPI   C4A  522   3.291  16.596   8.900  0.0394 -0.1698  0.2706
   33loPI   C5A  523   3.031  16.365   8.676 -0.1400 -0.0442  0.2912
   33loPI   C6A  524   3.084  16.003   8.314 -0.1372 -0.2529 -0.0389
   33loPI   C1B  525   3.385  16.235  10.263 -0.1298  0.0062  0.0303
   33loPI   C2B  526   3.292  16.195   9.948  0.1842 -0.1229 -0.0549
   33loPI   C3B  527   3.337  16.157   9.572  0.2232 -0.0212 -0.1170
   33loPI   C4B  528   3.380  16.225   9.193 -0.0420 -0.1822  0.0782
   34loPI    C1  529   4.330   7.703  10.515  0.0706  0.1736 -0.1782
   34loPI    C2  530   4.104   7.844  10.813 -0.0737  0.1870 -0.2928
   34loPI    C3  531   3.950   7.582  10.553  0.2099 -0.2393 -0.0434
   34loPI   PO4  532   4.431   7.925  10.447  0.1292 -0.0425  0.1824
   34loPI   GL1  533   4.339   8.185  10.122  0.0336 -0.1497  0.1454
   34loPI   GL2  534   4.275   8.457  10.265  0.1323 -0.2014 -0.0089
   34loPI   C1A  535   4.324   8.146   9.612 -0.1621 -0.0819 -0.1715
   34loPI   C2A  536   4.256   8.176   9.323  0.1936  0.0061  0.0045
   34loPI   C3A  537   4.088   8.157   8.914  0.1119 -0.0213  0.0857
   34loPI   C4A  538   4.046   8.099   8.474 -0.0245 -0.0744 -0.2547
   34loPI   C5A  539   3.733   7.902   8.205 -0.1410  0.3294 -0.0267
   34loPI   C6A  540   3.914   7.772   7.841 -0.0004  0.1413  0.1202
   34loPI   C1B  541   4.083   8.551   9.893 -0.0534 -0.1422 -0.1779
   34loPI   C2B  542   4.201   8.634   9.471 -0.2290 -0.3537  0.5850
   34loPI   C3B  543   4.249   8.752   8.970  0.0343 -0.0522  0.1310
   34loPI   C4B  544   4.374   8.618   8.620 -0.1527 -0.0464 -0.0201
   35loPI    C1  545   0.864  15.342  11.279  0.0174 -0.2159 -0.0728
   35loPI    C2  546   0.784  15.268  10.894 -0.0484  0.0635 -0.1147
   35loPI    C3  547   0.737  14.980  11.167  0.0408 -0.1491 -0.3207
   35loPI   PO4  548   0.894  15.557  11.273 -0.1628 -0.3086  0.1045
   35loPI   GL1  549   1.085  15.806  10.929  0.1496  0.5592 -0.1566
   35loPI   GL2  550   1.082  16.139  10.847  0.1738 -0.0360  0.2931
   35loPI   C1A  551   1.126  15.406  10.537 -0.3053 -0.1605  0.0722
   35loPI   C2A  552   1.006  15.375  10.083  0.1290  0.2394 -0.1647
   35loPI   C3A  553   0.949  15.463   9.658 -0.0106  0.2525  0.0550
   35loPI   C4A  554   1.012  15.501   9.296 -0.3103  0.0060 -0.3273
   35loPI   C5A  555   1.122  15.277   8.963 -0.0705 -0.0280 -0.1300
   35loPI   C6A  556   1.177  14.886   8.685  0.0399 -0.3733 -0.0856
   35loPI   C1B  557   0.994  15.898  10.423  0.1299 -0.1543 -0.1680
   35loPI   C2B  558   0.999  15.924   9.953 -0.0007 -0.0219  0.2356
   35loPI   C3B  559   0.988  15.976   9.571 -0.1943 -0.1689  0.0522
   35loPI   C4B  560   1.056  16.028   9.137 -0.2348  0.1446  0.0404
   36loPI    C1  561   0.406   6.246  10.653  0.0332  0.0246 -0.2311
   36loPI    C2  562   0.131   6.487  10.492 -0.0105  0.1504  0.0266
   36loPI    C3  563   0.169   6.464  10.890  0.0613 -0.1939  0.0033
   36loPI   PO4  564   0.451   6.100  10.526  0.3225  0.2267 -0.0801
   36loPI   GL1  565   0.588   6.086  10.073  0.0663 -0.0078  0.1027
   36loPI   GL2  566   0.738   6.346   9.892  0.0063 -0.0365 -0.1359
   36loPI   C1A  567   0.663   5.786   9.755  0.1685  0.0864  0.2112
   36loPI   C2A  568   0.554   5.842   9.307 -0.0761  0.3464 -0.0769
   36loPI   C3A  569   0.498   5.812   8.859  0.0708  0.0018  0.0655
   36loPI   C4A  570   0.561   5.634   8.564 -0.2421 -0.1709  0.0103
   36loPI   C5A  571   0.545   5.627   8.052 -0.0259  0.3724 -0.1929
   36loPI   C6A  572   0.591   5.469   7.681  0.0464 -0.1043  0.1662
   36loPI   C1B  573   0.930   6.241   9.514  0.0805  0.0379 -0.2359
   36loPI   C2B  574   0.950   6.165   9.083  0.2601  0.3296 -0.1995
   36loPI   C3B  575   0.963   5.894   8.665  0.0290 -0.0060  0.0543
   36loPI   C4B  576   1.022   5.684   8.213 -0.2521  0.2846  0.1548
   37loPI    C1  577  10.348   6.435  10.882  0.0721 -0.2531  0.0691
   37loPI    C2  578  10.269   6.544  11.259 -0.1788 -0.0968 -0.0263
   37loPI    C3  579  10.641   6.576  11.116 -0.0926 -0.1086  0.1913
   37loPI   PO4  580  10.185   6.527  10.744 -0.3711 -0.0453 -0.1980
   37loPI   GL1  581   9.913   6.698  10.427  0.0624 -0.5050  0.3170
   37loPI   GL2  582  10.001   6.440  10.133  0.0442 -0.2325  0.1492
   37loPI   C1A  583   9.713   6.840   9.930 -0.0395  0.2012 -0.0111
   37loPI   C2A  584   9.647   7.008   9.584  0.3018  0.0950  0.2199
   37loPI   C3A  585   9.492   6.937   9.193  0.0890 -0.1087  0.0229
   37loPI   C4A  586   9.424   6.698   8.776  0.1486 -0.2336  0.1422
   37loPI   C5A  587   9.474   6.945   8.385 -0.2192  0.0856 -0.1695
   37loPI   C6A  588   9.313   6.972   7.952 -0.1949  0.0400 -0.0880
   37loPI   C1B  589   9.965   6.354   9.684  0.2709  0.0174 -0.0372
   37loPI   C2B  590   9.880   6.537   9.337  0.1176 -0.0110 -0.0655
   37loPI   C3B  591   9.876   6.794   8.972 -0.0867 -0.1102 -0.1289
   37loPI   C4B  592   9.956   7.316   8.949  0.0780  0.0826 -0.2135
   38loPI    C1  593  15.920  10.655  11.166  0.0465  0.0728 -0.0099
   38loPI    C2  594  15.895  10.807  11.535  0.0644 -0.0798  0.0547
   38loPI    C3  595  15.887  10.411  11.480  0.2673 -0.0652 -0.0920
   38loPI   PO4  596  15.991  10.877  10.953  0.2970 -0.1324 -0.0794
   38loPI   GL1  597  15.957  10.966  10.444  0.0543 -0.2943  0.1287
   38loPI   GL2  598  15.705  11.099  10.185 -0.1551 -0.2006 -0.0789
   38loPI   C1A  599  16.036  10.730  10.031  0.0897  0.0941 -0.0374
   38loPI   C2A  600  15.969  10.728   9.534 -0.0505  0.0072 -0.1355
   38loPI   C3A  601  15.948  10.694   9.072  0.3027  0.3287 -0.2135
   38loPI   C4A  602  15.939  10.721   8.684  0.3616  0.0303 -0.1634
   38loPI   C5A  603  15.783  10.689   8.238 -0.2218 -0.0484  0.0921
   38loPI   C6A  604  15.664  10.616   7.813  0.1802 -0.0788 -0.0429
   38loPI   C1B  605  15.598  11.023   9.692  0.1797 -0.1226  0.1589
   38loPI   C2B  606  15.558  10.930   9.322 -0.0784  0.0808  0.0872
   38loPI   C3B  607  15.463  11.145   8.931 -0.3839 -0.1884  0.1193
   38loPI   C4B  608  15.546  11.008   8.567 -0.1138  0.0781  0.0054
   39loPI    C1  609   6.995  11.168  10.945 -0.0175 -0.0688  0.1411
   39loPI    C2  610   6.927  10.966  11.284 -0.1043  0.0433  0.1913
   39loPI    C3  611   6.684  11.265  11.177 -0.1076 -0.0250  0.0031
   39loPI   PO4  612   7.121  10.880  10.845 -0.1251  0.3422 -0.1797
   39loPI   GL1  613   7.087  10.666  10.477  0.0176  0.1219  0.1529
   39loPI   GL2  614   7.022  10.398  10.323  0.1154 -0.0439 -0.3512
   39loPI   C1A  615   6.833  10.773  10.120 -0.0543  0.0674  0.1814
   39loPI   C2A  616   6.992  10.771   9.736  0.1029 -0.2305  0.2090
   39loPI   C3A  617   7.065  10.739   9.303  0.1278  0.1975  0.2884
   39loPI   C4A  618   6.989  10.820   8.931  0.1022 -0.0155  0.1240
   39loPI   C5A  619   6.826  10.839   8.462  0.0346 -0.2686  0.0309
   39loPI   C6A  620   6.710  10.457   8.278  0.0508 -0.2646  0.1639
   39loPI   C1B  621   6.934  10.244   9.885  0.0460  0.2379  0.0781
   39loPI   C2B  622   6.963  10.239   9.467 -0.1134  0.0858  0.0904
   39loPI   C3B  623   7.128  10.282   9.120 -0.2925  0.0645  0.3368
   39loPI   C4B  624   6.962  10.368   8.699  0.1248 -0.0282  0.1099
   40loPI    C1  625  17.324  16.853  11.399 -0.2488 -0.0593 -0.0876
   40loPI    C2  626  17.384  17.147  11.135 -0.0704 -0.1219 -0.1183
   40loPI    C3  627  17.192  17.222  11.478  0.2638  0.1086  0.0234
   40loPI   PO4  628  17.328  16.634  11.190 -0.0891  0.1546 -0.0499
   40loPI   GL1  629  17.504  16.701  10.868 -0.0804  0.0379 -0.1383
   40loPI   GL2  630  17.258  16.603  10.619 -0.0564 -0.4455  0.2500
   40loPI   C1A  631  17.748  16.721  10.545 -0.4114 -0.0235  0.2759
   40loPI   C2A  632  17.937  16.645  10.217 -0.1173  0.0290  0.4479
   40loPI   C3A  633  18.020  16.491   9.727 -0.0189  0.2430  0.1434
   40loPI   C4A  634  17.984  16.561   9.270  0.4218 -0.0951  0.1182
   40loPI   C5A  635  18.022  16.710   8.786 -0.2724 -0.2236  0.0577
   40loPI   C6A  636  17.989  16.595   8.365 -0.3130 -0.3559  0.1090
   40loPI   C1B  637  17.450  16.565  10.232 -0.0104  0.0455  0.0878
   40loPI   C2B  638  17.609  16.777   9.830  0.0289 -0.1382  0.0260
   40loPI   C3B  639  17.505  16.783   9.395 -0.2790  0.1748 -0.2761
   40loPI   C4B  640  17.577  16.859   9.031 -0.2390  0.0600 -0.0195
   41loPI    C1  641  12.554  16.299  10.782 -0.1547 -0.0572 -0.0679
   41loPI    C2  642  12.635  16.615  11.014 -0.0176  0.1183 -0.3492
   41loPI    C3  643  12.268  16.455  11.014 -0.0313  0.1441 -0.0487
   41loPI   PO4  644  12.705  16.357  10.584 -0.3727  0.0174 -0.0156
   41loPI   GL1  645  12.806  16.147  10.108 -0.0756  0.1462  0.0288
   41loPI   GL2  646  13.099  16.253   9.920  0.0805  0.0906  0.0362
   41loPI   C1A  647  12.627  16.141   9.745 -0.0748  0.1774 -0.2519
   41loPI   C2A  648  12.649  16.130   9.295  0.2093  0.0878 -0.0547
   41loPI   C3A  649  12.473  16.087   8.844  0.3565 -0.0059  0.3036
   41loPI   C4A  650  12.184  16.162   8.473  0.1660 -0.0131 -0.3421
   41loPI   C5A  651  11.888  16.317   8.122 -0.1563  0.1333 -0.0745
   41loPI   C6A  652  11.830  16.688   7.751  0.0768  0.1334 -0.1684
   41loPI   C1B  653  13.024  16.337   9.541 -0.3430  0.0262 -0.0588
   41loPI   C2B  654  13.051  16.485   9.224 -0.1091 -0.1021 -0.0671
   41loPI   C3B  655  12.859  16.420   8.821 -0.0091  0.1325  0.0246
   41loPI   C4B  656  12.708  16.377   8.472  0.0643 -0.2545 -0.2771
   42loPI    C1  657  12.126   2.653  10.391 -0.0308 -0.0609  0.0239
   42loPI    C2  658  11.800   2.682  10.162 -0.0025  0.1902  0.0123
   42loPI    C3  659  11.763   2.608  10.553 -0.0618 -0.0010 -0.0284
   42loPI   PO4  660  12.291   2.443  10.203 -0.0846  0.0382 -0.1656
   42loPI   GL1  661  12.109   2.311   9.769  0.0871  0.2511 -0.1212
   42loPI   GL2  662  11.798   2.357   9.687 -0.3020  0.0300  0.1417
   42loPI   C1A  663  12.296   2.336   9.300  0.3711  0.1184  0.0147
   42loPI   C2A  664  12.266   2.432   8.868  0.0469 -0.0720 -0.0619
   42loPI   C3A  665  12.344   2.541   8.484 -0.0767 -0.1174  0.2940
   42loPI   C4A  666  12.447   2.483   8.073 -0.0526  0.1239  0.0081
   42loPI   C5A  667  12.168   2.450   7.730 -0.0763 -0.1518 -0.0510
   42loPI   C6A  668  11.859   2.559   7.464 -0.2517  0.0369 -0.0661
   42loPI   C1B  669  11.778   2.349   9.187  0.1045  0.0899 -0.1799
   42loPI   C2B  670  11.753   2.319   8.733  0.0248  0.1006 -0.2813
   42loPI   C3B  671  11.838   2.581   8.395 -0.5300  0.0406  0.0273
   42loPI   C4B  672  11.766   2.603   8.010 -0.1805 -0.2845 -0.1538
   43loPI    C1  673   6.172   9.941  10.905  0.1310 -0.1216  0.1186
   43loPI    C2  674   5.806   9.967  11.064  0.1298 -0.0579  0.1055
   43loPI    C3  675   6.125  10.072  11.281  0.1333 -0.0330  0.0883
   43loPI   PO4  676   6.200  10.053  10.658  0.1776 -0.0858  0.1965
   43loPI   GL1  677   6.224   9.882  10.281  0.0716 -0.0410 -0.2645
   43loPI   GL2  678   6.525   9.965  10.107  0.3264 -0.0267  0.1714
   43loPI   C1A  679   6.110   9.803   9.917  0.3495 -0.0257  0.0943
   43loPI   C2A  680   6.164   9.728   9.409  0.0196 -0.0569 -0.1182
   43loPI   C3A  681   6.215   9.744   9.011  0.2116 -0.0568  0.1845
   43loPI   C4A  682   6.051   9.768   8.692  0.1141  0.1840  0.4850
   43loPI   C5A  683   5.876   9.571   8.326  0.1066 -0.0085  0.2220
   43loPI   C6A  684   5.694   9.200   8.007 -0.1931 -0.0199  0.3054
   43loPI   C1B  685   6.493  10.000   9.632  0.2822  0.2181 -0.0229
   43loPI   C2B  686   6.652   9.957   9.266  0.0531 -0.0443 -0.0024
   43loPI   C3B  687   6.693  10.062   8.969  0.1799  0.0058  0.1156
   43loPI   C4B  688   6.547  10.092   8.618 -0.4618  0.0746  0.3053
   44loPI    C1  689  11.128   6.467  10.575  0.2825  0.1303 -0.0260
   44loPI    C2  690  11.412   6.278  10.784  0.0008 -0.0619  0.1889
   44loPI    C3  691  11.102   6.446  10.973 -0.2412 -0.2082 -0.0698
   44loPI   PO4  692  11.314   6.613  10.395  0.3871 -0.0353 -0.2574
   44loPI   GL1  693  11.260   6.616   9.993  0.0662 -0.2202 -0.1677
   44loPI   GL2  694  11.165   6.341   9.917 -0.1632  0.1013  0.4166
   44loPI   C1A  695  11.443   6.643   9.629  0.1983 -0.2634 -0.0624
   44loPI   C2A  696  11.297   6.648   9.275  0.2414  0.0014  0.1410
   44loPI   C3A  697  11.080   6.652   8.892  0.0477 -0.1947  0.2394
   44loPI   C4A  698  10.732   6.660   8.684  0.0523 -0.0276 -0.2280
   44loPI   C5A  699  10.643   6.772   8.285 -0.2159  0.0634  0.2230
   44loPI   C6A  700  10.384   7.087   8.148  0.2133 -0.0508  0.0535
   44loPI   C1B  701  10.914   6.268   9.512 -0.0086 -0.2223 -0.2069
   44loPI   C2B  702  11.074   6.195   9.129  0.1401  0.1038 -0.1456
   44loPI   C3B  703  11.010   6.151   8.737  0.1536  0.1409  0.1363
   44loPI   C4B  704  10.866   6.218   8.403  0.1506  0.2186  0.1092
   45loPI    C1  705  17.034   3.178  10.665 -0.0228 -0.0988  0.1302
   45loPI    C2  706  17.037   2.963  11.003  0.0740 -0.1295  0.1102
   45loPI    C3  707  16.972   3.358  11.017  0.0351 -0.1376  0.1604
   45loPI   PO4  708  16.920   2.960  10.497 -0.0853 -0.1662 -0.0915
   45loPI   GL1  709  16.968   2.574  10.312 -0.1637  0.2030  0.3844
   45loPI   GL2  710  16.693   2.473  10.056  0.0643  0.2871  0.0926
   45loPI   C1A  711  17.096   2.691   9.923  0.1629 -0.2061  0.0766
   45loPI   C2A  712  17.157   2.772   9.454 -0.2060  0.0505 -0.1843
   45loPI   C3A  713  17.099   2.705   9.053  0.4355 -0.0152  0.2182
   45loPI   C4A  714  16.843   2.745   8.721  0.0186  0.0558 -0.1594
   45loPI   C5A  715  16.935   2.624   8.294  0.2861  0.1230 -0.0324
   45loPI   C6A  716  16.878   2.663   7.789 -0.1318 -0.3561 -0.2793
   45loPI   C1B  717  16.684   2.682   9.678 -0.1928  0.2604 -0.2520
   45loPI   C2B  718  16.577   2.639   9.258 -0.0463  0.1327 -0.1094
   45loPI   C3B  719  16.605   2.335   9.002 -0.1344  0.0496 -0.0343
   45loPI   C4B  720  16.490   2.411   8.613 -0.0462  0.1392  0.1297
   46loPI    C1  721  11.742   4.494  10.493  0.1746  0.0026 -0.1382
   46loPI    C2  722  11.798   4.102  10.442 -0.1794 -0.0731  0.0247
   46loPI    C3  723  11.906   4.276  10.786  0.0365 -0.0134 -0.0718
   46loPI   PO4  724  11.485   4.478  10.254  0.0058 -0.2514  0.3887
   46loPI   GL1  725  11.334   4.734   9.942  0.0975  0.0268 -0.1931
   46loPI   GL2  726  11.284   5.081  10.036  0.0860  0.0664  0.1509
   46loPI   C1A  727  11.445   4.877   9.584 -0.1196 -0.1790 -0.0719
   46loPI   C2A  728  11.464   5.027   9.205  0.0826  0.0705  0.0207
   46loPI   C3A  729  11.386   5.313   8.832 -0.4555  0.1571  0.2023
   46loPI   C4A  730  11.435   5.329   8.370  0.2368  0.0599 -0.0107
   46loPI   C5A  731  11.487   5.058   7.985 -0.1905  0.1942  0.2802
   46loPI   C6A  732  11.568   4.852   7.609 -0.1805  0.2945  0.0641
   46loPI   C1B  733  11.471   5.406   9.754 -0.1524  0.0668 -0.3330
   46loPI   C2B  734  11.519   5.478   9.364  0.2727  0.2988 -0.1207
   46loPI   C3B  735  11.695   5.644   9.013 -0.1653  0.3422  0.4645
   46loPI   C4B  736  11.881   5.987   8.735 -0.2591 -0.0581 -0.1761
   47loPI    C1  737   2.272   2.405  11.264  0.1299 -0.0093  0.0258
   47loPI    C2  738   2.220   2.596  11.612 -0.1349  0.1502 -0.0990
   47loPI    C3  739   2.358   2.221  11.609  0.0184  0.2024  0.1686
   47loPI   PO4  740   2.037   2.539  11.098 -0.0430  0.4009 -0.2062
   47loPI   GL1  741   1.892   2.454  10.736 -0.1882 -0.0269 -0.0060
   47loPI   GL2  742   2.142   2.499  10.572  0.2667  0.0698 -0.0068
   47loPI   C1A  743   1.691   2.392  10.312  0.0714  0.3816  0.4240
   47loPI   C2A  744   1.779   2.360   9.889 -0.0023  0.0761  0.1053
   47loPI   C3A  745   1.868   2.232   9.453  0.0772  0.1726 -0.0568
   47loPI   C4A  746   1.925   2.259   9.046 -0.0280 -0.1740  0.0385
   47loPI   C5A  747   1.815   2.286   8.584  0.2653  0.2018  0.5222
   47loPI   C6A  748   1.387   2.089   8.340 -0.1449 -0.1391  0.0359
   47loPI   C1B  749   2.256   2.469  10.158 -0.2103 -0.2696 -0.0117
   47loPI   C2B  750   2.243   2.572   9.703  0.0354  0.1152  0.0429
   47loPI   C3B  751   2.318   2.470   9.261  0.4105 -0.0557 -0.2395
   47loPI   C4B  752   2.256   2.529   8.805 -0.1871 -0.3240 -0.4268
   48loPI    C1  753   5.831  12.125  10.735  0.0941  0.0981  0.1514
   48loPI    C2  754   5.486  12.150  10.936  0.1068 -0.0340  0.1909
   48loPI    C3  755   5.763  11.883  11.046  0.1648 -0.0229  0.0735
   48loPI   PO4  756   5.779  12.113  10.459  0.3382 -0.0505  0.0193
   48loPI   GL1  757   5.756  12.340  10.133 -0.0534  0.1998 -0.0847
   48loPI   GL2  758   5.616  12.662   9.991  0.2219  0.1480  0.3522
   48loPI   C1A  759   5.614  12.188   9.781  0.0513 -0.0734 -0.1573
   48loPI   C2A  760   5.644  12.242   9.290  0.4193 -0.0166  0.2021
   48loPI   C3A  761   5.691  12.201   8.836 -0.0747 -0.0895  0.3520
   48loPI   C4A  762   5.761  12.018   8.426  0.1182 -0.0314  0.3645
   48loPI   C5A  763   5.969  11.778   8.036  0.0084  0.3171 -0.0089
   48loPI   C6A  764   5.908  11.698   7.538 -0.1514 -0.0372  0.0735
   48loPI   C1B  765   5.735  12.734   9.540 -0.3170  0.0765  0.0432
   48loPI   C2B  766   5.691  12.777   9.178  0.1517 -0.3936 -0.4241
   48loPI   C3B  767   5.598  12.722   8.750 -0.1678  0.0204 -0.0601
   48loPI   C4B  768   5.759  12.586   8.319  0.0736  0.0746 -0.1387
   49loPI    C1  769   8.174  11.695  11.192  0.1595  0.1716 -0.0238
   49loPI    C2  770   8.380  11.883  11.479 -0.0279  0.0870  0.1697
   49loPI    C3  771   8.153  11.567  11.571 -0.0479  0.0256 -0.0826
   49loPI   PO4  772   8.115  11.921  11.006  0.2198  0.0494  0.0889
   49loPI   GL1  773   7.900  12.105  10.634  0.1830 -0.0740 -0.0644
   49loPI   GL2  774   8.237  12.008  10.496  0.1484  0.0478 -0.0956
   49loPI   C1A  775   7.838  11.846  10.190  0.2316 -0.0657  0.1988
   49loPI   C2A  776   7.929  11.852   9.792 -0.0257 -0.0680  0.2654
   49loPI   C3A  777   7.909  11.820   9.341  0.1180  0.2575  0.3421
   49loPI   C4A  778   7.928  11.885   8.919  0.1610  0.0975  0.1871
   49loPI   C5A  779   8.047  11.792   8.561  0.2286 -0.1519  0.1881
   49loPI   C6A  780   7.819  11.685   8.306  0.2388 -0.2174  0.1712
   49loPI   C1B  781   8.330  12.054  10.162  0.1643 -0.0749 -0.2561
   49loPI   C2B  782   8.396  12.036   9.704 -0.0910 -0.1480  0.1782
   49loPI   C3B  783   8.392  12.064   9.257 -0.1019 -0.2515 -0.1017
   49loPI   C4B  784   8.455  12.217   8.860  0.5751 -0.2371  0.1461
   50loPI    C1  785  13.451  12.468  11.081 -0.0163  0.0619 -0.1137
   50loPI    C2  786  13.111  12.270  11.154  0.0779 -0.0092  0.1434
   50loPI    C3  787  13.238  12.550  11.410  0.3426 -0.1616  0.1823
   50loPI   PO4  788  13.382  12.448  10.720 -0.0418 -0.0452 -0.1894
   50loPI   GL1  789  13.444  12.610  10.241 -0.0804 -0.3879 -0.1493
   50loPI   GL2  790  13.592  12.342  10.084  0.2052  0.0252  0.3749
   50loPI   C1A  791  13.530  12.821   9.840  0.1074 -0.0305  0.1145
   50loPI   C2A  792  13.605  12.796   9.423 -0.2221 -0.0085  0.1814
   50loPI   C3A  793  13.716  12.839   9.001 -0.1119 -0.1460 -0.0712
   50loPI   C4A  794  13.837  13.037   8.672  0.4196  0.1634  0.0755
   50loPI   C5A  795  13.590  13.194   8.438 -0.2766 -0.1410 -0.0533
   50loPI   C6A  796  13.510  13.266   8.061  0.0995  0.0217  0.1934
   50loPI   C1B  797  13.807  12.396   9.695 -0.1757 -0.0193  0.2434
   50loPI   C2B  798  13.921  12.405   9.277  0.0748 -0.1558  0.4441
   50loPI   C3B  799  13.952  12.425   8.891 -0.1887  0.2242  0.2033
   50loPI   C4B  800  14.078  12.335   8.499 -0.0757  0.1740  0.2760
   51loPI    C1  801   4.233   9.260  10.946 -0.0560 -0.2107  0.1784
   51loPI    C2  802   4.547   9.443  11.114  0.0325 -0.0938 -0.1064
   51loPI    C3  803   4.466   9.061  11.203  0.2553 -0.1250 -0.0307
   51loPI   PO4  804   4.185   9.449  10.691  0.1753  0.0856  0.0029
   51loPI   GL1  805   4.361   9.393  10.320 -0.2375 -0.0907 -0.2829
   51loPI   GL2  806   4.121   9.147  10.300 -0.1669  0.0031  0.3822
   51loPI   C1A  807   4.198   9.508   9.822 -0.1184 -0.2868 -0.3154
   51loPI   C2A  808   3.981   9.491   9.529  0.0889 -0.4185  0.1474
   51loPI   C3A  809   3.861   9.562   9.105  0.2482 -0.3263  0.1675
   51loPI   C4A  810   3.784   9.454   8.654 -0.1729  0.1293  0.1454
   51loPI   C5A  811   3.500   9.624   8.243 -0.2158  0.2802 -0.1684
   51loPI   C6A  812   3.258   9.666   7.947  0.0603 -0.0291 -0.0875
   51loPI   C1B  813   4.018   9.045   9.941 -0.0838  0.2124 -0.1921
   51loPI   C2B  814   3.886   9.009   9.607  0.0688 -0.2221 -0.1545
   51loPI   C3B  815   3.822   8.992   9.236  0.2291  0.2483 -0.0997
   51loPI   C4B  816   3.796   9.042   8.883  0.1742  0.3599  0.0218
   52loPI    C1  817  12.104  10.752  10.567 -0.0903 -0.0058 -0.0877
   52loPI    C2  818  11.884  10.499  10.785  0.1197 -0.0989  0.0191
   52loPI    C3  819  12.245  10.612  10.914  0.0272  0.2595 -0.0256
   52loPI   PO4  820  11.974  10.720  10.311  0.0428 -0.0226 -0.0520
   52loPI   GL1  821  11.980  10.770   9.944  0.1785  0.0926  0.2064
   52loPI   GL2  822  11.796  10.850   9.683  0.2669  0.1508  0.1911
   52loPI   C1A  823  12.244  10.713   9.634 -0.3475  0.0057 -0.3188
   52loPI   C2A  824  12.341  10.767   9.220 -0.0455  0.1947  0.1248
   52loPI   C3A  825  12.317  10.814   8.834 -0.1577 -0.0443 -0.3216
   52loPI   C4A  826  12.374  10.829   8.365  0.0350  0.2659  0.1770
   52loPI   C5A  827  12.325  10.973   7.955  0.0455 -0.0269 -0.0266
   52loPI   C6A  828  12.305  11.305   7.676 -0.1106  0.0005  0.0926
   52loPI   C1B  829  11.838  10.852   9.229 -0.1171  0.3201  0.1998
   52loPI   C2B  830  11.858  10.820   8.774  0.0978  0.1603  0.0263
   52loPI   C3B  831  11.861  10.852   8.372 -0.2361  0.2018 -0.2427
   52loPI   C4B  832  11.994  11.255   8.174  0.1901 -0.3690 -0.2633
   53loPI    C1  833  15.907   3.705  10.335  0.0209  0.0231  0.1525
   53loPI    C2  834  16.266   3.536  10.384 -0.0180 -0.1487 -0.1307
   53loPI    C3  835  15.977   3.471  10.652  0.1548 -0.0241  0.0893
   53loPI   PO4  836  15.794   3.643  10.142 -0.0209  0.0270 -0.1392
   53loPI   GL1  837  15.913   3.426   9.815 -0.0745 -0.3983  0.2408
   53loPI   GL2  838  16.133   3.256   9.979  0.3057  0.0928  0.2315
   53loPI   C1A  839  15.837   3.091   9.564 -0.1912 -0.0212 -0.1634
   53loPI   C2A  840  15.794   3.000   9.150 -0.0613  0.1688  0.0791
   53loPI   C3A  841  15.907   2.978   8.640  0.1331 -0.1047 -0.1290
   53loPI   C4A  842  15.842   3.121   8.181 -0.1416  0.0103 -0.0602
   53loPI   C5A  843  15.843   2.829   7.853  0.2968  0.2367  0.2346
   53loPI   C6A  844  15.344   2.560   7.820 -0.2652 -0.2927  0.0305
   53loPI   C1B  845  16.341   3.090   9.728 -0.2288  0.1208 -0.1761
   53loPI   C2B  846  16.286   3.030   9.284  0.0271 -0.0726  0.1337
   53loPI   C3B  847  16.355   2.906   8.905 -0.3088 -0.4315  0.1272
   53loPI   C4B  848  16.352   2.910   8.482  0.0163  0.3055  0.0607
   54loPI    C1  849   2.594   2.534  10.897  0.0710 -0.0910  0.0030
   54loPI    C2  850   2.901   2.749  11.039 -0.0380 -0.0716  0.2135
   54loPI    C3  851   2.528   2.826  11.163 -0.1551  0.0371 -0.1904
   54loPI   PO4  852   2.661   2.543  10.643  0.0411 -0.1758 -0.2319
   54loPI   GL1  853   2.690   2.140  10.463  0.0734 -0.0987 -0.0943
   54loPI   GL2  854   2.370   2.023  10.643 -0.4113 -0.2605  0.4007
   54loPI   C1A  855   2.869   1.858  10.120 -0.2449 -0.0490  0.1376
   54loPI   C2A  856   2.801   1.788   9.723 -0.0531 -0.1721 -0.1325
   54loPI   C3A  857   2.862   1.728   9.348  0.1578 -0.0377  0.2350
   54loPI   C4A  858   2.678   1.645   8.885 -0.0747 -0.1811  0.0656
   54loPI   C5A  859   2.790   1.584   8.474 -0.0808 -0.0031  0.1158
   54loPI   C6A  860   2.621   1.860   8.108  0.0713  0.2677  0.1277
   54loPI   C1B  861   2.315   1.980  10.224  0.2106  0.1285  0.2314
   54loPI   C2B  862   2.374   2.041   9.898  0.2607  0.1643 -0.1089
   54loPI   C3B  863   2.372   2.007   9.451  0.0740 -0.0414 -0.1792
   54loPI   C4B  864   2.275   1.911   9.105  0.2662 -0.1493 -0.1408
   55loPI    C1  865   2.873   0.067  11.195  0.0549  0.1440  0.1029
   55loPI    C2  866   3.135   0.301  11.386 -0.0131  0.2076  0.1184
   55loPI    C3  867   2.748   0.306  11.490 -0.0369  0.1840  0.0321
   55loPI   PO4  868   2.944   0.047  11.034  0.2685 -0.0125 -0.1073
   55loPI   GL1  869   2.799  -0.184  10.657  0.0710 -0.0180  0.0242
   55loPI   GL2  870   3.139  -0.232  10.602  0.2207 -0.2791  0.0971
   55loPI   C1A  871   2.845  -0.440  10.254  0.3988  0.3644  0.5371
   55loPI   C2A  872   2.991  -0.404   9.812  0.1718 -0.0019  0.2940
   55loPI   C3A  873   2.842  -0.331   9.353  0.1941  0.2674  0.0710
   55loPI   C4A  874   2.771  -0.329   8.918 -0.0270  0.2178 -0.0375
   55loPI   C5A  875   2.947  -0.138   8.541 -0.3673  0.0126  0.0734
   55loPI   C6A  876   2.845   0.010   8.126  0.4439  0.0022 -0.0479
   55loPI   C1B  877   3.279  -0.077  10.171 -0.0680  0.5959  0.3935
   55loPI   C2B  878   3.436  -0.188   9.771  0.3415  0.0710  0.0758
   55loPI   C3B  879   3.276  -0.115   9.361 -0.2468 -0.0690  0.0738
   55loPI   C4B  880   3.238  -0.124   8.925 -0.0178  0.0461 -0.1071
   56loPI    C1  881   2.133   3.352  11.196 -0.1591  0.0331  0.1879
   56loPI    C2  882   1.801   3.140  11.265 -0.1263 -0.0211  0.1798
   56loPI    C3  883   2.153   3.014  11.409 -0.0550 -0.1406 -0.0915
   56loPI   PO4  884   2.140   3.424  10.908  0.1985  0.0643  0.1798
   56loPI   GL1  885   2.337   3.362  10.462 -0.1298 -0.2363  0.3798
   56loPI   GL2  886   2.005   3.088  10.428  0.0861  0.1504  0.1183
   56loPI   C1A  887   2.254   3.559  10.065 -0.3187 -0.1368 -0.0036
   56loPI   C2A  888   2.305   3.746   9.666  0.0203 -0.2541  0.1744
   56loPI   C3A  889   2.297   3.577   9.193 -0.0453 -0.0397  0.0897
   56loPI   C4A  890   2.225   3.585   8.856  0.2150  0.2324  0.1925
   56loPI   C5A  891   2.348   3.480   8.434  0.0037  0.2517  0.1412
   56loPI   C6A  892   2.460   3.571   8.019  0.0310 -0.0618 -0.0417
   56loPI   C1B  893   1.847   2.839  10.040  0.1426  0.0833  0.2396
   56loPI   C2B  894   1.849   2.835   9.572  0.1672  0.1124 -0.2010
   56loPI   C3B  895   1.931   2.768   9.131 -0.1256 -0.1785 -0.0186
   56loPI   C4B  896   1.779   2.768   8.714 -0.1262  0.3921 -0.0481
   57loPI    C1  897   5.194  11.023  10.898 -0.0368 -0.0623  0.1516
   57loPI    C2  898   4.883  10.942  10.660  0.0609 -0.0945  0.0338
   57loPI    C3  899   4.948  10.720  10.986 -0.1512  0.0338  0.1661
   57loPI   PO4  900   5.371  11.074  10.723 -0.2867 -0.1928  0.0972
   57loPI   GL1  901   5.294  11.156  10.342  0.1981  0.2585 -0.2886
   57loPI   GL2  902   5.119  10.988  10.078  0.0965  0.0896 -0.4512
   57loPI   C1A  903   5.176  11.472  10.055  0.0332  0.3748  0.3211
   57loPI   C2A  904   5.254  11.447   9.602 -0.1198 -0.0953  0.0304
   57loPI   C3A  905   5.253  11.522   9.253 -0.0131 -0.2415  0.0951
   57loPI   C4A  906   5.171  11.483   8.859  0.2377  0.3694  0.1706
   57loPI   C5A  907   4.930  11.389   8.432 -0.0807  0.0505  0.1207
   57loPI   C6A  908   5.162  11.204   8.045 -0.1476  0.1985  0.0285
   57loPI   C1B  909   5.265  10.853   9.657  0.2492 -0.0735 -0.1112
   57loPI   C2B  910   5.320  10.767   9.261  0.1650 -0.3351  0.1357
   57loPI   C3B  911   5.323  10.797   8.851  0.0485  0.1034  0.0232
   57loPI   C4B  912   5.124  10.767   8.423  0.2084 -0.0780 -0.1753
   58loPI    C1  913  15.594   5.419  10.445 -0.0732  0.0023 -0.0054
   58loPI    C2  914  15.419   5.737  10.614 -0.0050 -0.0578  0.1797
   58loPI    C3  915  15.754   5.585  10.771 -0.0166 -0.1991  0.0706
   58loPI   PO4  916  15.709   5.467  10.199  0.1561  0.0674  0.2618
   58loPI   GL1  917  15.774   5.509   9.808  0.2563  0.1010 -0.0911
   58loPI   GL2  918  15.768   5.127   9.857 -0.0505 -0.3509 -0.2906
   58loPI   C1A  919  15.703   6.045   9.610  0.1794 -0.0440 -0.2551
   58loPI   C2A  920  15.499   6.210   9.279  0.0951  0.0791 -0.2105
   58loPI   C3A  921  15.457   6.365   8.829  0.2669  0.0815  0.1964
   58loPI   C4A  922  15.379   6.159   8.453  0.0361 -0.4336 -0.2889
   58loPI   C5A  923  15.452   5.863   8.131 -0.1425  0.1074  0.0688
   58loPI   C6A  924  15.433   6.114   7.859 -0.2040  0.1345 -0.0959
   58loPI   C1B  925  15.789   5.262   9.371 -0.0386 -0.0051 -0.1112
   58loPI   C2B  926  15.826   5.254   9.013 -0.1427  0.0196 -0.1225
   58loPI   C3B  927  15.564   5.171   8.598  0.0170  0.1888 -0.2074
   58loPI   C4B  928  15.707   5.285   8.129 -0.2003  0.0092 -0.1631
   59loPI    C1  929   9.204   8.083  11.207  0.2561  0.1011 -0.2573
   59loPI    C2  930   9.293   8.437  11.369 -0.0930  0.0559  0.0469
   59loPI    C3  931   9.355   8.100  11.576 -0.1306 -0.0341 -0.0871
   59loPI   PO4  932   9.260   8.157  10.966 -0.0939 -0.0007 -0.0107
   59loPI   GL1  933   9.275   8.015  10.497 -0.2414  0.4460 -0.0990
   59loPI   GL2  934   9.052   8.208  10.186  0.2508 -0.0483  0.0134
   59loPI   C1A  935   9.497   7.923  10.187 -0.3421  0.2119 -0.0204
   59loPI   C2A  936   9.595   7.945   9.731  0.1067 -0.1434 -0.2136
   59loPI   C3A  937   9.511   7.967   9.358 -0.1154 -0.1825 -0.0279
   59loPI   C4A  938   9.476   7.949   8.951 -0.1096 -0.0572  0.0018
   59loPI   C5A  939   9.559   8.114   8.547  0.2750  0.2590  0.0343
   59loPI   C6A  940   9.925   8.280   8.269  0.0013  0.0129 -0.1742
   59loPI   C1B  941   9.181   8.100   9.705 -0.1188 -0.1095  0.2393
   59loPI   C2B  942   9.057   8.134   9.194  0.0725  0.1199 -0.1449
   59loPI   C3B  943   9.003   8.269   8.814 -0.1677 -0.2027 -0.1782
   59loPI   C4B  944   9.083   7.982   8.564  0.2559 -0.1220  0.2412
   60loPI    C1  945   6.626   5.010  10.491 -0.2424  0.1983  0.2326
   60loPI    C2  946   6.614   4.737  10.783  0.0719 -0.2327 -0.1422
   60loPI    C3  947   6.760   5.102  10.856 -0.2059 -0.2070  0.3263
   60loPI   PO4  948   6.779   4.864  10.278 -0.1167  0.0122 -0.0518
   60loPI   GL1  949   7.011   4.976   9.950  0.1367 -0.0018  0.3415
   60loPI   GL2  950   6.870   5.180   9.778 -0.1627 -0.0274  0.1859
   60loPI   C1A  951   7.228   4.760   9.619  0.0315  0.0276 -0.3338
   60loPI   C2A  952   7.166   4.619   9.198 -0.2127  0.4266 -0.0209
   60loPI   C3A  953   7.154   4.326   8.821 -0.1901 -0.0228  0.1600
   60loPI   C4A  954   7.102   4.311   8.394 -0.2371 -0.1839  0.0387
   60loPI   C5A  955   7.059   4.673   8.139  0.2776  0.1904  0.2764
   60loPI   C6A  956   7.372   5.045   8.045  0.4989 -0.1388  0.1272
   60loPI   C1B  957   6.866   5.141   9.337  0.1323 -0.0710 -0.0536
   60loPI   C2B  958   6.816   4.964   8.969 -0.0448  0.0788  0.0440
   60loPI   C3B  959   6.883   4.728   8.640 -0.2310 -0.1651  0.0731
   60loPI   C4B  960   6.612   4.805   8.302  0.1323 -0.1266 -0.0464
   61loPI    C1  961  10.211  12.186  10.742 -0.2745 -0.0111 -0.1341
   61loPI    C2  962  10.139  12.227  11.133 -0.2129  0.0410 -0.1280
   61loPI    C3  963  10.495  12.092  11.008 -0.1886  0.1426 -0.1701
   61loPI   PO4  964  10.188  12.396  10.574 -0.0761  0.0411 -0.1640
   61loPI   GL1  965  10.121  12.348  10.173  0.2480  0.1543  0.0371
   61loPI   GL2  966  10.075  12.550   9.983  0.1637 -0.0251 -0.1204
   61loPI   C1A  967  10.324  12.172   9.762 -0.1337 -0.2590 -0.1141
   61loPI   C2A  968  10.479  12.194   9.348 -0.1654  0.1825 -0.1007
   61loPI   C3A  969  10.604  12.255   8.943 -0.2206 -0.1196 -0.1271
   61loPI   C4A  970  10.478  12.246   8.570 -0.0125 -0.4234 -0.0690
   61loPI   C5A  971  10.686  12.186   8.276  0.0510  0.0176 -0.3154
   61loPI   C6A  972  10.893  11.907   8.207  0.0133 -0.0771 -0.0312
   61loPI   C1B  973   9.916  12.530   9.557 -0.2846  0.3746  0.3476
   61loPI   C2B  974   9.976  12.199   9.301 -0.0504 -0.0129 -0.1241
   61loPI   C3B  975  10.068  12.263   8.916  0.1084  0.2455  0.0586
   61loPI   C4B  976   9.916  12.371   8.560  0.1148 -0.2513 -0.1493
   62loPI    C1  977   4.351   5.107  10.484 -0.0889  0.1848  0.0175
   62loPI    C2  978   4.448   4.938  10.833  0.2075  0.2513 -0.0295
   62loPI    C3  979   4.492   4.733  10.492 -0.0866  0.1845 -0.0303
   62loPI   PO4  980   4.514   5.308  10.454 -0.0832 -0.3189 -0.0049
   62loPI   GL1  981   4.583   5.468  10.180 -0.1122  0.0587  0.0480
   62loPI   GL2  982   4.723   5.721  10.033 -0.0768  0.2138  0.0245
   62loPI   C1A  983   4.619   5.266   9.746 -0.4185 -0.0617  0.0586
   62loPI   C2A  984   4.549   5.291   9.327  0.0036  0.0031  0.0987
   62loPI   C3A  985   4.614   5.387   8.945  0.0562  0.2159 -0.0065
   62loPI   C4A  986   4.417   5.377   8.421 -0.1167 -0.2837  0.0402
   62loPI   C5A  987   4.194   5.574   8.167 -0.5099  0.3306 -0.1174
   62loPI   C6A  988   3.965   6.050   8.131 -0.0219  0.3950  0.0967
   62loPI   C1B  989   4.932   5.674   9.598 -0.1361 -0.1360  0.0317
   62loPI   C2B  990   4.947   5.666   9.185 -0.0608 -0.2233 -0.0830
   62loPI   C3B  991   5.020   5.507   8.728 -0.0247  0.1778 -0.0907
   62loPI   C4B  992   4.950   5.446   8.330 -0.0100  0.0689 -0.2058
   63loPI    C1  993   7.609   8.731  11.129  0.0278 -0.0580 -0.2793
   63loPI    C2  994   7.723   8.348  11.122 -0.0443 -0.0859 -0.0101
   63loPI    C3  995   7.441   8.469  11.379  0.1674  0.1991  0.0932
   63loPI   PO4  996   7.662   8.788  10.875  0.0989  0.1017  0.1355
   63loPI   GL1  997   7.584   8.708  10.437  0.0215 -0.2711  0.0655
   63loPI   GL2  998   7.621   8.405  10.319 -0.0794  0.1583 -0.1331
   63loPI   C1A  999   7.557   8.991  10.059 -0.0816  0.1061 -0.0519
   63loPI   C2A 1000   7.447   8.966   9.629  0.1663  0.0707  0.1094
   63loPI   C3A 1001   7.507   8.999   9.251  0.0434  0.0870 -0.0403
   63loPI   C4A 1002   7.699   8.929   8.884  0.1172 -0.3884 -0.0922
   63loPI   C5A 1003   7.713   8.941   8.394  0.3011 -0.0421 -0.1740
   63loPI   C6A 1004   7.860   8.555   8.253 -0.0378  0.1019 -0.0465
   63loPI   C1B 1005   7.520   8.394   9.885 -0.2068 -0.2207 -0.0559
   63loPI   C2B 1006   7.543   8.468   9.561  0.2327 -0.1942  0.1043
   63loPI   C3B 1007   7.529   8.448   9.109  0.2613  0.4314  0.1889
   63loPI   C4B 1008   7.578   8.491   8.632 -0.3007 -0.0803 -0.2093
   64loPI    C1 1009  13.692   6.385  10.450 -0.1737 -0.3322  0.1775
   64loPI    C2 1010  13.442   6.359  10.139 -0.0221 -0.2172  0.0443
   64loPI    C3 1011  13.296   6.395  10.510 -0.2024 -0.1931 -0.0281
   64loPI   PO4 1012  13.863   6.655  10.316  0.2319  0.0984  0.2327
   64loPI   GL1 1013  14.004   6.822  10.025  0.0979  0.2197  0.0439
   64loPI   GL2 1014  13.701   6.782   9.842  0.1463 -0.0630  0.1804
   64loPI   C1A 1015  14.092   7.063   9.671 -0.1856  0.0105 -0.1892
   64loPI   C2A 1016  14.118   7.080   9.233  0.0940  0.2578 -0.1144
   64loPI   C3A 1017  13.959   7.035   8.813  0.1641  0.0252  0.2500
   64loPI   C4A 1018  13.972   6.971   8.432 -0.1970  0.3620 -0.0115
   64loPI   C5A 1019  14.274   6.749   8.217  0.2104  0.1702 -0.1002
   64loPI   C6A 1020  14.564   6.669   8.224  0.0819 -0.0413 -0.0080
   64loPI   C1B 1021  13.754   6.874   9.400  0.3593 -0.0431  0.0449
   64loPI   C2B 1022  13.551   6.799   9.046  0.0055 -0.2351 -0.0514
   64loPI   C3B 1023  13.411   6.744   8.710 -0.1811  0.0552 -0.1278
   64loPI   C4B 1024  13.189   6.576   8.335 -0.2317  0.1617  0.0516
   65loPI    C1 1025   2.393  17.845  11.314 -0.0407  0.1340  0.1733
   65loPI    C2 1026   2.483  17.518  11.527 -0.0811  0.0996  0.1378
   65loPI    C3 1027   2.142  17.714  11.597 -0.1332  0.0410  0.0494
   65loPI   PO4 1028   2.364  17.835  11.033 -0.0810 -0.2796  0.0327
   65loPI   GL1 1029   2.250  18.053  10.657 -0.1069 -0.1597  0.1263
   65loPI   GL2 1030   2.026  18.142  10.800  0.1519  0.1362  0.2794
   65loPI   C1A 1031   2.229  17.917  10.224  0.3617 -0.3738  0.1376
   65loPI   C2A 1032   2.264  17.893   9.791  0.0930  0.2354  0.2111
   65loPI   C3A 1033   2.365  17.755   9.386 -0.0654 -0.2587 -0.1507
   65loPI   C4A 1034   2.257  17.763   8.993 -0.1385  0.0196  0.1043
   65loPI   C5A 1035   2.049  17.468   8.658 -0.0406  0.2070 -0.0390
   65loPI   C6A 1036   1.771  17.601   8.300  0.0156 -0.0231  0.2920
   65loPI   C1B 1037   1.861  18.252  10.390  0.0214 -0.2586 -0.1903
   65loPI   C2B 1038   1.840  18.161   9.903  0.2169 -0.0566 -0.0976
   65loPI   C3B 1039   1.863  18.035   9.411 -0.0353 -0.1313  0.1186
   65loPI   C4B 1040   1.713  18.002   9.035 -0.4396  0.2696  0.2215
   66loPI    C1 1041   2.680   3.317  11.019  0.1015  0.0790 -0.2192
   66loPI    C2 1042   3.044   3.351  11.182  0.0637  0.0379 -0.1249
   66loPI    C3 1043   2.723   3.304  11.417 -0.0347  0.3423 -0.1936
   66loPI   PO4 1044   2.700   3.115  10.753 -0.0291  0.0600  0.0149
   66loPI   GL1 1045   2.460   2.847  10.381 -0.0035 -0.4783  0.2120
   66loPI   GL2 1046   2.724   2.712  10.154  0.1005  0.0541  0.1582
   66loPI   C1A 1047   2.282   3.053  10.030 -0.2158  0.2774  0.1518
   66loPI   C2A 1048   2.291   3.055   9.639 -0.1659 -0.1761  0.1158
   66loPI   C3A 1049   2.319   3.069   9.217 -0.1841  0.0801 -0.0103
   66loPI   C4A 1050   2.235   3.043   8.845  0.3310  0.2282 -0.1189
   66loPI   C5A 1051   2.394   2.961   8.474 -0.0211  0.3088 -0.2649
   66loPI   C6A 1052   2.704   3.190   8.313 -0.1726  0.1060  0.2751
   66loPI   C1B 1053   2.764   2.822   9.713  0.2380  0.3452  0.0035
   66loPI   C2B 1054   2.791   2.700   9.362  0.2848 -0.0276 -0.0404
   66loPI   C3B 1055   2.719   2.719   8.922  0.1675 -0.2095  0.1006
   66loPI   C4B 1056   2.796   2.656   8.531 -0.0463 -0.0397  0.1571
   67loPI    C1 1057  10.633  17.491  10.228  0.0920  0.1576 -0.2399
   67loPI    C2 1058  10.421  17.374  10.546 -0.1585  0.2462 -0.3713
   67loPI    C3 1059  10.619  17.104  10.327 -0.2917  0.1375 -0.3585
   67loPI   PO4 1060  10.479  17.641  10.097  0.2148  0.1432  0.1385
   67loPI   GL1 1061  10.586  17.867   9.752 -0.1219 -0.0939 -0.0304
   67loPI   GL2 1062  10.679  18.102   9.771 -0.1424  0.0442  0.1815
   67loPI   C1A 1063  10.527  17.718   9.296  0.1066  0.0599 -0.2843
   67loPI   C2A 1064  10.546  17.710   8.877  0.1901 -0.0895  0.2875
   67loPI   C3A 1065  10.333  17.590   8.641  0.0205  0.3704  0.0451
   67loPI   C4A 1066  10.227  17.800   8.243  0.3438 -0.2476 -0.2242
   67loPI   C5A 1067  10.019  17.893   7.917 -0.3956  0.1089  0.0312
   67loPI   C6A 1068   9.618  17.814   7.800 -0.0834 -0.1470 -0.0488
   67loPI   C1B 1069  10.868  17.995   9.375 -0.1112  0.1803  0.0409
   67loPI   C2B 1070  10.919  18.056   8.861  0.0149  0.0826  0.0845
   67loPI   C3B 1071  11.229  18.010   8.590 -0.2003 -0.1774 -0.1392
   67loPI   C4B 1072  11.345  18.023   8.318 -0.1249 -0.0199  0.0785
   68loPI    C1 1073  16.449   9.727  11.136 -0.1113 -0.1129 -0.0243
   68loPI    C2 1074  16.759   9.479  11.182  0.0023  0.0407  0.0446
   68loPI    C3 1075  16.465   9.484  11.453 -0.0978 -0.1567 -0.0584
   68loPI   PO4 1076  16.412   9.716  10.895 -0.2706  0.1163  0.1668
   68loPI   GL1 1077  16.447   9.839  10.393 -0.1206  0.1236 -0.0442
   68loPI   GL2 1078  16.726   9.706  10.254  0.2049 -0.1443  0.2004
   68loPI   C1A 1079  16.394   9.868   9.985  0.2235 -0.2728 -0.3860
   68loPI   C2A 1080  16.377   9.897   9.558  0.1154 -0.0503 -0.0695
   68loPI   C3A 1081  16.397   9.936   9.099 -0.0808  0.0254 -0.1051
   68loPI   C4A 1082  16.372   9.948   8.641  0.2629  0.0306  0.4029
   68loPI   C5A 1083  16.221   9.730   8.379 -0.3279  0.0335  0.0193
   68loPI   C6A 1084  15.939   9.311   8.366  0.0436 -0.1834 -0.1728
   68loPI   C1B 1085  16.871   9.801   9.798  0.2516  0.2332  0.2301
   68loPI   C2B 1086  16.872   9.868   9.294 -0.0334  0.0287 -0.2202
   68loPI   C3B 1087  16.828   9.745   8.935  0.0232 -0.1321  0.1088
   68loPI   C4B 1088  16.903   9.840   8.578  0.0550 -0.1826  0.0782
   69loPI    C1 1089   5.300  17.671  10.879 -0.0687 -0.1252  0.0710
   69loPI    C2 1090   4.977  17.709  11.111 -0.1310 -0.0640 -0.0249
   69loPI    C3 1091   5.337  17.659  11.277 -0.1383  0.2534  0.0921
   69loPI   PO4 1092   5.276  17.518  10.771  0.2615  0.2684  0.1545
   69loPI   GL1 1093   5.207  17.587  10.255  0.2603  0.0255  0.1795
   69loPI   GL2 1094   5.281  17.267  10.136 -0.0671 -0.1906  0.1034
   69loPI   C1A 1095   5.154  17.842   9.869 -0.1239 -0.0415 -0.3016
   69loPI   C2A 1096   5.093  17.833   9.483 -0.1430 -0.0401  0.1383
   69loPI   C3A 1097   5.067  17.716   9.037 -0.2402 -0.1658 -0.0361
   69loPI   C4A 1098   4.987  17.694   8.573 -0.1122  0.1733  0.1687
   69loPI   C5A 1099   4.642  17.591   8.501  0.1598 -0.2411 -0.0163
   69loPI   C6A 1100   4.309  17.516   8.217 -0.0269  0.3589 -0.1810
   69loPI   C1B 1101   5.190  17.153   9.704 -0.2750 -0.2687 -0.0086
   69loPI   C2B 1102   5.127  17.315   9.294 -0.1461 -0.2324  0.1050
   69loPI   C3B 1103   5.144  17.233   8.892  0.2533  0.1816 -0.0302
   69loPI   C4B 1104   5.168  17.249   8.531 -0.0371 -0.1976  0.1063
   70loPI    C1 1105   9.026  10.430  11.301  0.0612 -0.0875 -0.1861
   70loPI    C2 1106   9.281  10.164  11.146  0.2087 -0.0354 -0.0365
   70loPI    C3 1107   9.247  10.200  11.543  0.2809  0.2535 -0.0546
   70loPI   PO4 1108   8.924  10.521  10.974 -0.0236  0.1401 -0.2562
   70loPI   GL1 1109   8.847  10.783  10.689  0.2525 -0.1507 -0.0649
   70loPI   GL2 1110   8.653  10.772  10.453 -0.2834 -0.0248  0.1431
   70loPI   C1A 1111   9.083  11.028  10.408  0.0716 -0.2743 -0.1286
   70loPI   C2A 1112   9.152  11.064   9.961 -0.1606  0.0194 -0.4612
   70loPI   C3A 1113   9.232  11.033   9.521  0.3356  0.3951 -0.1903
   70loPI   C4A 1114   9.273  11.115   9.086  0.1840  0.0346  0.2005
   70loPI   C5A 1115   9.221  10.982   8.820  0.2169  0.2168  0.1706
   70loPI   C6A 1116   9.300  10.529   8.630 -0.3237 -0.0254 -0.2244
   70loPI   C1B 1117   8.811  10.708  10.065  0.0424  0.3616 -0.0268
   70loPI   C2B 1118   8.825  10.771   9.581  0.3034 -0.2285  0.0590
   70loPI   C3B 1119   8.820  10.825   9.165  0.1688  0.2204  0.1814
   70loPI   C4B 1120   8.790  10.739   8.665 -0.1895 -0.0602 -0.1855
   71loPI    C1 1121   4.883   8.373  11.120 -0.1668 -0.0168 -0.0166
   71loPI    C2 1122   4.967   8.740  10.984 -0.0814 -0.0132  0.0455
   71loPI    C3 1123   4.587   8.613  10.997 -0.0866 -0.0325 -0.2441
   71loPI   PO4 1124   5.082   8.250  10.950 -0.4710 -0.0245 -0.0349
   71loPI   GL1 1125   5.152   8.094  10.426 -0.0491 -0.1388 -0.0936
   71loPI   GL2 1126   4.855   7.986  10.233  0.0680  0.2606  0.1365
   71loPI   C1A 1127   5.212   8.229  10.019 -0.0103  0.1459  0.0422
   71loPI   C2A 1128   5.179   8.284   9.663  0.0343 -0.2239 -0.3541
   71loPI   C3A 1129   5.163   8.247   9.258  0.1986  0.2171  0.0779
   71loPI   C4A 1130   5.342   8.237   8.867 -0.2801  0.1342  0.1239
   71loPI   C5A 1131   5.314   8.294   8.421 -0.2134  0.1423  0.1103
   71loPI   C6A 1132   5.550   8.603   8.219 -0.0731 -0.1230  0.2921
   71loPI   C1B 1133   4.841   8.001   9.841  0.1062 -0.1457 -0.2124
   71loPI   C2B 1134   4.776   8.002   9.435  0.0325 -0.2327  0.1188
   71loPI   C3B 1135   4.624   7.938   9.070  0.1468 -0.3624  0.1829
   71loPI   C4B 1136   4.494   7.943   8.671  0.0603  0.0457 -0.0071
   72loPI    C1 1137   0.259  10.262  10.554 -0.0739 -0.1340 -0.2234
   72loPI    C2 1138   0.522  10.331  10.847 -0.2135  0.0289 -0.1353
   72loPI    C3 1139   0.301   9.998  10.851 -0.0944 -0.0507 -0.1460
   72loPI   PO4 1140   0.342  10.363  10.354 -0.0272  0.2829 -0.2927
   72loPI   GL1 1141   0.627  10.330  10.125 -0.1105 -0.0653  0.1747
   72loPI   GL2 1142   0.871  10.281  10.026 -0.1083  0.1022 -0.0614
   72loPI   C1A 1143   0.377  10.312   9.764 -0.3575  0.0686  0.1104
   72loPI   C2A 1144   0.454  10.307   9.342 -0.0721  0.1790  0.1773
   72loPI   C3A 1145   0.498  10.198   8.903 -0.1816 -0.0027 -0.2145
   72loPI   C4A 1146   0.813  10.069   8.614  0.1142  0.1001  0.1729
   72loPI   C5A 1147   0.851   9.857   8.255 -0.1306 -0.4530 -0.1534
   72loPI   C6A 1148   0.901   9.437   8.242 -0.5279  0.2603 -0.2076
   72loPI   C1B 1149   1.011  10.414   9.679  0.1842 -0.1072  0.0025
   72loPI   C2B 1150   0.970  10.432   9.326 -0.2973  0.1738  0.3013
   72loPI   C3B 1151   1.009  10.353   8.963  0.0677  0.0560 -0.1590
   72loPI   C4B 1152   1.279  10.277   8.620 -0.2247 -0.2748  0.1200
   73loPI    C1 1153  17.654  11.937  11.209  0.0063 -0.1235 -0.0829
   73loPI    C2 1154  18.040  11.843  11.259  0.0522  0.0591 -0.0869
   73loPI    C3 1155  17.898  12.189  11.401 -0.1257 -0.0367 -0.0274
   73loPI   PO4 1156  17.607  11.974  10.938  0.0290 -0.2616  0.3196
   73loPI   GL1 1157  17.654  12.158  10.577 -0.0561 -0.0351 -0.0854
   73loPI   GL2 1158  17.614  11.849  10.399  0.2969 -0.1921 -0.3572
   73loPI   C1A 1159  17.908  12.230  10.236  0.0108 -0.2435  0.0590
   73loPI   C2A 1160  17.784  12.368   9.853  0.0281 -0.2140 -0.3521
   73loPI   C3A 1161  17.812  12.295   9.449  0.0926 -0.0521  0.1003
   73loPI   C4A 1162  17.879  12.277   9.088 -0.0297  0.1390  0.1489
   73loPI   C5A 1163  17.843  12.494   8.690  0.0293 -0.1517 -0.2641
   73loPI   C6A 1164  18.100  12.636   8.433 -0.1737  0.0530  0.2280
   73loPI   C1B 1165  17.448  12.009  10.018 -0.0512 -0.1088  0.2144
   73loPI   C2B 1166  17.407  12.038   9.544 -0.0099  0.1838 -0.0630
   73loPI   C3B 1167  17.365  12.145   9.210 -0.2567 -0.0160  0.1891
   73loPI   C4B 1168  17.424  12.346   8.899  0.5832  0.0065 -0.2416
   74loPI    C1 1169  16.852  12.875  10.822 -0.0360  0.1323  0.0496
   74loPI    C2 1170  16.479  12.780  10.931 -0.0555  0.0961 -0.0475
   74loPI    C3 1171  16.767  12.809  11.207 -0.0875 -0.0710  0.0043
   74loPI   PO4 1172  16.798  13.036  10.638  0.2823 -0.0240  0.1632
   74loPI   GL1 1173  16.748  13.376  10.334  0.1830 -0.3057 -0.2113
   74loPI   GL2 1174  17.090  13.377  10.422  0.0212  0.0204 -0.0355
   74loPI   C1A 1175  16.891  13.438   9.850  0.2709 -0.2823  0.0951
   74loPI   C2A 1176  16.916  13.364   9.476 -0.0059  0.1176  0.0825
   74loPI   C3A 1177  16.939  13.482   9.056 -0.0750 -0.0026  0.0352
   74loPI   C4A 1178  16.717  13.510   8.742 -0.0807  0.0706  0.2350
   74loPI   C5A 1179  16.528  13.630   8.461 -0.2187 -0.0037 -0.1165
   74loPI   C6A 1180  16.205  13.792   8.184  0.1329  0.2618  0.0012
   74loPI   C1B 1181  17.151  13.034  10.032  0.0800  0.0507 -0.2862
   74loPI   C2B 1182  17.341  13.122   9.654  0.0825 -0.2591  0.0745
   74loPI   C3B 1183  17.353  13.227   9.285 -0.1068 -0.1286  0.0171
   74loPI   C4B 1184  17.539  13.282   8.784  0.1167  0.0671 -0.0577
   75loPI    C1 1185   0.646   2.811  10.813  0.1213 -0.0214  0.0076
   75loPI    C2 1186   0.646   3.201  10.902 -0.0386 -0.0282  0.0399
   75loPI    C3 1187   0.841   2.942  11.137 -0.0277  0.0180  0.0819
   75loPI   PO4 1188   0.612   2.857  10.495  0.1249  0.0733  0.0515
   75loPI   GL1 1189   0.502   2.554  10.254  0.1985  0.0214 -0.0245
   75loPI   GL2 1190   0.214   2.397  10.227 -0.0546 -0.1680 -0.0117
   75loPI   C1A 1191   0.564   2.497   9.844 -0.2019 -0.0308  0.0869
   75loPI   C2A 1192   0.453   2.489   9.430  0.0001  0.0533  0.1097
   75loPI   C3A 1193   0.357   2.502   9.046  0.0740  0.1077  0.2174
   75loPI   C4A 1194   0.462   2.513   8.673  0.1441  0.0869  0.1868
   75loPI   C5A 1195   0.826   2.484   8.407  0.0749  0.1202 -0.1998
   75loPI   C6A 1196   1.057   2.454   8.036  0.2417 -0.0476  0.1058
   75loPI   C1B 1197   0.139   2.233   9.901 -0.0013  0.0372 -0.2331
   75loPI   C2B 1198   0.024   2.190   9.500 -0.3622 -0.0651  0.2330
   75loPI   C3B 1199   0.026   1.990   9.075 -0.1306 -0.1589  0.2029
   75loPI   C4B 1200   0.052   2.172   8.698 -0.1099  0.1996 -0.0440
   76loPI    C1 1201  17.623  15.082  11.241 -0.0480 -0.1377  0.0393
   76loPI    C2 1202  17.760  15.402  11.045 -0.0232 -0.1653  0.0114
   76loPI    C3 1203  17.717  15.414  11.442 -0.1771 -0.0724 -0.0073
   76loPI   PO4 1204  17.768  14.867  11.126 -0.2221  0.3857 -0.0500
   76loPI   GL1 1205  17.829  14.804  10.648 -0.5120 -0.1631 -0.1728
   76loPI   GL2 1206  17.577  14.972  10.575  0.1095 -0.2046 -0.3641
   76loPI   C1A 1207  17.984  14.812  10.208  0.1484 -0.1449 -0.2574
   76loPI   C2A 1208  18.017  14.928   9.750 -0.1373 -0.2645 -0.1272
   76loPI   C3A 1209  18.019  14.908   9.351 -0.0150  0.0143  0.0974
   76loPI   C4A 1210  17.994  15.053   8.914  0.2774 -0.1531  0.0485
   76loPI   C5A 1211  17.836  15.121   8.519 -0.3769 -0.0171 -0.0375
   76loPI   C6A 1212  17.683  15.189   8.057 -0.1570  0.0723 -0.3038
   76loPI   C1B 1213  17.548  15.099  10.201  0.0650  0.0045 -0.1963
   76loPI   C2B 1214  17.524  15.193   9.795 -0.2800 -0.1497 -0.1338
   76loPI   C3B 1215  17.597  15.244   9.435 -0.1398  0.2462  0.1427
   76loPI   C4B 1216  17.552  15.339   9.007 -0.0806  0.0179  0.2257
   77loPI    C1 1217  17.351  16.090  11.232 -0.0869  0.0609 -0.0365
   77loPI    C2 1218  17.423  15.911  11.582 -0.0812  0.0800 -0.0280
   77loPI    C3 1219  17.272  16.281  11.574 -0.3337 -0.0213 -0.0453
   77loPI   PO4 1220  17.413  15.789  11.030 -0.1306 -0.2242 -0.2069
   77loPI   GL1 1221  17.412  15.613  10.686 -0.0822  0.0493 -0.2129
   77loPI   GL2 1222  17.192  15.445  10.510 -0.1051  0.0545  0.0807
   77loPI   C1A 1223  17.665  15.660  10.389  0.0377 -0.0722 -0.2499
   77loPI   C2A 1224  17.679  15.672   9.963 -0.1302 -0.1012  0.0741
   77loPI   C3A 1225  17.678  15.693   9.523  0.0866  0.2677 -0.1129
   77loPI   C4A 1226  17.427  15.863   9.165  0.0791  0.2576 -0.0399
   77loPI   C5A 1227  17.268  15.725   8.732 -0.1326 -0.2761  0.1958
   77loPI   C6A 1228  17.050  15.737   8.357 -0.0438 -0.1043 -0.1894
   77loPI   C1B 1229  17.263  15.527  10.125  0.2260  0.1416  0.2430
   77loPI   C2B 1230  17.237  15.608   9.712 -0.0237  0.1724  0.0962
   77loPI   C3B 1231  17.129  15.519   9.402 -0.1692  0.1024  0.1415
   77loPI   C4B 1232  16.939  15.710   9.079  0.0034 -0.2518  0.4655
   78loPI    C1 1233   3.337   4.232  10.809 -0.0630  0.2874 -0.1141
   78loPI    C2 1234   3.543   4.491  10.585 -0.0567  0.3507 -0.0360
   78loPI    C3 1235   3.588   4.491  10.982  0.0288  0.1531 -0.0445
   78loPI   PO4 1236   3.323   4.022  10.599 -0.3516 -0.0128 -0.0870
   78loPI   GL1 1237   3.194   4.034  10.254  0.2192  0.0542 -0.1416
   78loPI   GL2 1238   3.130   3.709  10.205 -0.0749  0.0405 -0.1288
   78loPI   C1A 1239   3.342   4.111   9.916  0.1584 -0.2795  0.0396
   78loPI   C2A 1240   3.245   4.009   9.511  0.1190  0.0755  0.0232
   78loPI   C3A 1241   3.197   4.084   9.069 -0.1416 -0.0783 -0.0082
   78loPI   C4A 1242   3.196   3.992   8.646 -0.1818  0.1138 -0.0110
   78loPI   C5A 1243   3.122   3.939   8.257  0.0816  0.0849  0.0531
   78loPI   C6A 1244   2.985   3.772   7.895  0.0018 -0.1643 -0.0948
   78loPI   C1B 1245   3.245   3.556   9.837 -0.0234  0.5398  0.1327
   78loPI   C2B 1246   3.284   3.513   9.374 -0.2179  0.2569  0.1704
   78loPI   C3B 1247   3.166   3.486   8.949 -0.1614 -0.1063 -0.1811
   78loPI   C4B 1248   3.249   3.493   8.485  0.4524 -0.1059 -0.0280
   79loPI    C1 1249   3.017   7.869  10.696 -0.1053 -0.1305 -0.1769
   79loPI    C2 1250   3.101   7.520  10.872  0.2991  0.0557  0.0118
   79loPI    C3 1251   3.028   7.844  11.095  0.0767  0.1282 -0.1631
   79loPI   PO4 1252   2.756   7.853  10.475 -0.0437 -0.0945 -0.2789
   79loPI   GL1 1253   2.861   7.874   9.989  0.1401  0.3187 -0.0145
   79loPI   GL2 1254   2.667   8.156  10.117 -0.1911  0.0702  0.0569
   79loPI   C1A 1255   3.207   7.826   9.659 -0.1564  0.1395  0.1172
   79loPI   C2A 1256   3.307   7.751   9.259  0.1390 -0.0638  0.2810
   79loPI   C3A 1257   3.649   7.622   8.830  0.1819  0.1216 -0.2148
   79loPI   C4A 1258   3.577   7.496   8.480 -0.0044  0.1951 -0.0896
   79loPI   C5A 1259   3.308   7.525   8.170 -0.1220 -0.2729 -0.0654
   79loPI   C6A 1260   3.005   7.204   7.907 -0.0911  0.0148  0.0945
   79loPI   C1B 1261   2.718   8.227   9.655 -0.2046  0.2080  0.1323
   79loPI   C2B 1262   2.869   8.036   9.392 -0.3155  0.4327  0.2547
   79loPI   C3B 1263   2.906   7.972   9.091 -0.0523 -0.1069  0.1198
   79loPI   C4B 1264   3.217   7.823   8.728 -0.1391 -0.1554  0.3485
   80loPI    C1 1265   5.593   9.434  10.664  0.1493  0.0614 -0.0471
   80loPI    C2 1266   5.818   9.754  10.583  0.1389  0.1019  0.0819
   80loPI    C3 1267   5.892   9.535  10.910  0.1256 -0.0087  0.0111
   80loPI   PO4 1268   5.604   9.264  10.454 -0.2675  0.3127  0.1331
   80loPI   GL1 1269   5.439   8.876  10.201  0.0555 -0.0903 -0.4145
   80loPI   GL2 1270   5.499   9.061  10.001 -0.0824 -0.0267 -0.1495
   80loPI   C1A 1271   5.163   8.731   9.824 -0.0329 -0.0959 -0.3778
   80loPI   C2A 1272   5.202   8.781   9.451  0.1362 -0.1636  0.2270
   80loPI   C3A 1273   5.263   8.663   9.096  0.1407  0.0172 -0.0819
   80loPI   C4A 1274   5.303   8.756   8.680  0.1616 -0.0820 -0.1086
   80loPI   C5A 1275   5.265   8.987   8.257  0.0160  0.0845 -0.0224
   80loPI   C6A 1276   4.920   8.958   7.890  0.2109  0.2218  0.2419
   80loPI   C1B 1277   5.477   9.141   9.635  0.2332  0.1578 -0.0311
   80loPI   C2B 1278   5.503   9.117   9.232  0.1422  0.2378 -0.0213
   80loPI   C3B 1279   5.740   9.021   8.901 -0.0836  0.0984 -0.1527
   80loPI   C4B 1280   5.811   9.032   8.493 -0.1323  0.0064  0.1693
   81loPI    C1 1281   2.104   5.926  10.654 -0.0389 -0.2603  0.0598
   81loPI    C2 1282   1.852   6.170  10.845 -0.0357 -0.0665 -0.1777
   81loPI    C3 1283   1.914   5.800  10.983  0.1262  0.1345  0.3139
   81loPI   PO4 1284   2.101   6.066  10.407  0.1728 -0.2616  0.0280
   81loPI   GL1 1285   2.095   6.108   9.963 -0.1121  0.1378  0.4433
   81loPI   GL2 1286   1.983   6.366   9.806  0.3784  0.4241  0.2727
   81loPI   C1A 1287   2.265   6.066   9.545  0.0916  0.0792 -0.0134
   81loPI   C2A 1288   2.310   6.133   9.094 -0.0545 -0.0650 -0.0535
   81loPI   C3A 1289   1.975   5.914   8.737 -0.3644 -0.4333 -0.2506
   81loPI   C4A 1290   1.803   5.902   8.355  0.1080 -0.0829  0.2346
   81loPI   C5A 1291   1.430   5.905   8.086  0.1444 -0.0265  0.0285
   81loPI   C6A 1292   1.534   5.764   7.700 -0.2836  0.1134 -0.1926
   81loPI   C1B 1293   1.909   6.386   9.383 -0.2641  0.2021  0.1684
   81loPI   C2B 1294   1.928   6.443   8.965 -0.1763  0.2749 -0.0613
   81loPI   C3B 1295   1.703   6.450   8.607  0.0339  0.0122  0.0292
   81loPI   C4B 1296   1.391   6.412   8.253 -0.0600 -0.1391  0.2418
   82loPI    C1 1297  13.602   9.359  10.622 -0.0338  0.1464  0.0562
   82loPI    C2 1298  13.431   9.687  10.469 -0.2710  0.0688  0.1500
   82loPI    C3 1299  13.504   9.663  10.862 -0.1999  0.0325  0.1349
   82loPI   PO4 1300  13.483   9.142  10.494  0.0574  0.0496  0.0531
   82loPI   GL1 1301  13.477   9.031  10.007  0.2539  0.0585 -0.1055
   82loPI   GL2 1302  13.514   8.679   9.941 -0.3133  0.4444 -0.1707
   82loPI   C1A 1303  13.675   9.263   9.668  0.1071 -0.4530 -0.2225
   82loPI   C2A 1304  13.656   9.244   9.224 -0.0346  0.0762  0.2281
   82loPI   C3A 1305  13.555   9.428   8.844  0.0208  0.2820  0.1969
   82loPI   C4A 1306  13.746   9.469   8.446 -0.0378  0.1313 -0.0940
   82loPI   C5A 1307  13.674   9.364   8.053  0.2472  0.2056  0.1751
   82loPI   C6A 1308  13.372   9.065   7.985 -0.1764 -0.3614  0.1078
   82loPI   C1B 1309  13.746   8.675   9.542  0.0113  0.1101 -0.1986
   82loPI   C2B 1310  13.783   8.747   9.105 -0.0456  0.0764 -0.2898
   82loPI   C3B 1311  13.698   8.981   8.676  0.1281 -0.0613  0.1251
   82loPI   C4B 1312  13.712   8.818   8.316 -0.1415 -0.0766 -0.1728
   83loPI    C1 1313  14.192  15.641  10.830 -0.1558  0.0342 -0.0888
   83loPI    C2 1314  14.275  15.249  10.828 -0.3063  0.0017 -0.1045
   83loPI    C3 1315  14.271  15.451  11.173 -0.1559  0.0055 -0.1045
   83loPI   PO4 1316  14.116  15.628  10.440 -0.0252 -0.1904 -0.0725
   83loPI   GL1 1317  13.834  15.506  10.101 -0.2853 -0.1007  0.1215
   83loPI   GL2 1318  14.189  15.405   9.983 -0.0049  0.1010  0.1827
   83loPI   C1A 1319  13.724  15.535   9.701 -0.0009  0.0308 -0.1196
   83loPI   C2A 1320  13.722  15.643   9.295  0.0746  0.1026 -0.2032
   83loPI   C3A 1321  13.708  15.831   8.931 -0.2668  0.2342  0.1767
   83loPI   C4A 1322  13.536  15.897   8.633  0.1986 -0.1823  0.1081
   83loPI   C5A 1323  13.333  15.830   8.289  0.0950 -0.2442 -0.1468
   83loPI   C6A 1324  13.022  15.675   8.017  0.3017 -0.0077  0.2327
   83loPI   C1B 1325  14.215  15.422   9.549 -0.1602  0.1635  0.0574
   83loPI   C2B 1326  14.176  15.680   9.135  0.2048  0.1179 -0.1129
   83loPI   C3B 1327  14.183  15.814   8.723 -0.0740 -0.0153 -0.1161
   83loPI   C4B 1328  14.194  15.990   8.310  0.1399 -0.4076 -0.0857
   84loPI    C1 1329  17.674   3.743  10.887  0.2507 -0.0301  0.1623
   84loPI    C2 1330  18.068   3.804  10.867  0.2371  0.0931  0.2587
   84loPI    C3 1331  17.826   4.099  10.985  0.0981  0.0720  0.0330
   84loPI   PO4 1332  17.558   3.572  10.723 -0.1237  0.0107  0.1430
   84loPI   GL1 1333  17.541   3.235  10.329 -0.3868 -0.0067  0.0152
   84loPI   GL2 1334  17.863   3.249  10.108 -0.4620 -0.0215  0.1588
   84loPI   C1A 1335  17.458   3.144   9.874  0.0689 -0.3014  0.0199
   84loPI   C2A 1336  17.489   3.387   9.592 -0.2858  0.0167 -0.4022
   84loPI   C3A 1337  17.334   3.199   9.165  0.2176  0.0195 -0.0794
   84loPI   C4A 1338  17.411   3.014   8.836 -0.0475  0.3950  0.2432
   84loPI   C5A 1339  17.525   3.001   8.367 -0.0132 -0.1179  0.0966
   84loPI   C6A 1340  17.836   2.917   8.012  0.1193 -0.0737 -0.1143
   84loPI   C1B 1341  17.937   3.248   9.718 -0.1991  0.1928  0.2273
   84loPI   C2B 1342  17.829   3.286   9.261  0.1187  0.1136  0.2919
   84loPI   C3B 1343  17.810   3.290   8.785 -0.0792 -0.1660 -0.0979
   84loPI   C4B 1344  17.924   3.387   8.317  0.0437  0.2226 -0.0197
   85loPI    C1 1345   2.198  15.245  11.499 -0.3017  0.0081 -0.1346
   85loPI    C2 1346   1.887  15.152  11.733 -0.0215  0.0090  0.2493
   85loPI    C3 1347   2.039  15.522  11.740 -0.1117  0.0548 -0.0607
   85loPI   PO4 1348   2.196  15.123  11.265  0.0212 -0.1575  0.0691
   85loPI   GL1 1349   2.078  15.005  10.850  0.2995 -0.1781  0.0767
   85loPI   GL2 1350   2.300  14.778  10.771 -0.0915  0.0003 -0.1631
   85loPI   C1A 1351   1.839  14.816  10.505 -0.1668 -0.0465 -0.0285
   85loPI   C2A 1352   1.845  14.723  10.096 -0.3083 -0.0302  0.2347
   85loPI   C3A 1353   1.892  14.794   9.751 -0.0091 -0.2485  0.2653
   85loPI   C4A 1354   1.958  14.959   9.350  0.0420  0.0876 -0.2350
   85loPI   C5A 1355   2.119  15.085   8.937  0.1052 -0.2519 -0.2479
   85loPI   C6A 1356   2.602  15.028   8.759  0.0593 -0.2776 -0.1216
   85loPI   C1B 1357   2.238  14.575  10.421  0.1726  0.1434 -0.4064
   85loPI   C2B 1358   2.348  14.556   9.906 -0.1575  0.1526 -0.1774
   85loPI   C3B 1359   2.364  14.638   9.499 -0.1512  0.1775 -0.1471
   85loPI   C4B 1360   2.466  14.691   9.140  0.1710 -0.1568 -0.2714
   86loPI    C1 1361  14.303  17.528  10.472  0.0821  0.1674  0.0338
   86loPI    C2 1362  13.942  17.488  10.639 -0.0134  0.2157 -0.1583
   86loPI    C3 1363  14.000  17.758  10.349  0.1688  0.1846 -0.1522
   86loPI   PO4 1364  14.388  17.266  10.574  0.0690  0.0124 -0.1713
   86loPI   GL1 1365  14.520  16.869  10.322 -0.1477 -0.2345  0.0026
   86loPI   GL2 1366  14.124  16.870  10.282  0.0282  0.0195  0.0362
   86loPI   C1A 1367  14.449  17.036   9.932 -0.0929 -0.0819 -0.1632
   86loPI   C2A 1368  14.361  17.051   9.530  0.0518 -0.0992 -0.0380
   86loPI   C3A 1369  14.484  17.128   9.098  0.2662  0.0362  0.0127
   86loPI   C4A 1370  14.453  17.110   8.659  0.0223  0.2896  0.1098
   86loPI   C5A 1371  14.780  17.362   8.396 -0.0845  0.1207  0.2392
   86loPI   C6A 1372  14.968  17.578   8.013  0.1329  0.0424 -0.2247
   86loPI   C1B 1373  14.003  16.825   9.871 -0.5133 -0.0834  0.0728
   86loPI   C2B 1374  13.956  16.781   9.500  0.1922  0.1633  0.1697
   86loPI   C3B 1375  13.894  16.904   9.077  0.0823 -0.0023 -0.0525
   86loPI   C4B 1376  14.049  16.820   8.710 -0.0430 -0.0958 -0.1671
   87loPI    C1 1377   4.319   1.055  10.838  0.1967 -0.1391  0.0404
   87loPI    C2 1378   4.349   1.144  11.227  0.0053 -0.0279  0.0307
   87loPI    C3 1379   4.266   1.432  10.962  0.0146 -0.1247 -0.0781
   87loPI   PO4 1380   4.563   0.954  10.776  0.0630 -0.0474 -0.1071
   87loPI   GL1 1381   4.769   0.845  10.341  0.2804 -0.0401 -0.1062
   87loPI   GL2 1382   4.523   1.014  10.211  0.0121 -0.2535 -0.1475
   87loPI   C1A 1383   4.846   0.731   9.985 -0.0830  0.1933  0.0387
   87loPI   C2A 1384   4.689   0.654   9.541 -0.1508 -0.1357  0.0420
   87loPI   C3A 1385   4.687   0.659   9.135 -0.3243  0.1054  0.3267
   87loPI   C4A 1386   4.681   0.700   8.767  0.0744 -0.0304  0.3859
   87loPI   C5A 1387   4.753   0.758   8.352  0.0112 -0.0066 -0.3593
   87loPI   C6A 1388   4.560   0.594   7.984  0.0195 -0.1466 -0.2962
   87loPI   C1B 1389   4.349   0.864   9.857  0.0309  0.2541  0.1763
   87loPI   C2B 1390   4.226   0.857   9.495 -0.1501 -0.0591 -0.1402
   87loPI   C3B 1391   4.259   0.879   8.991  0.0298  0.1228  0.0091
   87loPI   C4B 1392   4.290   0.987   8.672  0.1414  0.0751 -0.2450
   88loPI    C1 1393  10.022   3.942  10.535 -0.2701 -0.0276  0.2837
   88loPI    C2 1394  10.335   3.853  10.767 -0.0421  0.1449  0.0479
   88loPI    C3 1395  10.060   3.574  10.688  0.0630 -0.0152  0.2382
   88loPI   PO4 1396  10.051   4.007  10.318 -0.0956  0.0533 -0.0413
   88loPI   GL1 1397  10.182   4.035   9.991  0.0239 -0.0480 -0.1390
   88loPI   GL2 1398  10.581   4.110   9.943 -0.0681 -0.2374 -0.2256
   88loPI   C1A 1399  10.315   4.006   9.512 -0.0009 -0.1054  0.2294
   88loPI   C2A 1400  10.354   4.039   9.073 -0.0246 -0.2290  0.0016
   88loPI   C3A 1401  10.345   4.081   8.659 -0.0530 -0.0140 -0.0976
   88loPI   C4A 1402  10.513   3.887   8.322 -0.0319 -0.0858 -0.1427
   88loPI   C5A 1403  10.442   3.630   7.984  0.0244 -0.0142 -0.0045
   88loPI   C6A 1404  10.501   3.795   7.603  0.1226 -0.0730 -0.1837
   88loPI   C1B 1405  10.669   4.363   9.629 -0.3143  0.0009 -0.0547
   88loPI   C2B 1406  10.640   4.405   9.238  0.1209 -0.1739 -0.4101
   88loPI   C3B 1407  10.633   4.452   8.831  0.2275 -0.1170 -0.1477
   88loPI   C4B 1408  10.734   4.318   8.370 -0.0624  0.1662 -0.0219
   89loPI    C1 1409   0.089   7.319  10.587 -0.2119 -0.0802 -0.0019
   89loPI    C2 1410  -0.045   7.024  10.352 -0.0371  0.0028 -0.2101
   89loPI    C3 1411   0.333   7.151  10.317  0.0281 -0.0633  0.2003
   89loPI   PO4 1412  -0.034   7.506  10.518  0.1457 -0.0850  0.1249
   89loPI   GL1 1413  -0.165   7.700  10.125  0.0314  0.0965  0.0483
   89loPI   GL2 1414  -0.345   7.530   9.909 -0.2125 -0.0848  0.1053
   89loPI   C1A 1415   0.022   7.857   9.732 -0.2532 -0.2213 -0.0796
   89loPI   C2A 1416  -0.056   7.887   9.381 -0.3400 -0.0497  0.1633
   89loPI   C3A 1417  -0.290   8.128   9.174 -0.0388  0.1578  0.1501
   89loPI   C4A 1418  -0.502   8.133   8.848 -0.0511 -0.2579 -0.1823
   89loPI   C5A 1419  -0.907   8.110   8.513  0.0592 -0.1319 -0.4671
   89loPI   C6A 1420  -0.992   7.896   8.138  0.4869  0.0788  0.0281
   89loPI   C1B 1421  -0.316   7.518   9.546  0.2193  0.0387  0.0969
   89loPI   C2B 1422  -0.416   7.672   9.060  0.1355 -0.2612  0.1213
   89loPI   C3B 1423  -0.488   7.717   8.589  0.4267 -0.0776 -0.1403
   89loPI   C4B 1424  -0.544   7.545   8.215 -0.0734  0.1668  0.1712
   90loPI    C1 1425   6.018  10.460  10.937 -0.0446  0.1569 -0.0129
   90loPI    C2 1426   6.206  10.622  11.251 -0.0139 -0.1346  0.1219
   90loPI    C3 1427   5.816  10.536  11.273 -0.0390 -0.0444  0.0370
   90loPI   PO4 1428   6.191  10.577  10.754  0.1899 -0.0848  0.1160
   90loPI   GL1 1429   6.158  10.418  10.339  0.0234 -0.2185  0.0415
   90loPI   GL2 1430   5.967  10.328  10.083 -0.2037  0.1719  0.1050
   90loPI   C1A 1431   6.465  10.476  10.006 -0.1052  0.0751  0.0742
   90loPI   C2A 1432   6.560  10.490   9.614  0.3163 -0.1157 -0.1371
   90loPI   C3A 1433   6.571  10.515   9.137 -0.3840  0.2967  0.1512
   90loPI   C4A 1434   6.448  10.615   8.694 -0.2655 -0.0361  0.0576
   90loPI   C5A 1435   6.240  10.797   8.324 -0.0404 -0.0617  0.1796
   90loPI   C6A 1436   5.910  10.867   8.123 -0.0918 -0.3457 -0.0994
   90loPI   C1B 1437   6.118  10.299   9.711  0.2250  0.1101  0.5499
   90loPI   C2B 1438   6.213  10.218   9.297 -0.0606  0.1276  0.1814
   90loPI   C3B 1439   6.138  10.256   8.929  0.2018 -0.0502  0.0762
   90loPI   C4B 1440   6.089  10.231   8.440 -0.1493  0.0150  0.0957
   91loPI    C1 1441  12.782  17.421  10.534  0.0173 -0.0015  0.2041
   91loPI    C2 1442  12.387  17.425  10.599 -0.0094  0.1772  0.0425
   91loPI    C3 1443  12.640  17.363  10.903 -0.1646 -0.0508  0.1277
   91loPI   PO4 1444  12.747  17.428  10.229  0.1548 -0.0238 -0.1174
   91loPI   GL1 1445  12.788  17.121   9.852  0.0564 -0.0280 -0.0493
   91loPI   GL2 1446  12.545  17.197   9.758  0.0322  0.1417 -0.3002
   91loPI   C1A 1447  13.077  17.355   9.632  0.1007  0.0548  0.1521
   91loPI   C2A 1448  13.223  17.473   9.160 -0.0329 -0.3121  0.0325
   91loPI   C3A 1449  13.030  17.715   8.826  0.2272  0.0957 -0.0257
   91loPI   C4A 1450  13.214  17.997   8.582  0.0638  0.2989  0.3689
   91loPI   C5A 1451  13.078  18.252   8.237 -0.1257  0.2921 -0.1898
   91loPI   C6A 1452  13.349  18.326   7.897  0.0035  0.0698  0.1751
   91loPI   C1B 1453  12.545  17.250   9.398  0.3072  0.2354 -0.3095
   91loPI   C2B 1454  12.636  17.327   8.905  0.1480 -0.1387  0.0423
   91loPI   C3B 1455  12.664  17.410   8.549  0.1878 -0.3414  0.0668
   91loPI   C4B 1456  12.940  17.239   8.171  0.1408 -0.0604 -0.2003
   92loPI    C1 1457   8.152   4.026  10.138  0.2789 -0.1727 -0.1538
   92loPI    C2 1458   7.900   4.007  10.449  0.0922 -0.1841 -0.3036
   92loPI    C3 1459   8.274   3.867  10.484  0.1860  0.1353  0.0243
   92loPI   PO4 1460   8.118   3.862   9.991 -0.2184  0.0169  0.0605
   92loPI   GL1 1461   8.363   3.620   9.684 -0.1624  0.2428  0.1227
   92loPI   GL2 1462   8.654   3.712   9.584  0.2993 -0.0282  0.0271
   92loPI   C1A 1463   8.244   3.755   9.251 -0.0578 -0.2818 -0.0208
   92loPI   C2A 1464   8.237   3.472   8.856 -0.0906 -0.0565 -0.0371
   92loPI   C3A 1465   8.263   3.433   8.447  0.2554 -0.0045 -0.0845
   92loPI   C4A 1466   8.027   3.614   8.050  0.0264  0.1691  0.4441
   92loPI   C5A 1467   7.724   3.717   7.935  0.0977 -0.1953 -0.0014
   92loPI   C6A 1468   7.454   4.064   8.032  0.0676  0.1237  0.1133
   92loPI   C1B 1469   8.665   3.631   9.083  0.0992 -0.1006  0.0465
   92loPI   C2B 1470   8.714   3.432   8.591 -0.0616 -0.2958  0.1314
   92loPI   C3B 1471   8.678   3.123   8.234  0.0273  0.0899  0.2318
   92loPI   C4B 1472   8.441   3.380   7.925  0.1017  0.0320  0.0257
   93loPI    C1 1473  15.830   4.729  10.212  0.2199  0.1034 -0.2322
   93loPI    C2 1474  16.012   5.057  10.352 -0.0387  0.1434  0.0193
   93loPI    C3 1475  15.830   4.805  10.604 -0.1371 -0.0147 -0.2056
   93loPI   PO4 1476  16.021   4.655   9.978 -0.1224  0.1010  0.1306
   93loPI   GL1 1477  16.303   4.365   9.892 -0.0035  0.2145  0.5673
   93loPI   GL2 1478  16.622   4.162   9.836 -0.2581  0.0693 -0.0378
   93loPI   C1A 1479  16.372   4.337   9.416  0.2302  0.2048  0.4245
   93loPI   C2A 1480  16.488   4.268   9.062  0.2215  0.0967  0.0690
   93loPI   C3A 1481  16.634   4.240   8.681  0.1084 -0.1106  0.2231
   93loPI   C4A 1482  16.614   4.334   8.334  0.3633 -0.0889 -0.0604
   93loPI   C5A 1483  16.919   4.154   8.206 -0.3346  0.0760 -0.0631
   93loPI   C6A 1484  17.294   4.037   8.239  0.0170 -0.2566 -0.3908
   93loPI   C1B 1485  16.656   3.940   9.420  0.2163  0.4533 -0.1845
   93loPI   C2B 1486  16.538   3.708   9.052  0.1510 -0.3665 -0.0136
   93loPI   C3B 1487  16.325   3.884   8.585 -0.1447  0.1678 -0.1114
   93loPI   C4B 1488  16.353   3.878   8.149 -0.0719  0.0668 -0.0635
   94loPI    C1 1489   6.821  15.709  11.018  0.0051 -0.1522  0.0100
   94loPI    C2 1490   6.588  16.008  10.892 -0.1024 -0.2467 -0.0168
   94loPI    C3 1491   6.478  15.788  11.207 -0.0038 -0.2327  0.0278
   94loPI   PO4 1492   6.905  15.596  10.826 -0.1206 -0.1409  0.0936
   94loPI   GL1 1493   6.939  15.645  10.344  0.2882  0.1516 -0.0974
   94loPI   GL2 1494   6.644  15.746  10.431 -0.3157  0.0199 -0.1975
   94loPI   C1A 1495   6.999  15.678  10.052  0.0924  0.2330 -0.1262
   94loPI   C2A 1496   6.911  15.760   9.657  0.3640  0.0742  0.1034
   94loPI   C3A 1497   6.895  15.809   9.253  0.1361  0.0084 -0.0845
   94loPI   C4A 1498   6.943  15.846   8.887  0.1503  0.1569  0.1874
   94loPI   C5A 1499   6.888  15.824   8.467  0.0169 -0.1159  0.0433
   94loPI   C6A 1500   6.843  15.845   7.912  0.1119  0.1519  0.1659
   94loPI   C1B 1501   6.483  15.949  10.068 -0.0502 -0.2321 -0.1102
   94loPI   C2B 1502   6.484  16.049   9.686  0.2148  0.4137 -0.2396
   94loPI   C3B 1503   6.450  16.002   9.225  0.3818  0.1211 -0.0680
   94loPI   C4B 1504   6.487  16.017   8.779 -0.0635  0.0117  0.0046
   95loPI    C1 1505   8.297   5.944  10.743 -0.2002 -0.0153 -0.4178
   95loPI    C2 1506   8.174   6.236  10.499 -0.1723  0.1681 -0.2162
   95loPI    C3 1507   8.331   6.327  10.855 -0.2585 -0.0980 -0.1079
   95loPI   PO4 1508   8.516   5.848  10.574  0.3351 -0.2273  0.0635
   95loPI   GL1 1509   8.575   5.891  10.211  0.1052 -0.0536 -0.0717
   95loPI   GL2 1510   8.608   5.720   9.975  0.1853 -0.0420  0.1044
   95loPI   C1A 1511   8.711   6.175   9.869 -0.0508  0.1551  0.0317
   95loPI   C2A 1512   8.785   6.126   9.503 -0.0149 -0.2415  0.0276
   95loPI   C3A 1513   8.755   5.967   9.010 -0.3723 -0.0476 -0.1802
   95loPI   C4A 1514   8.860   6.034   8.621  0.3625  0.1615  0.0274
   95loPI   C5A 1515   9.057   6.083   8.216  0.1094 -0.2869 -0.1242
   95loPI   C6A 1516   9.237   6.461   8.103  0.1838  0.3051  0.2377
   95loPI   C1B 1517   8.754   5.581   9.550  0.2159 -0.0501 -0.1012
   95loPI   C2B 1518   8.813   5.486   9.108  0.0381  0.2071  0.0534
   95loPI   C3B 1519   8.641   5.589   8.699 -0.0485  0.0603  0.1185
   95loPI   C4B 1520   8.747   5.638   8.319  0.0994 -0.2547  0.0246
   96loPI    C1 1521   9.436   7.559  10.653 -0.4089  0.1816 -0.0054
   96loPI    C2 1522   9.411   7.639  11.044  0.2711 -0.1183  0.1145
   96loPI    C3 1523   9.653   7.855  10.811  0.2572 -0.2673 -0.0399
   96loPI   PO4 1524   9.174   7.381  10.668 -0.0253  0.1944  0.2826
   96loPI   GL1 1525   9.215   6.977  10.382 -0.0471 -0.1512  0.4268
   96loPI   GL2 1526   9.457   7.269  10.197 -0.1177 -0.0725 -0.0442
   96loPI   C1A 1527   9.138   6.973   9.895 -0.1013  0.2914 -0.3817
   96loPI   C2A 1528   9.062   6.998   9.482  0.2300  0.5943 -0.0018
   96loPI   C3A 1529   8.962   6.981   9.067  0.2119  0.0718  0.2117
   96loPI   C4A 1530   8.931   7.001   8.674  0.3067  0.2441 -0.1095
   96loPI   C5A 1531   8.990   7.264   8.402  0.0974 -0.2376  0.0140
   96loPI   C6A 1532   8.847   7.666   8.123  0.0629  0.2642 -0.2254
   96loPI   C1B 1533   9.611   7.486   9.872  0.0579 -0.2235  0.0092
   96loPI   C2B 1534   9.637   7.530   9.487  0.0167  0.3222 -0.0883
   96loPI   C3B 1535   9.554   7.513   9.174 -0.0952 -0.2659  0.3850
   96loPI   C4B 1536   9.511   7.263   8.762  0.0142 -0.0900 -0.2201
   97loPI    C1 1537  17.355  14.609  11.071 -0.2066 -0.2449  0.0396
   97loPI    C2 1538  17.111  14.356  11.261 -0.0594 -0.2262  0.2574
   97loPI    C3 1539  17.465  14.450  11.421  0.0379 -0.1553  0.0056
   97loPI   PO4 1540  17.291  14.519  10.855  0.1184  0.2269  0.2790
   97loPI   GL1 1541  17.482  14.443  10.524 -0.1156  0.0019  0.0423
   97loPI   GL2 1542  17.467  14.194  10.388 -0.0574  0.2089 -0.0835
   97loPI   C1A 1543  17.499  14.643  10.048  0.0581 -0.0457 -0.0349
   97loPI   C2A 1544  17.611  14.721   9.585  0.0016 -0.2177 -0.1428
   97loPI   C3A 1545  17.531  14.840   9.139  0.1641 -0.0508 -0.1829
   97loPI   C4A 1546  17.478  14.860   8.709 -0.1245 -0.1535 -0.2281
   97loPI   C5A 1547  17.375  14.819   8.192  0.2915  0.1244 -0.1776
   97loPI   C6A 1548  17.520  14.812   7.808 -0.1534  0.1115  0.0743
   97loPI   C1B 1549  17.470  14.119  10.026 -0.0727  0.3601 -0.1253
   97loPI   C2B 1550  17.515  14.139   9.600 -0.2404  0.3483  0.0857
   97loPI   C3B 1551  17.585  14.288   9.222  0.1362 -0.2981 -0.1397
   97loPI   C4B 1552  17.519  14.428   8.875 -0.2321  0.0047  0.0955
   98loPI    C1 1553  17.773   5.092  10.459  0.0596  0.0828 -0.2686
   98loPI    C2 1554  17.878   4.707  10.439 -0.0571  0.0524 -0.3053
   98loPI    C3 1555  17.960   4.920  10.768 -0.2527 -0.0824 -0.1666
   98loPI   PO4 1556  17.798   5.190  10.286 -0.2323 -0.0518 -0.0460
   98loPI   GL1 1557  18.116   5.301   9.884 -0.1174  0.1710 -0.2501
   98loPI   GL2 1558  18.445   5.340  10.040 -0.0207  0.1673 -0.0551
   98loPI   C1A 1559  18.275   5.451   9.522  0.3490 -0.0253 -0.0796
   98loPI   C2A 1560  18.184   5.388   9.137 -0.0696  0.1454  0.0356
   98loPI   C3A 1561  18.175   5.187   8.724 -0.0872 -0.0930 -0.0697
   98loPI   C4A 1562  18.472   5.186   8.374 -0.0324 -0.1156  0.0746
   98loPI   C5A 1563  18.836   5.222   8.156  0.2727 -0.0070  0.0327
   98loPI   C6A 1564  19.120   5.382   7.817 -0.1605  0.1632 -0.1101
   98loPI   C1B 1565  18.741   5.381   9.588 -0.0555  0.2936 -0.1904
   98loPI   C2B 1566  19.012   5.095   9.409  0.1942  0.0896 -0.0651
   98loPI   C3B 1567  19.120   5.011   9.025 -0.0981  0.1299 -0.0071
   98loPI   C4B 1568  19.292   5.109   8.704 -0.1096 -0.1162 -0.3618
   99loPI    C1 1569   4.265  14.475  10.857 -0.1476 -0.0813 -0.0734
   99loPI    C2 1570   3.984  14.659  11.073  0.0010  0.0103  0.0446
   99loPI    C3 1571   4.360  14.644  11.207  0.0855  0.0271 -0.1867
   99loPI   PO4 1572   4.226  14.409  10.605  0.0282  0.0652  0.0196
   99loPI   GL1 1573   4.323  14.349  10.310  0.0158 -0.1169 -0.0890
   99loPI   GL2 1574   4.553  14.226  10.205  0.2463  0.2925  0.0619
   99loPI   C1A 1575   4.325  14.486   9.880  0.2416 -0.0485  0.1826
   99loPI   C2A 1576   4.245  14.550   9.406  0.0972  0.3331  0.1435
   99loPI   C3A 1577   4.162  14.688   8.975  0.1411  0.2841  0.0389
   99loPI   C4A 1578   4.387  14.755   8.667 -0.0724  0.0105 -0.1403
   99loPI   C5A 1579   4.587  14.622   8.312  0.1915 -0.0434  0.2462
   99loPI   C6A 1580   4.306  14.737   7.917 -0.1368  0.0945 -0.2898
   99loPI   C1B 1581   4.712  14.175   9.790 -0.0887  0.2955  0.0986
   99loPI   C2B 1582   4.702  14.344   9.413  0.1606  0.3171 -0.2053
   99loPI   C3B 1583   4.693  14.376   9.014 -0.0774  0.1555 -0.0304
   99loPI   C4B 1584   4.937  14.569   8.624 -0.1517  0.1601 -0.1554
  100loPI    C1 1585   6.749  13.585  10.919  0.2751  0.1637 -0.0398
  100loPI    C2 1586   7.053  13.325  10.930  0.0537 -0.0890  0.3444
  100loPI    C3 1587   7.078  13.672  11.129  0.1956  0.0146  0.1495
  100loPI   PO4 1588   6.683  13.641  10.623  0.1560  0.0201  0.1478
  100loPI   GL1 1589   6.647  14.006  10.246 -0.2676  0.1021 -0.1618
  100loPI   GL2 1590   6.462  13.788  10.224 -0.1378 -0.2314  0.2348
  100loPI   C1A 1591   6.630  14.413  10.017  0.0976 -0.1643 -0.2758
  100loPI   C2A 1592   6.547  14.533   9.615  0.0026 -0.1275  0.0960
  100loPI   C3A 1593   6.529  14.582   9.171 -0.2914 -0.2429  0.1882
  100loPI   C4A 1594   6.446  14.480   8.754 -0.2121  0.0053  0.1174
  100loPI   C5A 1595   6.260  14.505   8.416 -0.1283 -0.1674 -0.2483
  100loPI   C6A 1596   5.914  14.752   8.163 -0.1267 -0.0632 -0.0404
  100loPI   C1B 1597   6.595  13.954   9.754  0.3519  0.0562  0.1614
  100loPI   C2B 1598   6.645  14.064   9.346 -0.0840  0.0370 -0.1765
  100loPI   C3B 1599   6.824  14.220   8.980  0.1017 -0.1285 -0.0363
  100loPI   C4B 1600   6.808  14.248   8.477 -0.2120  0.1737  0.4175
  101loPI    C1 1601  12.267   3.254  10.595  0.1772  0.1964  0.1634
  101loPI    C2 1602  12.048   2.984  10.793  0.1556  0.0958  0.0044
  101loPI    C3 1603  12.234   3.276  10.993  0.1285 -0.0000  0.1716
  101loPI   PO4 1604  12.203   3.229  10.306 -0.1386 -0.1002  0.0790
  101loPI   GL1 1605  12.370   3.285   9.921 -0.0870 -0.1919 -0.0448
  101loPI   GL2 1606  12.113   3.432   9.856 -0.1041 -0.1555 -0.1548
  101loPI   C1A 1607  12.381   3.307   9.471  0.1386  0.2186 -0.1991
  101loPI   C2A 1608  12.324   3.281   8.977 -0.0039 -0.1681  0.1716
  101loPI   C3A 1609  12.289   3.459   8.614 -0.0507  0.1287  0.1184
  101loPI   C4A 1610  12.404   3.805   8.368 -0.0251 -0.4177  0.0415
  101loPI   C5A 1611  12.361   4.254   8.210 -0.2449 -0.1945  0.2707
  101loPI   C6A 1612  12.202   4.409   7.865  0.3495 -0.4922 -0.1637
  101loPI   C1B 1613  11.969   3.615   9.661  0.0990  0.0350 -0.0149
  101loPI   C2B 1614  11.937   3.793   9.318 -0.2657 -0.0049  0.0399
  101loPI   C3B 1615  12.020   3.847   8.920  0.5552 -0.1967  0.0570
  101loPI   C4B 1616  12.045   4.057   8.648  0.0982  0.1751  0.0107
  102loPI    C1 1617   5.856  13.928  10.902  0.0758 -0.3267 -0.1750
  102loPI    C2 1618   6.091  14.144  11.143 -0.1658 -0.0452 -0.1874
  102loPI    C3 1619   5.840  13.875  11.298 -0.0166 -0.1678 -0.1567
  102loPI   PO4 1620   5.697  14.099  10.781 -0.0426  0.0080  0.1095
  102loPI   GL1 1621   5.483  14.099  10.402  0.0122 -0.0638 -0.0220
  102loPI   GL2 1622   5.517  14.471  10.486 -0.1469  0.1494  0.2387
  102loPI   C1A 1623   5.625  14.012   9.951 -0.1353 -0.0671  0.0582
  102loPI   C2A 1624   5.674  14.022   9.458  0.2974 -0.0352  0.7859
  102loPI   C3A 1625   5.527  13.941   9.114 -0.1901 -0.1422  0.2044
  102loPI   C4A 1626   5.540  13.998   8.648  0.2819  0.1915  0.1177
  102loPI   C5A 1627   5.354  14.029   8.338 -0.2885 -0.3129 -0.2007
  102loPI   C6A 1628   4.997  14.140   8.272 -0.1744 -0.1448  0.1503
  102loPI   C1B 1629   5.593  14.459  10.081  0.0432  0.3379 -0.0615
  102loPI   C2B 1630   5.610  14.447   9.660 -0.3651 -0.1409  0.0979
  102loPI   C3B 1631   5.552  14.433   9.164 -0.1824  0.2284 -0.0217
  102loPI   C4B 1632   5.626  14.491   8.680  0.2684  0.0091 -0.0850
  103loPI    C1 1633  13.991   2.805  10.803 -0.1566  0.1100 -0.0934
  103loPI    C2 1634  13.651   2.673  10.967 -0.1749  0.3021  0.0260
  103loPI    C3 1635  13.801   3.027  11.076  0.2864  0.0362  0.2867
  103loPI   PO4 1636  13.968   2.798  10.563  0.0477  0.1085  0.2807
  103loPI   GL1 1637  13.907   2.741  10.171  0.0113 -0.1774  0.0106
  103loPI   GL2 1638  13.876   3.070  10.159  0.3699 -0.0328 -0.0244
  103loPI   C1A 1639  13.861   2.666   9.722  0.0262 -0.0089  0.2976
  103loPI   C2A 1640  13.849   2.750   9.304  0.2352  0.1838 -0.3166
  103loPI   C3A 1641  13.711   3.023   9.013 -0.0196 -0.1359  0.0550
  103loPI   C4A 1642  13.499   2.966   8.637  0.0483  0.0205  0.0824
  103loPI   C5A 1643  13.429   2.698   8.274 -0.0330 -0.0869 -0.0290
  103loPI   C6A 1644  13.598   2.383   7.913 -0.1173  0.0072 -0.0314
  103loPI   C1B 1645  14.112   3.178   9.740  0.1740  0.3584  0.0453
  103loPI   C2B 1646  14.063   3.195   9.358  0.1454 -0.1207 -0.1221
  103loPI   C3B 1647  14.158   3.156   8.951  0.0988  0.1327 -0.1452
  103loPI   C4B 1648  14.056   2.928   8.558  0.0479 -0.2225 -0.3739
  104loPI    C1 1649   9.279   9.027  11.230  0.1952 -0.1342  0.0111
  104loPI    C2 1650   9.557   8.839  11.449  0.0949 -0.1823  0.0986
  104loPI    C3 1651   9.350   9.142  11.607  0.2517 -0.0003 -0.0397
  104loPI   PO4 1652   9.390   9.111  11.020 -0.2614 -0.0918  0.3712
  104loPI   GL1 1653   9.618   9.035  10.520 -0.2847 -0.1167  0.1695
  104loPI   GL2 1654   9.767   8.757  10.451  0.1301 -0.1700  0.2041
  104loPI   C1A 1655   9.416   8.984  10.205  0.2615 -0.2734  0.0138
  104loPI   C2A 1656   9.352   9.063   9.836  0.2576  0.1392 -0.0311
  104loPI   C3A 1657   9.362   9.057   9.373 -0.1116  0.1032  0.0183
  104loPI   C4A 1658   9.402   9.058   8.950 -0.2042 -0.2203  0.2379
  104loPI   C5A 1659   9.293   9.078   8.574 -0.2652  0.0600  0.0238
  104loPI   C6A 1660   8.884   9.030   8.313  0.1216 -0.1821 -0.1817
  104loPI   C1B 1661   9.880   8.771  10.019 -0.1505 -0.1073 -0.2181
  104loPI   C2B 1662   9.908   8.762   9.598 -0.2094 -0.1850  0.1352
  104loPI   C3B 1663   9.884   8.802   9.212 -0.0562  0.2054 -0.2642
  104loPI   C4B 1664   9.787   8.869   8.755 -0.2230 -0.0609 -0.2608
  105loPI    C1 1665  16.263  13.453  11.033  0.1414  0.0465 -0.1327
  105loPI    C2 1666  16.623  13.341  11.167  0.0218 -0.1311  0.0465
  105loPI    C3 1667  16.530  13.729  11.144  0.2767 -0.0784 -0.1439
  105loPI   PO4 1668  16.286  13.283  10.737 -0.1836  0.3053 -0.2387
  105loPI   GL1 1669  16.265  13.410  10.383  0.0589  0.1282  0.3730
  105loPI   GL2 1670  15.992  13.330  10.266 -0.1016  0.0875  0.2317
  105loPI   C1A 1671  16.379  13.686  10.156 -0.1364 -0.2921  0.0167
  105loPI   C2A 1672  16.478  13.805   9.756  0.2146  0.1704  0.0650
  105loPI   C3A 1673  16.492  13.726   9.278  0.2839  0.2844 -0.1491
  105loPI   C4A 1674  16.711  13.969   8.855 -0.1177 -0.0674 -0.0218
  105loPI   C5A 1675  16.961  14.006   8.485  0.2617  0.0382 -0.0440
  105loPI   C6A 1676  17.260  13.944   8.189 -0.2026 -0.0978  0.2119
  105loPI   C1B 1677  16.068  13.515   9.807 -0.1769  0.1258 -0.1188
  105loPI   C2B 1678  16.042  13.486   9.373 -0.2001  0.0553  0.0104
  105loPI   C3B 1679  15.816  13.613   8.993  0.0220  0.0061 -0.2312
  105loPI   C4B 1680  15.975  13.724   8.616  0.0247 -0.0581  0.2509
  106loPI    C1 1681   4.500  13.560  10.772 -0.2112  0.0469 -0.0029
  106loPI    C2 1682   4.254  13.767  11.011 -0.0625 -0.0638  0.2502
  106loPI    C3 1683   4.638  13.718  11.113  0.0061 -0.1036 -0.0192
  106loPI   PO4 1684   4.375  13.311  10.698 -0.0643  0.0516  0.1902
  106loPI   GL1 1685   4.282  13.137  10.308  0.2003  0.0402  0.0312
  106loPI   GL2 1686   4.256  13.400  10.050  0.1736  0.0404 -0.2286
  106loPI   C1A 1687   4.257  12.907   9.940 -0.0411  0.3666  0.0153
  106loPI   C2A 1688   4.303  13.000   9.546  0.0416  0.1409  0.0402
  106loPI   C3A 1689   4.185  13.004   9.119  0.1286 -0.2266 -0.0158
  106loPI   C4A 1690   4.121  13.214   8.780 -0.0374  0.0300  0.2728
  106loPI   C5A 1691   3.734  13.100   8.430  0.2631  0.0022 -0.1272
  106loPI   C6A 1692   3.699  12.858   8.009  0.2625  0.1440 -0.2557
  106loPI   C1B 1693   4.264  13.496   9.584 -0.2962 -0.3288 -0.0567
  106loPI   C2B 1694   4.276  13.501   9.178  0.2595  0.0394 -0.1210
  106loPI   C3B 1695   4.112  13.730   8.751  0.0307  0.0035  0.2139
  106loPI   C4B 1696   3.938  13.981   8.337 -0.2584  0.0029  0.1181
  107loPI    C1 1697   7.995  17.536  10.772 -0.0288  0.3166 -0.0623
  107loPI    C2 1698   8.341  17.714  10.866  0.0847 -0.0677  0.2808
  107loPI    C3 1699   8.168  17.463  11.125 -0.2873 -0.1326 -0.0201
  107loPI   PO4 1700   7.949  17.705  10.596 -0.1712 -0.1261 -0.0882
  107loPI   GL1 1701   7.685  17.619  10.140 -0.0727  0.1125  0.4046
  107loPI   GL2 1702   8.040  17.414  10.133 -0.0107 -0.3104 -0.0037
  107loPI   C1A 1703   7.526  17.560   9.763  0.1429  0.1597  0.3143
  107loPI   C2A 1704   7.432  17.570   9.286 -0.2419 -0.2136 -0.1457
  107loPI   C3A 1705   7.459  17.612   8.847 -0.1404  0.3413 -0.0200
  107loPI   C4A 1706   7.357  17.570   8.414 -0.0118  0.0242  0.1947
  107loPI   C5A 1707   7.425  17.173   8.142  0.1421 -0.2928  0.2680
  107loPI   C6A 1708   7.554  17.093   7.680  0.1190 -0.2575  0.0154
  107loPI   C1B 1709   8.031  17.304   9.800  0.0981  0.0166  0.0562
  107loPI   C2B 1710   7.985  17.346   9.304  0.1497  0.1846 -0.1532
  107loPI   C3B 1711   7.956  17.376   8.849  0.1652  0.2704  0.1430
  107loPI   C4B 1712   7.844  17.360   8.384 -0.3151  0.1125 -0.0420
  108loPI    C1 1713  17.168   5.211  10.787  0.2356  0.0481 -0.0674
  108loPI    C2 1714  17.517   5.052  10.901  0.0894 -0.0540  0.2462
  108loPI    C3 1715  17.177   4.846  10.948 -0.0353  0.1172  0.1105
  108loPI   PO4 1716  17.253   5.284  10.490  0.2203 -0.1617  0.2157
  108loPI   GL1 1717  17.320   5.186  10.068 -0.1683 -0.2153  0.1436
  108loPI   GL2 1718  17.519   5.379   9.872  0.1481 -0.4042 -0.2002
  108loPI   C1A 1719  17.329   5.101   9.555  0.1380 -0.0878 -0.1914
  108loPI   C2A 1720  17.224   4.912   9.217  0.3572 -0.2136 -0.3968
  108loPI   C3A 1721  17.255   5.046   8.824  0.2675 -0.0777 -0.0143
  108loPI   C4A 1722  17.168   5.227   8.396 -0.0229  0.1724  0.1779
  108loPI   C5A 1723  17.033   5.607   8.134  0.3296 -0.2674 -0.1039
  108loPI   C6A 1724  17.304   5.597   7.804  0.1687  0.1319  0.1000
  108loPI   C1B 1725  17.681   5.412   9.582 -0.0824  0.3739  0.0024
  108loPI   C2B 1726  17.642   5.403   9.089 -0.0682 -0.3568 -0.0516
  108loPI   C3B 1727  17.713   5.273   8.605  0.1697  0.2982 -0.1479
  108loPI   C4B 1728  17.985   5.431   8.333 -0.1415  0.2181 -0.0821
  109loPI    C1 1729  13.695  13.722  10.706 -0.0577 -0.1251 -0.1135
  109loPI    C2 1730  14.049  13.907  10.683 -0.0290 -0.1738 -0.0650
  109loPI    C3 1731  13.973  13.659  10.987  0.0014 -0.3848 -0.2273
  109loPI   PO4 1732  13.662  13.503  10.450  0.5230 -0.2140 -0.2433
  109loPI   GL1 1733  13.591  13.595   9.970  0.1699 -0.0056  0.2198
  109loPI   GL2 1734  13.726  13.313   9.936 -0.1222  0.2314  0.0395
  109loPI   C1A 1735  13.799  13.941   9.942 -0.0314  0.1653 -0.0389
  109loPI   C2A 1736  13.881  14.129   9.537 -0.2078 -0.1204  0.0291
  109loPI   C3A 1737  13.814  14.185   9.142 -0.1259 -0.1176 -0.2683
  109loPI   C4A 1738  13.881  14.039   8.745 -0.1266 -0.3068  0.1316
  109loPI   C5A 1739  13.723  14.168   8.325  0.2511 -0.0410  0.1439
  109loPI   C6A 1740  13.215  14.128   8.158  0.1598  0.5060  0.0505
  109loPI   C1B 1741  13.438  13.270   9.623 -0.1935 -0.2904  0.2837
  109loPI   C2B 1742  13.552  13.252   9.171 -0.1014 -0.1328 -0.0932
  109loPI   C3B 1743  13.955  13.344   9.079 -0.3277  0.1905  0.0864
  109loPI   C4B 1744  14.254  13.230   8.808 -0.0881 -0.0764 -0.1265
  110loPI    C1 1745  11.251   9.438  10.986 -0.0274 -0.1639 -0.0463
  110loPI    C2 1746  11.053   9.281  11.295  0.0562  0.0386  0.1126
  110loPI    C3 1747  10.920   9.616  11.122  0.1518  0.0673  0.0944
  110loPI   PO4 1748  11.316   9.267  10.763 -0.1317 -0.1598  0.1987
  110loPI   GL1 1749  11.481   9.208  10.427 -0.0576  0.0883  0.1797
  110loPI   GL2 1750  11.455   9.482  10.278  0.2777  0.0140  0.1977
  110loPI   C1A 1751  11.186   9.094  10.102 -0.0334  0.2208  0.1505
  110loPI   C2A 1752  11.255   9.056   9.687 -0.2106  0.0555  0.0554
  110loPI   C3A 1753  11.226   9.148   9.187  0.3139  0.1316  0.0024
  110loPI   C4A 1754  11.129   8.923   8.807  0.0026 -0.3858 -0.1282
  110loPI   C5A 1755  11.166   8.697   8.572  0.1049 -0.1823  0.2702
  110loPI   C6A 1756  10.879   8.759   8.216  0.0847  0.4298 -0.2332
  110loPI   C1B 1757  11.350   9.501   9.908  0.2842  0.1746 -0.0532
  110loPI   C2B 1758  11.233   9.564   9.489 -0.3356 -0.0686 -0.0637
  110loPI   C3B 1759  11.165   9.661   9.219 -0.2391 -0.1578  0.3033
  110loPI   C4B 1760  11.180   9.672   8.698  0.0472 -0.4560 -0.1942
  111loPI    C1 1761   6.922  12.720  10.904 -0.1105 -0.0352 -0.0348
  111loPI    C2 1762   7.155  12.600  11.206  0.0225  0.0768 -0.0919
  111loPI    C3 1763   6.873  12.877  11.269  0.0341  0.0828 -0.0653
  111loPI   PO4 1764   7.011  12.767  10.724 -0.0511 -0.2563  0.4870
  111loPI   GL1 1765   6.922  12.689  10.248 -0.3140  0.0644 -0.2713
  111loPI   GL2 1766   6.929  12.370  10.391  0.2018 -0.3788  0.1293
  111loPI   C1A 1767   6.902  12.463   9.857  0.2375 -0.2958 -0.0898
  111loPI   C2A 1768   7.020  12.489   9.433  0.1919  0.1938 -0.1612
  111loPI   C3A 1769   6.995  12.488   9.003 -0.1654 -0.1966  0.1774
  111loPI   C4A 1770   7.216  12.218   8.619 -0.0249 -0.0682 -0.1894
  111loPI   C5A 1771   7.579  12.043   8.594  0.1208 -0.0038  0.1132
  111loPI   C6A 1772   7.919  12.265   8.614  0.3387  0.1245  0.1648
  111loPI   C1B 1773   7.325  12.326  10.149 -0.1618  0.2495 -0.1783
  111loPI   C2B 1774   7.467  12.020   9.864  0.0323  0.0149  0.2557
  111loPI   C3B 1775   7.474  12.182   9.411 -0.0482 -0.3911  0.2354
  111loPI   C4B 1776   7.471  12.082   9.045  0.1742 -0.1600  0.1839
  112loPI    C1 1777  11.456   7.422  10.867 -0.3823 -0.1357  0.1389
  112loPI    C2 1778  11.679   7.105  10.968 -0.0982 -0.0614 -0.2328
  112loPI    C3 1779  11.426   7.264  11.234  0.1341 -0.2794  0.1281
  112loPI   PO4 1780  11.426   7.353  10.563 -0.2698 -0.4577 -0.1527
  112loPI   GL1 1781  11.625   7.426  10.152 -0.2318 -0.3004 -0.0504
  112loPI   GL2 1782  11.568   7.134  10.082  0.0582  0.2520 -0.0537
  112loPI   C1A 1783  11.745   7.690   9.764  0.2425  0.1449 -0.0462
  112loPI   C2A 1784  11.751   7.754   9.283 -0.1506  0.0675 -0.0063
  112loPI   C3A 1785  11.644   7.629   8.915  0.2958  0.0782 -0.0643
  112loPI   C4A 1786  11.619   7.353   8.630 -0.0355 -0.0084  0.1006
  112loPI   C5A 1787  11.626   7.072   8.339 -0.1667  0.2118 -0.0161
  112loPI   C6A 1788  11.539   6.693   8.245  0.1761  0.0501  0.2537
  112loPI   C1B 1789  11.746   7.115   9.674 -0.0626 -0.1608 -0.0582
  112loPI   C2B 1790  11.650   7.275   9.325  0.2650 -0.2165 -0.1102
  112loPI   C3B 1791  11.919   7.089   9.025 -0.1246  0.1377  0.1923
  112loPI   C4B 1792  12.012   6.921   8.605 -0.0760 -0.1972 -0.1052
  113loPI    C1 1793  11.176  15.957  10.577 -0.0073 -0.0284  0.1283
  113loPI    C2 1794  11.001  16.251  10.786  0.0894  0.0466  0.1043
  113loPI    C3 1795  11.075  15.898  10.960 -0.1421 -0.0069  0.0966
  113loPI   PO4 1796  11.059  15.929  10.321  0.0148 -0.0754  0.0159
  113loPI   GL1 1797  11.175  15.907   9.927 -0.0435 -0.1042  0.3379
  113loPI   GL2 1798  11.398  15.694   9.845 -0.4097 -0.2912  0.2779
  113loPI   C1A 1799  11.039  16.036   9.507 -0.1491  0.1637 -0.0939
  113loPI   C2A 1800  11.047  16.095   9.071 -0.1788 -0.1140 -0.1097
  113loPI   C3A 1801  11.111  15.969   8.686  0.0933 -0.3505 -0.0983
  113loPI   C4A 1802  10.955  15.883   8.257  0.2247  0.1960 -0.0985
  113loPI   C5A 1803  10.588  15.718   8.076 -0.0021  0.3093  0.0094
  113loPI   C6A 1804  10.535  15.291   7.975 -0.1144 -0.1245 -0.1187
  113loPI   C1B 1805  11.104  15.551   9.496 -0.0983  0.2301  0.1217
  113loPI   C2B 1806  11.146  15.576   9.040 -0.0828 -0.3163 -0.3563
  113loPI   C3B 1807  11.079  15.490   8.517 -0.0841  0.0037 -0.1010
  113loPI   C4B 1808  11.222  15.458   8.075  0.1914 -0.1704 -0.3425
  114loPI    C1 1809  12.335  14.601  10.696 -0.1122 -0.0849  0.0988
  114loPI    C2 1810  12.542  14.776  10.990  0.0447  0.2209 -0.1874
  114loPI    C3 1811  12.713  14.492  10.767 -0.1400 -0.1566  0.1389
  114loPI   PO4 1812  12.251  14.652  10.410 -0.2018  0.0768  0.0330
  114loPI   GL1 1813  11.997  14.461  10.042 -0.0550 -0.1898 -0.2458
  114loPI   GL2 1814  12.232  14.682   9.952  0.0801 -0.2572  0.2638
  114loPI   C1A 1815  11.984  14.439   9.617 -0.0412 -0.1742 -0.2033
  114loPI   C2A 1816  11.988  14.408   9.128  0.0791  0.1593 -0.0657
  114loPI   C3A 1817  12.037  14.234   8.712  0.0412  0.1809  0.0921
  114loPI   C4A 1818  12.091  14.282   8.346  0.2722  0.2937 -0.1559
  114loPI   C5A 1819  11.952  14.546   8.045 -0.1086  0.0731  0.2109
  114loPI   C6A 1820  11.601  14.868   7.889  0.1192 -0.1134 -0.3142
  114loPI   C1B 1821  12.293  14.871   9.607 -0.0906 -0.1472 -0.1026
  114loPI   C2B 1822  12.363  14.824   9.239  0.0054 -0.0774  0.0820
  114loPI   C3B 1823  12.399  14.671   8.832 -0.1132  0.0656  0.0673
  114loPI   C4B 1824  12.598  14.660   8.467 -0.0732 -0.3750  0.3159
  115loPI    C1 1825  17.720  13.034  11.019  0.0336  0.1344 -0.3052
  115loPI    C2 1826  17.848  13.213  11.352  0.2416 -0.1334 -0.2383
  115loPI    C3 1827  17.768  12.821  11.354  0.0186 -0.0905 -0.4438
  115loPI   PO4 1828  17.808  13.009  10.863 -0.0582  0.0038  0.2816
  115loPI   GL1 1829  17.598  13.187  10.330 -0.1011 -0.0129 -0.0694
  115loPI   GL2 1830  17.836  13.131  10.358 -0.2742 -0.1617  0.2497
  115loPI   C1A 1831  17.618  12.889   9.953 -0.0817  0.2305  0.1090
  115loPI   C2A 1832  17.831  12.867   9.447 -0.0166 -0.2271 -0.0505
  115loPI   C3A 1833  17.909  12.886   8.960  0.2670 -0.1054 -0.0904
  115loPI   C4A 1834  18.239  12.969   8.754  0.1594 -0.2478  0.1026
  115loPI   C5A 1835  18.481  13.384   8.797 -0.0480  0.1362 -0.2681
  115loPI   C6A 1836  18.539  13.854   8.742 -0.0867 -0.0078  0.0660
  115loPI   C1B 1837  17.855  13.326   9.916  0.4929 -0.1112  0.0201
  115loPI   C2B 1838  17.893  13.354   9.485 -0.0705 -0.1879 -0.3840
  115loPI   C3B 1839  18.016  13.468   9.054 -0.0681  0.0537 -0.1867
  115loPI   C4B 1840  17.941  13.481   8.605 -0.2761 -0.0383  0.2850
  116loPI    C1 1841  11.684  13.085  10.504  0.0133  0.0948 -0.0804
  116loPI    C2 1842  11.919  13.323  10.724  0.0485  0.0795 -0.1012
  116loPI    C3 1843  11.540  13.260  10.834  0.0929 -0.0020  0.0068
  116loPI   PO4 1844  11.775  13.140  10.226  0.1733  0.0056  0.0097
  116loPI   GL1 1845  11.973  13.140   9.853 -0.0924 -0.0050  0.2031
  116loPI   GL2 1846  12.140  13.268   9.707  0.0187 -0.2914  0.1918
  116loPI   C1A 1847  11.738  12.949   9.561 -0.1922 -0.1178  0.0582
  116loPI   C2A 1848  11.682  12.613   9.191 -0.1016 -0.1672  0.0563
  116loPI   C3A 1849  11.324  12.621   8.814  0.1237 -0.0352  0.1290
  116loPI   C4A 1850  11.346  12.563   8.433 -0.2913 -0.1516 -0.1597
  116loPI   C5A 1851  11.746  12.581   8.176  0.0591  0.2408  0.0980
  116loPI   C6A 1852  12.169  12.456   8.029  0.0950 -0.1920 -0.3436
  116loPI   C1B 1853  12.142  13.242   9.309 -0.1203  0.1547  0.0959
  116loPI   C2B 1854  12.195  13.249   8.840  0.0664  0.0459 -0.2724
  116loPI   C3B 1855  12.249  13.355   8.437  0.1416 -0.3973  0.1404
  116loPI   C4B 1856  12.691  13.427   8.274  0.1533 -0.1499  0.0242
  117loPI    C1 1857   3.330   9.841  10.660 -0.0356 -0.1919 -0.0892
  117loPI    C2 1858   3.151  10.197  10.695  0.1778 -0.0822 -0.0971
  117loPI    C3 1859   3.137   9.936  10.997 -0.1321 -0.1403 -0.1584
  117loPI   PO4 1860   3.303   9.749  10.444 -0.0551  0.0539 -0.0022
  117loPI   GL1 1861   3.288   9.866  10.029  0.3364  0.1557  0.3050
  117loPI   GL2 1862   3.320  10.152  10.018  0.0274  0.3933 -0.0501
  117loPI   C1A 1863   3.194   9.894   9.545  0.0664  0.2555 -0.0501
  117loPI   C2A 1864   3.248   9.750   9.205 -0.0143  0.1469  0.0709
  117loPI   C3A 1865   3.225   9.757   8.770 -0.2241 -0.4230  0.3104
  117loPI   C4A 1866   3.124  10.004   8.325 -0.1584 -0.2722 -0.1695
  117loPI   C5A 1867   2.794  10.394   8.238 -0.0714 -0.2666  0.0067
  117loPI   C6A 1868   2.829  10.898   8.225  0.1874 -0.0866  0.0851
  117loPI   C1B 1869   3.246  10.414   9.642 -0.3773  0.2994 -0.1831
  117loPI   C2B 1870   3.386  10.328   9.175  0.1369 -0.0421 -0.0090
  117loPI   C3B 1871   3.349  10.280   8.762  0.0733 -0.0770  0.0256
  117loPI   C4B 1872   3.599  10.377   8.379 -0.1236  0.0542  0.1355
  118loPI    C1 1873   5.198  10.380  10.755  0.0071  0.1864  0.0935
  118loPI    C2 1874   5.506  10.596  10.892  0.2357 -0.1496  0.1214
  118loPI    C3 1875   5.396  10.262  11.082 -0.1550 -0.0287  0.1159
  118loPI   PO4 1876   5.254  10.537  10.516 -0.0358 -0.1814  0.0382
  118loPI   GL1 1877   5.316  10.349  10.177 -0.1890 -0.0718  0.1594
  118loPI   GL2 1878   5.083  10.503   9.991  0.2174 -0.0417 -0.0467
  118loPI   C1A 1879   5.564  10.577   9.923  0.1614 -0.0938 -0.1441
  118loPI   C2A 1880   5.703  10.543   9.517  0.1755  0.2896 -0.0113
  118loPI   C3A 1881   5.757  10.533   9.099  0.1401  0.0058  0.1259
  118loPI   C4A 1882   5.770  10.578   8.640  0.1327  0.1672  0.4021
  118loPI   C5A 1883   5.558  10.536   8.188  0.1275 -0.0858  0.0042
  118loPI   C6A 1884   5.496  10.833   7.799  0.0918 -0.1607  0.1591
  118loPI   C1B 1885   5.233  10.337   9.553  0.0338 -0.0539  0.1861
  118loPI   C2B 1886   5.270  10.308   9.125  0.3167 -0.1241 -0.1142
  118loPI   C3B 1887   5.240  10.245   8.724  0.0821 -0.0139 -0.4061
  118loPI   C4B 1888   4.981  10.310   8.496  0.0176 -0.1424  0.7400
  119loPI    C1 1889   6.283  11.878  10.853 -0.1920  0.1791  0.1223
  119loPI    C2 1890   6.576  11.935  11.119 -0.0871  0.2355 -0.0039
  119loPI    C3 1891   6.265  11.700  11.211  0.2293 -0.2107 -0.0408
  119loPI   PO4 1892   6.403  11.937  10.641 -0.1480  0.2728 -0.1313
  119loPI   GL1 1893   6.248  12.129  10.285  0.0923  0.0398 -0.0034
  119loPI   GL2 1894   6.486  12.297  10.254  0.0832 -0.1790  0.1280
  119loPI   C1A 1895   6.111  11.920   9.855  0.0289 -0.0330 -0.3027
  119loPI   C2A 1896   6.062  11.925   9.481 -0.0016  0.4026  0.0964
  119loPI   C3A 1897   6.086  11.969   9.039  0.0075 -0.0594  0.3162
  119loPI   C4A 1898   6.212  12.174   8.577 -0.3525 -0.0075 -0.0930
  119loPI   C5A 1899   6.464  12.093   8.156 -0.1695  0.2961  0.0723
  119loPI   C6A 1900   6.620  12.361   7.777 -0.2076 -0.0419  0.3232
  119loPI   C1B 1901   6.499  12.173   9.816 -0.0776 -0.2376  0.0258
  119loPI   C2B 1902   6.565  12.200   9.394  0.0931  0.1451  0.2860
  119loPI   C3B 1903   6.557  12.196   8.995  0.5620 -0.0939  0.0479
  119loPI   C4B 1904   6.668  12.322   8.577  0.2759  0.1810  0.0206
  120loPI    C1 1905  11.309   3.593  10.458 -0.0418 -0.1534 -0.0754
  120loPI    C2 1906  11.157   3.255  10.607 -0.0223 -0.0080  0.2857
  120loPI    C3 1907  11.228   3.565  10.849  0.0057  0.2393 -0.0332
  120loPI   PO4 1908  11.320   3.486  10.153  0.0422 -0.0021  0.1417
  120loPI   GL1 1909  11.558   3.489   9.899  0.1133 -0.0099 -0.3605
  120loPI   GL2 1910  11.717   3.162   9.938  0.1893 -0.1240  0.0220
  120loPI   C1A 1911  11.618   3.376   9.438  0.0751  0.2890  0.0859
  120loPI   C2A 1912  11.673   3.455   8.967 -0.1327  0.0163  0.3451
  120loPI   C3A 1913  11.783   3.386   8.591  0.0142  0.0157 -0.1491
  120loPI   C4A 1914  11.935   3.497   8.191  0.1456  0.0742  0.1114
  120loPI   C5A 1915  12.328   3.442   7.932  0.3949 -0.0559 -0.0175
  120loPI   C6A 1916  12.649   3.144   7.765 -0.1697 -0.0970  0.2217
  120loPI   C1B 1917  11.472   2.877   9.582  0.0120  0.2026  0.1981
  120loPI   C2B 1918  11.430   2.951   9.143 -0.0908 -0.2069  0.0536
  120loPI   C3B 1919  11.500   2.903   8.673  0.0681 -0.0601  0.0337
  120loPI   C4B 1920  11.581   2.992   8.248  0.1244  0.0709 -0.0738
  121loPI    C1 1921  10.981  10.102  10.956 -0.0043 -0.1539  0.1478
  121loPI    C2 1922  10.688  10.374  10.944  0.1449  0.0006 -0.0795
  121loPI    C3 1923  10.981  10.406  11.215  0.2556  0.1669 -0.2167
  121loPI   PO4 1924  10.913   9.979  10.694  0.3315  0.0294 -0.1835
  121loPI   GL1 1925  10.899  10.041  10.259  0.2373  0.3541 -0.0873
  121loPI   GL2 1926  11.187   9.973  10.194 -0.0419  0.1679  0.0936
  121loPI   C1A 1927  10.690  10.206   9.942  0.0366  0.1701 -0.1480
  121loPI   C2A 1928  10.668  10.143   9.553  0.2802 -0.2495  0.1067
  121loPI   C3A 1929  10.686   9.968   9.203  0.1568 -0.0141  0.0769
  121loPI   C4A 1930  10.725   9.905   8.901  0.1451  0.0816 -0.2742
  121loPI   C5A 1931  10.761   9.935   8.492 -0.1593  0.0117  0.0712
  121loPI   C6A 1932  10.847  10.181   8.164 -0.0613 -0.0705  0.0161
  121loPI   C1B 1933  11.114   9.966   9.792  0.0891 -0.1385  0.1321
  121loPI   C2B 1934  11.128  10.089   9.467 -0.0259 -0.1429 -0.0200
  121loPI   C3B 1935  11.185  10.129   8.955  0.0843  0.0882  0.0274
  121loPI   C4B 1936  11.192  10.220   8.543 -0.2457  0.2906  0.0482
  122loPI    C1 1937  14.166   7.588  10.671 -0.0272  0.2284 -0.1694
  122loPI    C2 1938  13.956   7.837  10.903 -0.3204  0.1122 -0.3046
  122loPI    C3 1939  14.171   7.543  11.068 -0.1191  0.3390 -0.1552
  122loPI   PO4 1940  14.104   7.733  10.460 -0.1053 -0.0782 -0.0404
  122loPI   GL1 1941  14.152   7.814  10.113  0.2006 -0.0564  0.2014
  122loPI   GL2 1942  14.226   8.156  10.169 -0.0256  0.2262 -0.2814
  122loPI   C1A 1943  14.047   7.617   9.741  0.1411 -0.0193 -0.0775
  122loPI   C2A 1944  14.117   7.588   9.248  0.2104  0.0400 -0.2390
  122loPI   C3A 1945  14.033   7.517   8.920 -0.1730 -0.2262 -0.0070
  122loPI   C4A 1946  13.964   7.564   8.459 -0.0671  0.2631 -0.1155
  122loPI   C5A 1947  13.727   7.398   8.067  0.1851  0.1846 -0.3388
  122loPI   C6A 1948  13.468   7.192   7.753  0.0175  0.1235 -0.2948
  122loPI   C1B 1949  14.501   8.041   9.784 -0.1966 -0.1733 -0.1868
  122loPI   C2B 1950  14.473   7.800   9.489 -0.0824 -0.0392  0.1389
  122loPI   C3B 1951  14.419   7.936   9.046  0.2831  0.1798  0.2325
  122loPI   C4B 1952  14.410   7.764   8.705 -0.0243  0.1095  0.2223
  123loPI    C1 1953   1.005  17.111  11.618 -0.0593  0.0211  0.1320
  123loPI    C2 1954   0.805  16.977  11.937 -0.1202 -0.0339  0.0709
  123loPI    C3 1955   0.898  17.364  11.909 -0.0862 -0.0346  0.1707
  123loPI   PO4 1956   0.789  17.010  11.269 -0.1333  0.1412 -0.4047
  123loPI   GL1 1957   0.689  17.307  10.868  0.1834 -0.6397  0.0328
  123loPI   GL2 1958   0.949  17.586  10.716  0.0742  0.2642 -0.0561
  123loPI   C1A 1959   0.745  17.113  10.510  0.1742  0.1693  0.1021
  123loPI   C2A 1960   1.091  17.105  10.241  0.2258 -0.0389 -0.1097
  123loPI   C3A 1961   1.021  16.976   9.842  0.3737 -0.1746 -0.3512
  123loPI   C4A 1962   1.042  16.945   9.459 -0.1950 -0.0267 -0.0507
  123loPI   C5A 1963   1.146  16.779   9.091  0.2052  0.0484 -0.0547
  123loPI   C6A 1964   1.148  16.425   8.798  0.3649 -0.0538 -0.1844
  123loPI   C1B 1965   0.913  17.614  10.292 -0.1779 -0.1725 -0.3326
  123loPI   C2B 1966   0.957  17.548   9.850  0.1456 -0.4032 -0.1135
  123loPI   C3B 1967   1.016  17.459   9.388  0.2048 -0.1338 -0.1566
  123loPI   C4B 1968   0.855  17.178   8.955 -0.1828  0.1802 -0.0350
  124loPI    C1 1969   9.496   3.404  10.226 -0.0974  0.2231  0.1000
  124loPI    C2 1970   9.766   3.210  10.003 -0.3236  0.1018 -0.0724
  124loPI    C3 1971   9.881   3.512  10.238 -0.0391  0.0524 -0.1444
  124loPI   PO4 1972   9.274   3.265  10.101 -0.0865 -0.0716 -0.2584
  124loPI   GL1 1973   9.352   3.214   9.639 -0.0655  0.3754  0.0230
  124loPI   GL2 1974   9.434   2.941   9.715 -0.0237  0.2496  0.0025
  124loPI   C1A 1975   9.406   3.227   9.215 -0.0749  0.2035  0.0026
  124loPI   C2A 1976   9.497   3.237   8.778  0.0965  0.2600 -0.0760
  124loPI   C3A 1977   9.657   3.259   8.439 -0.0160  0.0801  0.0973
  124loPI   C4A 1978  10.050   3.291   8.057 -0.2070  0.2092 -0.0541
  124loPI   C5A 1979  10.225   3.314   7.637  0.3090 -0.3634 -0.0955
  124loPI   C6A 1980  10.510   3.143   7.323  0.0637 -0.0180  0.1757
  124loPI   C1B 1981   9.834   3.070   9.495 -0.0036  0.1354 -0.0384
  124loPI   C2B 1982   9.871   2.957   9.075 -0.1681  0.1864 -0.0991
  124loPI   C3B 1983  10.004   3.034   8.702  0.0781  0.1253  0.1508
  124loPI   C4B 1984  10.109   2.912   8.376  0.1987 -0.0550  0.0107
  125loPI    C1 1985   1.240   5.486  10.637 -0.0345 -0.0243  0.0416
  125loPI    C2 1986   1.333   5.100  10.680  0.1223 -0.0416 -0.4046
  125loPI    C3 1987   1.587   5.382  10.805 -0.0778 -0.0748  0.1001
  125loPI   PO4 1988   1.198   5.521  10.424  0.2950 -0.2061  0.2703
  125loPI   GL1 1989   1.143   5.316   9.950 -0.2155  0.2305  0.0093
  125loPI   GL2 1990   1.357   4.987  10.063 -0.2815  0.0276 -0.0193
  125loPI   C1A 1991   1.446   5.447   9.712  0.0336  0.1229 -0.0771
  125loPI   C2A 1992   1.468   5.430   9.313 -0.1910 -0.2526 -0.0727
  125loPI   C3A 1993   1.322   5.573   8.988  0.0823  0.0656  0.1637
  125loPI   C4A 1994   1.440   5.588   8.539  0.4444  0.0992  0.0704
  125loPI   C5A 1995   1.571   5.399   8.212 -0.5150  0.0470  0.0999
  125loPI   C6A 1996   1.715   5.150   7.870 -0.0823  0.3068  0.0611
  125loPI   C1B 1997   1.288   4.803   9.744  0.0593 -0.0810 -0.0858
  125loPI   C2B 1998   1.381   4.633   9.437 -0.1264 -0.0346 -0.0314
  125loPI   C3B 1999   1.431   4.540   8.987 -0.0012  0.0096 -0.3981
  125loPI   C4B 2000   1.414   4.567   8.552  0.0582 -0.2541 -0.0827
  126loPI    C1 2001   2.069   7.622  10.476 -0.0667  0.0842  0.0638
  126loPI    C2 2002   2.179   7.338  10.735 -0.2177 -0.1724 -0.1480
  126loPI    C3 2003   2.081   7.702  10.867  0.0630 -0.1900  0.1185
  126loPI   PO4 2004   1.863   7.465  10.328 -0.0927  0.2013 -0.1291
  126loPI   GL1 2005   1.850   7.384   9.936 -0.3614  0.1172 -0.2791
  126loPI   GL2 2006   1.891   7.647   9.871  0.0610 -0.0891 -0.0218
  126loPI   C1A 2007   1.811   7.256   9.542  0.0520 -0.3191  0.0519
  126loPI   C2A 2008   1.786   7.350   9.070  0.2153 -0.2016  0.2766
  126loPI   C3A 2009   1.676   7.286   8.580  0.3106 -0.0261  0.1915
  126loPI   C4A 2010   1.699   7.242   8.149  0.0337 -0.3267  0.1383
  126loPI   C5A 2011   2.015   6.976   7.899 -0.0125  0.0899 -0.0768
  126loPI   C6A 2012   2.171   6.521   8.096 -0.1468  0.0762  0.2974
  126loPI   C1B 2013   1.978   7.699   9.420  0.1545  0.1661 -0.1629
  126loPI   C2B 2014   1.950   7.799   8.995  0.0214  0.1331  0.0531
  126loPI   C3B 2015   1.911   7.735   8.577 -0.2327  0.1530  0.0151
  126loPI   C4B 2016   1.688   7.718   8.153  0.0502 -0.0352 -0.0197
  127loPI    C1 2017   2.910  13.547  10.900  0.1431  0.0629  0.1042
  127loPI    C2 2018   2.762  13.357  11.219 -0.1157  0.1326  0.0280
  127loPI    C3 2019   2.670  13.741  11.154 -0.0074  0.1389 -0.0931
  127loPI   PO4 2020   3.109  13.418  10.784  0.1663 -0.2318 -0.3525
  127loPI   GL1 2021   3.295  13.246  10.452  0.0765 -0.0996  0.1125
  127loPI   GL2 2022   3.371  13.536  10.234 -0.2606 -0.0681  0.0341
  127loPI   C1A 2023   3.099  13.237  10.006 -0.0911  0.3445 -0.1973
  127loPI   C2A 2024   3.080  13.255   9.610  0.2287 -0.0607  0.3026
  127loPI   C3A 2025   2.945  13.402   9.242  0.0402  0.0238  0.1535
  127loPI   C4A 2026   2.845  13.409   8.796  0.2702 -0.0206 -0.2262
  127loPI   C5A 2027   2.659  13.375   8.385 -0.1401  0.1376 -0.1508
  127loPI   C6A 2028   2.285  13.289   8.191  0.0850 -0.3971 -0.1598
  127loPI   C1B 2029   3.377  13.633   9.852 -0.0332 -0.0481  0.2336
  127loPI   C2B 2030   3.389  13.676   9.458  0.0136  0.1563  0.3333
  127loPI   C3B 2031   3.267  13.719   8.952  0.1389 -0.0609 -0.0453
  127loPI   C4B 2032   3.122  13.703   8.549 -0.1160  0.0173 -0.1308
  128loPI    C1 2033   3.735  17.384  11.352  0.1212 -0.0309 -0.2276
  128loPI    C2 2034   4.089  17.199  11.354 -0.0001 -0.2659 -0.0943
  128loPI    C3 2035   3.770  17.022  11.518 -0.0845  0.1333  0.1887
  128loPI   PO4 2036   3.705  17.508  11.117 -0.1641 -0.0802 -0.0796
  128loPI   GL1 2037   3.595  17.354  10.714 -0.1116  0.1728  0.2662
  128loPI   GL2 2038   3.648  17.641  10.551  0.2635  0.0211 -0.1194
  128loPI   C1A 2039   3.767  16.970  10.336 -0.0162 -0.4213 -0.3620
  128loPI   C2A 2040   3.952  16.919   9.857 -0.1160  0.4518  0.5930
  128loPI   C3A 2041   3.742  16.966   9.516  0.2991 -0.2648  0.1372
  128loPI   C4A 2042   3.710  17.017   9.151 -0.1084 -0.0627  0.0560
  128loPI   C5A 2043   3.869  17.040   8.759 -0.3013  0.0302 -0.1990
  128loPI   C6A 2044   4.234  17.309   8.677 -0.2219 -0.1076  0.5246
  128loPI   C1B 2045   3.898  17.564  10.250  0.1473 -0.1194  0.1606
  128loPI   C2B 2046   3.852  17.469   9.774 -0.0284  0.1778  0.0190
  128loPI   C3B 2047   3.763  17.519   9.329  0.1982  0.0514  0.0488
  128loPI   C4B 2048   3.727  17.511   8.940 -0.0641 -0.1730  0.0981
  129loPI    C1 2049   2.966   1.331  11.429 -0.1487  0.1359 -0.0822
  129loPI    C2 2050   2.681   1.117  11.610  0.1262  0.0404  0.2471
  129loPI    C3 2051   3.048   1.135  11.768  0.3050  0.1624 -0.1708
  129loPI   PO4 2052   2.935   1.289  11.093  0.0419  0.2507  0.1757
  129loPI   GL1 2053   2.877   0.958  10.841 -0.0608 -0.2141 -0.1243
  129loPI   GL2 2054   3.028   1.316  10.606 -0.2190  0.1581 -0.1939
  129loPI   C1A 2055   2.850   0.786  10.473 -0.0739  0.0053  0.3312
  129loPI   C2A 2056   2.773   0.740  10.063  0.0897 -0.1602 -0.3393
  129loPI   C3A 2057   2.766   0.669   9.564  0.2005 -0.1533  0.1284
  129loPI   C4A 2058   2.726   0.652   9.082 -0.1995  0.1241 -0.1460
  129loPI   C5A 2059   2.842   0.748   8.658  0.1389 -0.0033 -0.0559
  129loPI   C6A 2060   3.031   0.893   8.273  0.2682  0.0585  0.1921
  129loPI   C1B 2061   2.939   1.364  10.237  0.3843 -0.1828  0.0337
  129loPI   C2B 2062   2.870   1.272   9.805 -0.0317  0.1141 -0.0222
  129loPI   C3B 2063   2.820   1.203   9.361 -0.0472 -0.1937 -0.0647
  129loPI   C4B 2064   2.593   1.129   8.929 -0.1442 -0.1815 -0.0045
  130loPI    C1 2065  14.000  10.918  10.604  0.0673 -0.2589  0.0762
  130loPI    C2 2066  13.970  10.926  11.003 -0.0497  0.1440  0.0637
  130loPI    C3 2067  13.949  11.267  10.794  0.2419 -0.0374 -0.2722
  130loPI   PO4 2068  14.186  10.844  10.520  0.4110  0.2225 -0.1556
  130loPI   GL1 2069  14.386  10.948  10.079  0.1324 -0.1648 -0.0114
  130loPI   GL2 2070  14.164  11.151  10.009  0.0161  0.1409  0.0876
  130loPI   C1A 2071  14.550  10.952   9.693 -0.0626 -0.3795  0.1828
  130loPI   C2A 2072  14.615  11.000   9.265  0.0312 -0.0877 -0.0558
  130loPI   C3A 2073  14.637  11.012   8.869  0.0675 -0.0402  0.1895
  130loPI   C4A 2074  14.539  10.902   8.444  0.1884  0.0499  0.3006
  130loPI   C5A 2075  14.141  10.849   8.108  0.2136 -0.0497  0.1823
  130loPI   C6A 2076  13.699  10.741   8.083 -0.0844 -0.0150 -0.0690
  130loPI   C1B 2077  13.956  11.226   9.533 -0.0572  0.0752  0.0591
  130loPI   C2B 2078  14.080  11.240   9.032  0.1847  0.1008 -0.2339
  130loPI   C3B 2079  14.240  11.215   8.612 -0.3218 -0.3329 -0.0324
  130loPI   C4B 2080  14.252  11.294   8.193 -0.1292  0.0501 -0.0272
  131loPI    C1 2081   2.207  13.693  10.999 -0.0140 -0.1376 -0.0185
  131loPI    C2 2082   2.107  13.542  11.356  0.2295  0.0545  0.1346
  131loPI    C3 2083   2.162  13.936  11.314  0.0624  0.0504 -0.1506
  131loPI   PO4 2084   2.115  13.524  10.819  0.1677 -0.0069 -0.0977
  131loPI   GL1 2085   2.004  13.446  10.467 -0.2868  0.0725 -0.0273
  131loPI   GL2 2086   2.313  13.377  10.359  0.5781 -0.0140 -0.1533
  131loPI   C1A 2087   1.874  13.772  10.158  0.0524 -0.3001  0.0605
  131loPI   C2A 2088   1.872  13.828   9.725 -0.0161  0.0252 -0.0165
  131loPI   C3A 2089   1.940  13.893   9.315 -0.4489  0.0158 -0.2847
  131loPI   C4A 2090   1.945  13.988   8.930 -0.0290 -0.1844 -0.0397
  131loPI   C5A 2091   1.887  14.190   8.483  0.1185 -0.4172  0.1909
  131loPI   C6A 2092   1.821  14.415   8.243  0.0433  0.0473  0.3792
  131loPI   C1B 2093   2.280  13.558   9.908 -0.3208 -0.0605 -0.0409
  131loPI   C2B 2094   2.333  13.637   9.407 -0.0755 -0.0563  0.0377
  131loPI   C3B 2095   2.362  13.629   8.992  0.1107 -0.0119  0.0748
  131loPI   C4B 2096   2.402  13.752   8.481 -0.2472  0.1034 -0.1698
  132loPI    C1 2097  10.243  16.359  11.011  0.0014  0.0003  0.0847
  132loPI    C2 2098  10.140  16.065  10.761 -0.0469  0.1472 -0.0698
  132loPI    C3 2099   9.886  16.182  11.047 -0.0122  0.0136  0.0163
  132loPI   PO4 2100  10.501  16.402  10.818  0.2046 -0.0478  0.2339
  132loPI   GL1 2101  10.716  16.593  10.487  0.0157 -0.2612 -0.3455
  132loPI   GL2 2102  11.019  16.463  10.214 -0.0177  0.0387 -0.0776
  132loPI   C1A 2103  10.599  16.626  10.007  0.2719  0.2052 -0.0019
  132loPI   C2A 2104  10.415  16.789   9.626  0.0100 -0.3671 -0.4602
  132loPI   C3A 2105  10.388  16.836   9.233 -0.0901 -0.2641  0.0370
  132loPI   C4A 2106  10.469  16.736   8.829  0.0589 -0.1819  0.0884
  132loPI   C5A 2107  10.617  16.795   8.409  0.0312 -0.2313 -0.2752
  132loPI   C6A 2108  10.355  16.722   7.994 -0.2592 -0.1700  0.0139
  132loPI   C1B 2109  11.011  16.449   9.778 -0.2212 -0.0813  0.0610
  132loPI   C2B 2110  11.157  16.537   9.293 -0.0314 -0.0996  0.1729
  132loPI   C3B 2111  11.405  16.451   8.873 -0.0881  0.3608  0.3386
  132loPI   C4B 2112  11.470  16.692   8.565 -0.0496  0.3091  0.0370
  133loPI    C1 2113   0.796  13.807  11.185  0.2928  0.2106  0.0824
  133loPI    C2 2114   0.753  13.594  11.520  0.0462  0.1899  0.0395
  133loPI    C3 2115   0.664  13.983  11.519 -0.0724  0.1628 -0.0333
  133loPI   PO4 2116   0.656  13.664  11.019 -0.0422 -0.1180 -0.1211
  133loPI   GL1 2117   0.708  13.330  10.650  0.0147 -0.3225  0.0099
  133loPI   GL2 2118   0.405  13.165  10.580 -0.0610  0.0303 -0.1205
  133loPI   C1A 2119   0.899  13.542  10.268 -0.2140 -0.1811  0.0365
  133loPI   C2A 2120   0.955  13.639   9.906  0.0398 -0.0150 -0.1624
  133loPI   C3A 2121   0.944  13.853   9.509  0.1584 -0.4663  0.0272
  133loPI   C4A 2122   1.017  13.941   9.073  0.1872 -0.0599 -0.0797
  133loPI   C5A 2123   1.118  14.006   8.634 -0.0819  0.0403  0.1065
  133loPI   C6A 2124   1.414  14.060   8.292  0.1583  0.2222 -0.2478
  133loPI   C1B 2125   0.440  13.378  10.239  0.2471 -0.2032 -0.1516
  133loPI   C2B 2126   0.464  13.463   9.856  0.1534  0.2220 -0.2680
  133loPI   C3B 2127   0.464  13.585   9.580 -0.3084 -0.3413  0.0906
  133loPI   C4B 2128   0.533  13.735   9.189 -0.1438 -0.1294 -0.2033
  134loPI    C1 2129   7.482   9.303  10.879  0.1126 -0.1412 -0.2126
  134loPI    C2 2130   7.629   9.392  11.240  0.0130  0.1522 -0.2418
  134loPI    C3 2131   7.290   9.182  11.209 -0.0279  0.2058 -0.1625
  134loPI   PO4 2132   7.668   9.258  10.767 -0.0751 -0.0432 -0.2053
  134loPI   GL1 2133   7.789   9.355  10.390 -0.0788 -0.0341  0.0958
  134loPI   GL2 2134   7.473   9.452  10.329 -0.0600 -0.0910  0.3454
  134loPI   C1A 2135   7.961   9.253  10.050 -0.0449  0.2124  0.0709
  134loPI   C2A 2136   7.938   9.176   9.624  0.1266  0.0392  0.0926
  134loPI   C3A 2137   8.079   9.178   9.187 -0.1717 -0.4491 -0.1760
  134loPI   C4A 2138   8.030   9.275   8.764  0.0136 -0.1539  0.1926
  134loPI   C5A 2139   7.794   9.454   8.409  0.0580 -0.5861  0.0207
  134loPI   C6A 2140   7.460   9.697   8.382  0.0380  0.1990 -0.0354
  134loPI   C1B 2141   7.536   9.498   9.931  0.1553  0.2468 -0.1012
  134loPI   C2B 2142   7.504   9.403   9.516  0.0962 -0.1709 -0.2004
  134loPI   C3B 2143   7.594   9.469   9.220 -0.1313 -0.0878  0.1104
  134loPI   C4B 2144   7.489   9.380   8.765 -0.4642 -0.1809  0.1539
  135loPI    C1 2145   7.702  13.872  10.695 -0.1144  0.1214 -0.2065
  135loPI    C2 2146   7.375  13.982  10.897  0.0249  0.0223  0.0785
  135loPI    C3 2147   7.736  14.017  11.067  0.1666  0.1539 -0.2424
  135loPI   PO4 2148   7.609  13.827  10.475  0.0388  0.1775 -0.2758
  135loPI   GL1 2149   7.428  13.952  10.195 -0.0158  0.3142  0.2322
  135loPI   GL2 2150   7.520  14.205   9.993 -0.0383  0.2158  0.0774
  135loPI   C1A 2151   7.455  13.760   9.721 -0.3181 -0.2995  0.1042
  135loPI   C2A 2152   7.516  13.542   9.271 -0.1262 -0.1018  0.0614
  135loPI   C3A 2153   7.350  13.528   8.833 -0.1780  0.2900  0.3037
  135loPI   C4A 2154   7.274  13.590   8.393  0.1162 -0.1350 -0.0178
  135loPI   C5A 2155   7.206  13.461   8.016 -0.1197 -0.3104  0.0516
  135loPI   C6A 2156   7.265  13.660   7.669  0.1789 -0.2645 -0.0831
  135loPI   C1B 2157   7.492  14.345   9.577  0.0654 -0.0726 -0.2108
  135loPI   C2B 2158   7.527  14.421   9.137  0.4043 -0.1861 -0.2378
  135loPI   C3B 2159   7.453  14.471   8.747 -0.2138 -0.1323 -0.4630
  135loPI   C4B 2160   7.335  14.661   8.339 -0.2653  0.1891 -0.1805
  136loPI    C1 2161   3.374   1.094  11.288  0.2325 -0.0203 -0.0768
  136loPI    C2 2162   3.400   0.853  11.606 -0.0714  0.0956  0.0396
  136loPI    C3 2163   3.526   1.232  11.632 -0.0221  0.0823 -0.0036
  136loPI   PO4 2164   3.383   0.902  11.059 -0.1786 -0.0413  0.2645
  136loPI   GL1 2165   3.323   0.828  10.650  0.1249  0.2383 -0.0982
  136loPI   GL2 2166   3.516   0.937  10.441 -0.1381  0.0927  0.0445
  136loPI   C1A 2167   3.307   0.560  10.205 -0.1712  0.1171 -0.2552
  136loPI   C2A 2168   3.334   0.343   9.936  0.0260 -0.0374  0.0332
  136loPI   C3A 2169   3.240   0.397   9.532 -0.0524  0.1988 -0.3794
  136loPI   C4A 2170   3.160   0.361   9.105 -0.1304 -0.2137 -0.3339
  136loPI   C5A 2171   3.262   0.335   8.705 -0.4810 -0.1081  0.2971
  136loPI   C6A 2172   3.048   0.369   8.356  0.1582 -0.0868 -0.1787
  136loPI   C1B 2173   3.350   0.977   9.994 -0.2029  0.0805  0.0728
  136loPI   C2B 2174   3.249   0.918   9.653 -0.2965  0.0472  0.2801
  136loPI   C3B 2175   3.249   0.863   9.266 -0.4397  0.2401 -0.0166
  136loPI   C4B 2176   3.285   0.857   8.892  0.2810 -0.0053  0.0571
  137loPI    C1 2177   6.247   2.709  10.800  0.2542  0.0233  0.1216
  137loPI    C2 2178   6.600   2.847  10.670  0.2342  0.2370  0.2890
  137loPI    C3 2179   6.460   2.960  11.027  0.0132  0.1229  0.2402
  137loPI   PO4 2180   6.125   2.630  10.570 -0.0993 -0.0981 -0.0545
  137loPI   GL1 2181   5.892   2.653  10.104  0.0866  0.2104  0.1803
  137loPI   GL2 2182   6.078   2.425  10.045 -0.0527  0.0671 -0.3341
  137loPI   C1A 2183   5.629   2.757   9.651  0.0634 -0.2410  0.0077
  137loPI   C2A 2184   5.515   2.831   9.230  0.2094 -0.1364 -0.2507
  137loPI   C3A 2185   5.525   2.885   8.812 -0.1421 -0.0321 -0.4420
  137loPI   C4A 2186   5.389   2.904   8.395 -0.2294 -0.1927 -0.0924
  137loPI   C5A 2187   5.633   2.766   8.114  0.0704 -0.2063  0.2204
  137loPI   C6A 2188   6.081   2.599   8.155 -0.2793 -0.1849 -0.0175
  137loPI   C1B 2189   6.041   2.441   9.649 -0.0094  0.0584 -0.3150
  137loPI   C2B 2190   6.026   2.709   9.373  0.0840  0.0806  0.0425
  137loPI   C3B 2191   6.081   2.598   8.999 -0.2743 -0.0718  0.1073
  137loPI   C4B 2192   5.884   2.616   8.595 -0.3147  0.3280  0.2857
  138loPI    C1 2193   3.982  10.551  10.855  0.1594  0.0973 -0.1549
  138loPI    C2 2194   4.173  10.248  11.034  0.0222 -0.0089 -0.1872
  138loPI    C3 2195   3.915  10.473  11.242  0.3385  0.2700 -0.0867
  138loPI   PO4 2196   3.977  10.507  10.595  0.0325 -0.0556 -0.1931
  138loPI   GL1 2197   4.214  10.679  10.266  0.1124 -0.3550 -0.1731
  138loPI   GL2 2198   4.039  10.362  10.122 -0.0682 -0.2500 -0.0293
  138loPI   C1A 2199   4.192  10.866   9.848  0.0900 -0.0208  0.0087
  138loPI   C2A 2200   4.315  10.874   9.377  0.0270 -0.0034 -0.0766
  138loPI   C3A 2201   4.243  10.921   8.926 -0.1447 -0.1106 -0.1981
  138loPI   C4A 2202   4.167  10.882   8.589  0.2628  0.2050 -0.1072
  138loPI   C5A 2203   4.092  11.032   8.175  0.0773  0.0375 -0.1514
  138loPI   C6A 2204   4.038  11.296   7.908 -0.0896  0.1252  0.0598
  138loPI   C1B 2205   4.242  10.350   9.753 -0.2178 -0.1276 -0.0199
  138loPI   C2B 2206   4.239  10.305   9.268 -0.0847  0.1046 -0.0159
  138loPI   C3B 2207   4.306  10.407   8.902  0.2620 -0.3764 -0.3411
  138loPI   C4B 2208   4.006  10.252   8.579  0.0456  0.0280 -0.0878
  139loPI    C1 2209   6.149   7.981  10.829  0.0897  0.0644  0.0689
  139loPI    C2 2210   6.338   8.220  11.089 -0.0598  0.1650  0.0868
  139loPI    C3 2211   6.105   7.923  11.222 -0.1250  0.2076  0.0680
  139loPI   PO4 2212   6.012   8.112  10.572 -0.0194  0.0395  0.1323
  139loPI   GL1 2213   6.120   7.972  10.197 -0.0316  0.1606 -0.0288
  139loPI   GL2 2214   6.155   7.719  10.024  0.0704  0.2674  0.0926
  139loPI   C1A 2215   6.105   8.254   9.843  0.0653  0.1300  0.2769
  139loPI   C2A 2216   6.145   8.293   9.371  0.0391 -0.0110 -0.0843
  139loPI   C3A 2217   6.208   8.323   8.924  0.1197  0.1628  0.0774
  139loPI   C4A 2218   6.289   8.209   8.484  0.2070 -0.1578 -0.0297
  139loPI   C5A 2219   6.335   8.027   8.175  0.2327  0.2199 -0.1574
  139loPI   C6A 2220   6.601   7.905   7.751 -0.1143  0.2870 -0.1134
  139loPI   C1B 2221   6.106   7.812   9.604 -0.1601  0.1160  0.0035
  139loPI   C2B 2222   6.134   7.782   9.137 -0.2965  0.1359  0.0063
  139loPI   C3B 2223   6.214   7.760   8.752  0.2116 -0.3612 -0.1499
  139loPI   C4B 2224   6.243   7.559   8.316 -0.0643 -0.2568  0.1735
  140loPI    C1 2225  12.268   6.071  10.657 -0.1638 -0.0375  0.1953
  140loPI    C2 2226  12.602   6.248  10.791 -0.0274 -0.1486  0.0063
  140loPI    C3 2227  12.244   6.367  10.925  0.0810  0.0540  0.1188
  140loPI   PO4 2228  12.349   6.075  10.395  0.1538  0.0467 -0.2074
  140loPI   GL1 2229  12.602   6.247  10.166 -0.1961 -0.3162  0.0618
  140loPI   GL2 2230  12.968   6.177  10.062 -0.4018 -0.3265  0.0383
  140loPI   C1A 2231  12.578   6.611   9.774 -0.1738 -0.0647  0.0337
  140loPI   C2A 2232  12.750   6.769   9.492  0.1819 -0.1284  0.0730
  140loPI   C3A 2233  12.846   6.793   8.965  0.2464  0.0646  0.0165
  140loPI   C4A 2234  12.889   6.403   8.662 -0.0783 -0.0961  0.0129
  140loPI   C5A 2235  12.655   6.156   8.444  0.3225  0.3077 -0.0503
  140loPI   C6A 2236  12.259   6.017   8.406  0.1594 -0.3263 -0.0332
  140loPI   C1B 2237  13.071   6.187   9.668  0.2973  0.0668  0.0554
  140loPI   C2B 2238  13.264   5.912   9.428  0.1483  0.1144  0.0908
  140loPI   C3B 2239  13.475   5.927   9.133 -0.0806  0.0916  0.0350
  140loPI   C4B 2240  13.627   5.776   8.699 -0.0967  0.0781 -0.2906
  141loPI    C1 2241  10.192  13.189  10.651 -0.0171 -0.1995  0.0694
  141loPI    C2 2242  10.346  13.458  10.904 -0.0293 -0.1889  0.0655
  141loPI    C3 2243  10.557  13.133  10.805  0.0553 -0.0958 -0.0625
  141loPI   PO4 2244  10.193  13.256  10.400 -0.1308  0.0147 -0.2485
  141loPI   GL1 2245  10.254  13.062   9.974 -0.0472 -0.1399  0.0518
  141loPI   GL2 2246  10.360  13.358   9.903  0.1292  0.0040 -0.0555
  141loPI   C1A 2247   9.944  12.987   9.686  0.3261  0.1154 -0.0800
  141loPI   C2A 2248   9.857  12.952   9.227  0.2092 -0.1652 -0.0929
  141loPI   C3A 2249   9.821  12.717   8.944  0.2571 -0.0112  0.1078
  141loPI   C4A 2250   9.575  12.265   8.963  0.1770  0.0208 -0.1043
  141loPI   C5A 2251   9.392  12.051   8.620 -0.0863 -0.1056  0.0961
  141loPI   C6A 2252   9.748  11.759   8.367  0.0803  0.1000  0.2072
  141loPI   C1B 2253  10.251  13.313   9.531 -0.1127 -0.1688  0.1945
  141loPI   C2B 2254  10.165  13.369   9.139  0.1671  0.0610  0.0533
  141loPI   C3B 2255   9.997  13.138   8.698 -0.0872 -0.1741  0.2057
  141loPI   C4B 2256   9.690  12.944   8.412 -0.2987 -0.1219 -0.0390
  142loPI    C1 2257  11.115  13.658  10.668  0.0327  0.2542  0.0421
  142loPI    C2 2258  11.017  13.921  10.954 -0.2406 -0.0368  0.2230
  142loPI    C3 2259  10.851  13.557  10.951  0.0766 -0.1854 -0.0674
  142loPI   PO4 2260  11.025  13.723  10.463 -0.0853 -0.1595 -0.1622
  142loPI   GL1 2261  10.737  13.811  10.090  0.0706  0.2453  0.2910
  142loPI   GL2 2262  10.993  13.624  10.014 -0.0744  0.1208  0.0717
  142loPI   C1A 2263  10.633  13.740   9.639  0.1444  0.3099  0.2783
  142loPI   C2A 2264  10.478  13.788   9.239 -0.3385  0.3867  0.0987
  142loPI   C3A 2265  10.450  13.675   8.787 -0.3258 -0.2370 -0.1713
  142loPI   C4A 2266  10.512  13.971   8.423  0.0132 -0.0718 -0.2481
  142loPI   C5A 2267  10.722  14.048   8.050 -0.0558  0.2450 -0.1769
  142loPI   C6A 2268  10.893  14.270   7.698  0.0780 -0.1850  0.3678
  142loPI   C1B 2269  11.164  13.626   9.649 -0.0234 -0.0408  0.1944
  142loPI   C2B 2270  11.028  13.549   9.264  0.0900 -0.2657  0.0300
  142loPI   C3B 2271  10.879  13.490   8.861  0.0926  0.1751  0.2870
  142loPI   C4B 2272  10.793  13.514   8.379 -0.0339  0.1839  0.1381
  143loPI    C1 2273   0.490   2.243  11.178 -0.1925  0.2024 -0.0233
  143loPI    C2 2274   0.657   2.533  11.398  0.2116  0.0065 -0.0616
  143loPI    C3 2275   0.290   2.582  11.247  0.0523  0.2700  0.3914
  143loPI   PO4 2276   0.677   2.185  11.001 -0.5311  0.0412  0.1055
  143loPI   GL1 2277   0.764   2.259  10.660 -0.2094 -0.2473  0.0829
  143loPI   GL2 2278   0.948   2.473  10.554  0.1625 -0.0856  0.0239
  143loPI   C1A 2279   0.665   2.077  10.242  0.0391  0.2256  0.2585
  143loPI   C2A 2280   0.517   1.946   9.916 -0.1883 -0.4486 -0.3536
  143loPI   C3A 2281   0.489   1.956   9.500 -0.3419 -0.1214 -0.1390
  143loPI   C4A 2282   0.544   2.069   9.184 -0.1340 -0.2274  0.0790
  143loPI   C5A 2283   0.557   1.942   8.730  0.1472  0.2777  0.2348
  143loPI   C6A 2284   0.432   1.945   8.307  0.2607  0.2590 -0.1793
  143loPI   C1B 2285   0.999   2.377  10.071 -0.0732 -0.1434 -0.0971
  143loPI   C2B 2286   0.976   2.175   9.671 -0.1265  0.1283 -0.1075
  143loPI   C3B 2287   1.025   2.302   9.242  0.0491 -0.2633  0.1321
  143loPI   C4B 2288   0.977   2.181   8.848  0.3023 -0.2747 -0.0663
  144loPI    C1 2289  10.834   3.866  10.426  0.2418 -0.0442  0.1781
  144loPI    C2 2290  10.542   4.140  10.419  0.0346 -0.2649 -0.0108
  144loPI    C3 2291  10.790   4.119  10.732 -0.0205  0.0596  0.0578
  144loPI   PO4 2292  10.929   3.822  10.126 -0.1669 -0.0003  0.0757
  144loPI   GL1 2293  11.060   3.820   9.766 -0.0887  0.1512  0.0861
  144loPI   GL2 2294  11.332   3.847   9.637 -0.1980 -0.1200  0.0693
  144loPI   C1A 2295  10.886   3.983   9.408 -0.1965 -0.0527  0.0074
  144loPI   C2A 2296  10.910   3.950   8.995 -0.0824 -0.0764 -0.0030
  144loPI   C3A 2297  11.002   3.891   8.538  0.0803  0.2113  0.2914
  144loPI   C4A 2298  10.999   3.893   8.115 -0.0581 -0.0352  0.2013
  144loPI   C5A 2299  11.017   3.614   7.864  0.2684 -0.3287 -0.2985
  144loPI   C6A 2300  10.729   3.335   7.714 -0.1044 -0.2297  0.2955
  144loPI   C1B 2301  11.353   3.835   9.193  0.0305  0.0815 -0.1540
  144loPI   C2B 2302  11.440   3.881   8.743  0.0582 -0.0403 -0.2334
  144loPI   C3B 2303  11.642   3.988   8.292 -0.3735  0.4190 -0.1393
  144loPI   C4B 2304  12.041   3.978   8.032  0.2924 -0.3645  0.1122
  145loPI    C1 2305   3.298   8.429  11.108 -0.4270  0.0214  0.2322
  145loPI    C2 2306   3.248   8.825  11.082 -0.1298  0.0578  0.1753
  145loPI    C3 2307   3.567   8.675  11.271 -0.0219 -0.1469 -0.1614
  145loPI   PO4 2308   3.234   8.300  10.918  0.1238  0.3250  0.1783
  145loPI   GL1 2309   3.352   8.240  10.427 -0.1112  0.1775  0.1287
  145loPI   GL2 2310   3.256   8.060  10.310  0.1242 -0.0268 -0.2114
  145loPI   C1A 2311   3.617   8.475  10.079  0.0863 -0.0784  0.1016
  145loPI   C2A 2312   3.726   8.530   9.562 -0.1266  0.0307 -0.3082
  145loPI   C3A 2313   3.823   8.446   9.161 -0.0353 -0.2969  0.5225
  145loPI   C4A 2314   3.859   8.582   8.649  0.2312 -0.1189  0.0603
  145loPI   C5A 2315   3.651   8.469   8.281  0.1796  0.2993 -0.3356
  145loPI   C6A 2316   3.457   8.696   7.964  0.1822  0.1328  0.3031
  145loPI   C1B 2317   3.190   8.319   9.928 -0.1108  0.0993  0.1602
  145loPI   C2B 2318   3.232   8.345   9.427  0.2143  0.0411 -0.0766
  145loPI   C3B 2319   3.374   8.185   9.053  0.2273 -0.0301 -0.3110
  145loPI   C4B 2320   3.595   8.185   8.747  0.0202 -0.0250 -0.1404
  146loPI    C1 2321   1.275  12.012  11.045  0.0080  0.2747 -0.0074
  146loPI    C2 2322   1.431  12.329  11.232  0.0391  0.2887 -0.0568
  146loPI    C3 2323   1.035  12.275  11.227  0.0343  0.3216 -0.0401
  146loPI   PO4 2324   1.309  11.983  10.786 -0.1010  0.1745 -0.1691
  146loPI   GL1 2325   1.335  12.142  10.392  0.0360  0.1184  0.0138
  146loPI   GL2 2326   1.121  12.247  10.190 -0.0694 -0.0571  0.2281
  146loPI   C1A 2327   1.365  11.858   9.988  0.1194  0.2744 -0.0629
  146loPI   C2A 2328   1.327  11.918   9.469 -0.3098 -0.0401  0.2291
  146loPI   C3A 2329   1.393  12.143   9.063  0.1547 -0.0682  0.1639
  146loPI   C4A 2330   1.256  12.264   8.669  0.0902 -0.3505  0.2181
  146loPI   C5A 2331   1.315  12.124   8.211 -0.1807  0.0522 -0.2687
  146loPI   C6A 2332   1.414  11.966   7.806 -0.1332  0.1729  0.0753
  146loPI   C1B 2333   0.944  12.103   9.782  0.1913  0.3139  0.0469
  146loPI   C2B 2334   0.951  12.202   9.373 -0.0405  0.0726  0.0072
  146loPI   C3B 2335   0.836  12.442   9.018  0.0520  0.3205 -0.0933
  146loPI   C4B 2336   0.642  12.548   8.645 -0.3471 -0.1771 -0.0451
  147loPI    C1 2337   1.203  15.102  11.542  0.2142 -0.0651 -0.3283
  147loPI    C2 2338   0.949  14.829  11.687  0.4069 -0.0884 -0.0253
  147loPI    C3 2339   0.893  15.216  11.769  0.4382 -0.0884 -0.0041
  147loPI   PO4 2340   1.265  14.967  11.163 -0.0046  0.0425  0.0215
  147loPI   GL1 2341   1.201  14.934  10.746 -0.4589  0.3287 -0.3155
  147loPI   GL2 2342   1.464  15.115  10.732  0.0540  0.2756  0.1160
  147loPI   C1A 2343   0.957  14.764  10.382  0.1585  0.1125 -0.3103
  147loPI   C2A 2344   0.980  14.860   9.984 -0.1008  0.2144 -0.0197
  147loPI   C3A 2345   1.004  14.958   9.534  0.0025  0.1107  0.2794
  147loPI   C4A 2346   1.089  14.836   9.166  0.1892  0.0269  0.1302
  147loPI   C5A 2347   0.958  14.436   8.917  0.1619 -0.1271 -0.3303
  147loPI   C6A 2348   0.566  14.378   8.708 -0.0912 -0.1281 -0.2209
  147loPI   C1B 2349   1.498  15.118  10.205  0.0698  0.0719 -0.0233
  147loPI   C2B 2350   1.535  15.109   9.804  0.1222 -0.1013 -0.1067
  147loPI   C3B 2351   1.473  15.174   9.323  0.0886  0.1027 -0.1144
  147loPI   C4B 2352   1.683  15.322   8.920 -0.1375 -0.1091  0.3474
  148loPI    C1 2353  13.959   3.825  10.904  0.0168  0.0797 -0.1360
  148loPI    C2 2354  14.170   4.162  10.941  0.1001 -0.0012  0.1528
  148loPI    C3 2355  13.908   4.058  11.225 -0.2801  0.0605 -0.1655
  148loPI   PO4 2356  14.244   3.710  10.739 -0.0006 -0.1563 -0.0679
  148loPI   GL1 2357  14.202   3.610  10.242  0.3050 -0.0913  0.0650
  148loPI   GL2 2358  13.895   3.703  10.335  0.2197  0.0406 -0.0974
  148loPI   C1A 2359  14.192   3.927   9.897 -0.3195  0.1068 -0.1273
  148loPI   C2A 2360  13.987   4.102   9.417 -0.1965  0.0911 -0.0407
  148loPI   C3A 2361  14.045   4.088   9.041  0.1987 -0.0924  0.0183
  148loPI   C4A 2362  14.127   3.986   8.600  0.2189  0.0214  0.1392
  148loPI   C5A 2363  14.174   4.057   8.118  0.0005  0.4084  0.0075
  148loPI   C6A 2364  14.510   4.135   7.694 -0.0080 -0.1201 -0.0295
  148loPI   C1B 2365  13.696   3.963   9.964  0.3123  0.0637 -0.3225
  148loPI   C2B 2366  13.541   3.886   9.587  0.1966 -0.3996  0.1414
  148loPI   C3B 2367  13.498   3.964   9.142 -0.4330 -0.1777 -0.0422
  148loPI   C4B 2368  13.573   3.894   8.625 -0.1949  0.2794 -0.2772
  149loPI    C1 2369   6.499  12.742  10.563  0.0053  0.0656  0.0788
  149loPI    C2 2370   6.212  12.473  10.635  0.1573 -0.0409  0.2983
  149loPI    C3 2371   6.589  12.397  10.745  0.2347  0.1837  0.1931
  149loPI   PO4 2372   6.435  12.814  10.324  0.1151  0.1619  0.1648
  149loPI   GL1 2373   6.461  12.672   9.902  0.1055  0.3039 -0.0076
  149loPI   GL2 2374   6.132  12.526   9.886 -0.2229 -0.1326 -0.2902
  149loPI   C1A 2375   6.603  12.683   9.417 -0.2422  0.0211  0.1541
  149loPI   C2A 2376   6.576  12.753   8.930 -0.0069  0.1015 -0.1216
  149loPI   C3A 2377   6.692  12.841   8.530 -0.0894  0.0430 -0.3980
  149loPI   C4A 2378   6.897  12.755   8.109 -0.3281  0.0648 -0.1709
  149loPI   C5A 2379   6.942  12.256   8.185  0.0485  0.3284 -0.1432
  149loPI   C6A 2380   6.929  11.874   8.407  0.2719  0.1293 -0.0043
  149loPI   C1B 2381   6.095  12.423   9.461 -0.0097 -0.4019  0.1676
  149loPI   C2B 2382   6.119  12.485   8.988 -0.0694 -0.0991 -0.0911
  149loPI   C3B 2383   6.216  12.760   8.559  0.1875 -0.1156  0.1377
  149loPI   C4B 2384   6.360  12.608   8.108 -0.3138  0.1479  0.1361
  150loPI    C1 2385  15.131  16.668  11.071 -0.0913 -0.0812 -0.3151
  150loPI    C2 2386  14.988  17.024  11.183  0.0382 -0.0955 -0.0982
  150loPI    C3 2387  14.737  16.724  11.104 -0.0613 -0.0399  0.0050
  150loPI   PO4 2388  15.257  16.748  10.862  0.2501 -0.2065 -0.1288
  150loPI   GL1 2389  15.559  16.675  10.520  0.0989 -0.0434  0.1530
  150loPI   GL2 2390  15.760  16.819  10.210  0.0224 -0.4207 -0.0169
  150loPI   C1A 2391  15.675  16.394  10.105 -0.0339  0.1403 -0.0446
  150loPI   C2A 2392  15.756  16.290   9.663 -0.1458 -0.1167  0.1087
  150loPI   C3A 2393  15.856  16.182   9.242  0.3725  0.0548 -0.0193
  150loPI   C4A 2394  16.031  16.027   8.797  0.2950 -0.1188  0.1467
  150loPI   C5A 2395  16.198  16.267   8.434  0.0678  0.1733  0.1945
  150loPI   C6A 2396  16.413  16.523   8.129  0.0291  0.1549 -0.0454
  150loPI   C1B 2397  15.834  16.766   9.776  0.0971 -0.0281  0.1562
  150loPI   C2B 2398  15.797  16.674   9.348 -0.2033  0.1887  0.1068
  150loPI   C3B 2399  15.917  16.858   9.016  0.0807  0.0127  0.0148
  150loPI   C4B 2400  16.159  16.833   8.675 -0.3483  0.2778 -0.1857
  151loPI    C1 2401  10.017   8.629  10.824 -0.0021  0.1253 -0.0052
  151loPI    C2 2402   9.931   8.644  11.214 -0.1553  0.0341 -0.0343
  151loPI    C3 2403   9.907   8.975  10.991 -0.0351  0.0935  0.0394
  151loPI   PO4 2404   9.907   8.351  10.739 -0.1502 -0.2280 -0.1321
  151loPI   GL1 2405   9.791   8.241  10.333 -0.1239 -0.1147 -0.1787
  151loPI   GL2 2406   9.986   8.327  10.215  0.2688  0.0690  0.2493
  151loPI   C1A 2407   9.475   8.412  10.001 -0.1156  0.1986  0.0407
  151loPI   C2A 2408   9.505   8.436   9.510  0.1203  0.1589 -0.2144
  151loPI   C3A 2409   9.490   8.497   9.029 -0.0825 -0.0502  0.1539
  151loPI   C4A 2410   9.438   8.553   8.640 -0.0280  0.1923 -0.0293
  151loPI   C5A 2411   9.150   8.591   8.402  0.1098  0.2298  0.3049
  151loPI   C6A 2412   8.938   8.605   7.944  0.1859  0.1688 -0.1081
  151loPI   C1B 2413   9.965   8.324   9.819  0.2671 -0.2684 -0.0056
  151loPI   C2B 2414   9.951   8.281   9.277 -0.0236 -0.0443 -0.0316
  151loPI   C3B 2415   9.912   8.307   8.930  0.0585  0.2647 -0.1089
  151loPI   C4B 2416  10.095   8.527   8.647  0.0792  0.0462 -0.3461
  152loPI    C1 2417  11.267  10.284  10.554 -0.2463 -0.1367  0.0076
  152loPI    C2 2418  11.403  10.387  10.916 -0.1614 -0.0787 -0.0406
  152loPI    C3 2419  11.099  10.588  10.752  0.1567  0.2556 -0.2349
  152loPI   PO4 2420  11.547  10.209  10.451 -0.2026  0.0337 -0.0068
  152loPI   GL1 2421  11.717  10.357  10.149 -0.1393  0.2438 -0.1362
  152loPI   GL2 2422  11.503  10.402   9.968  0.2199  0.2270  0.0384
  152loPI   C1A 2423  11.984  10.264   9.842 -0.0537 -0.0138 -0.3536
  152loPI   C2A 2424  11.930  10.339   9.395  0.2691 -0.0175 -0.0748
  152loPI   C3A 2425  12.074  10.416   8.967  0.0372  0.1703 -0.3558
  152loPI   C4A 2426  12.264  10.323   8.650 -0.1009 -0.3070  0.0609
  152loPI   C5A 2427  12.254  10.383   8.201 -0.1339  0.1213  0.3007
  152loPI   C6A 2428  12.160  10.515   7.814 -0.1627  0.1578  0.3314
  152loPI   C1B 2429  11.461  10.430   9.641  0.2343 -0.0780 -0.1362
  152loPI   C2B 2430  11.456  10.477   9.187 -0.3409  0.2237  0.1674
  152loPI   C3B 2431  11.617  10.373   8.913 -0.0402 -0.1814 -0.2408
  152loPI   C4B 2432  11.717  10.251   8.442 -0.0617  0.1070 -0.2442
  153loPI    C1 2433   1.960  16.123  11.510 -0.0179  0.0415 -0.0642
  153loPI    C2 2434   2.275  15.981  11.712 -0.1117 -0.2076 -0.0895
  153loPI    C3 2435   2.124  16.340  11.804  0.1610 -0.0982 -0.0594
  153loPI   PO4 2436   2.033  16.155  11.303 -0.3456  0.0738 -0.2723
  153loPI   GL1 2437   2.156  16.015  10.887 -0.0073  0.1490  0.2237
  153loPI   GL2 2438   2.328  16.190  10.712 -0.2085 -0.2350  0.0763
  153loPI   C1A 2439   1.938  15.948  10.508  0.0722 -0.0512  0.2273
  153loPI   C2A 2440   1.857  15.854  10.007 -0.0161 -0.4730  0.3451
  153loPI   C3A 2441   1.815  15.881   9.656 -0.0516  0.0001  0.1587
  153loPI   C4A 2442   1.987  15.926   9.301 -0.0689  0.4367 -0.4033
  153loPI   C5A 2443   1.926  15.751   8.898  0.1019  0.0886 -0.0112
  153loPI   C6A 2444   2.133  15.860   8.502 -0.1496 -0.0366  0.1870
  153loPI   C1B 2445   2.307  16.246  10.273  0.3330 -0.1479  0.0780
  153loPI   C2B 2446   2.322  16.282   9.787  0.0086 -0.3193  0.0174
  153loPI   C3B 2447   2.421  16.265   9.400 -0.1899 -0.1874 -0.1530
  153loPI   C4B 2448   2.360  16.080   8.975 -0.0657 -0.0591  0.0256
  154loPI    C1 2449   2.618  11.752  10.723 -0.1310 -0.1629  0.0617
  154loPI    C2 2450   2.942  11.580  10.883 -0.2567 -0.1834  0.3002
  154loPI    C3 2451   2.838  11.951  10.991 -0.0904 -0.0221 -0.0755
  154loPI   PO4 2452   2.754  11.677  10.379 -0.1481  0.1633  0.2966
  154loPI   GL1 2453   3.041  11.722  10.026 -0.2168  0.0051 -0.0465
  154loPI   GL2 2454   3.357  11.801  10.081 -0.2057 -0.0374  0.0395
  154loPI   C1A 2455   2.889  11.756   9.675  0.0101 -0.0213 -0.0705
  154loPI   C2A 2456   2.935  11.972   9.312  0.0468 -0.0250  0.2466
  154loPI   C3A 2457   2.825  11.941   8.954  0.0831  0.1273  0.1830
  154loPI   C4A 2458   2.738  11.883   8.538  0.1099  0.1204  0.0589
  154loPI   C5A 2459   2.415  11.809   8.157 -0.1569 -0.1075  0.1272
  154loPI   C6A 2460   2.128  11.590   7.844 -0.0245 -0.0934  0.0889
  154loPI   C1B 2461   3.375  11.960   9.669  0.2347  0.0195  0.0027
  154loPI   C2B 2462   3.448  11.924   9.262  0.0755  0.0483  0.2212
  154loPI   C3B 2463   3.322  12.034   8.954 -0.1780 -0.1084  0.0224
  154loPI   C4B 2464   3.148  12.164   8.510  0.1284 -0.1408 -0.1592
  155loPI    C1 2465  13.620  10.160  10.635  0.0454  0.1196  0.0015
  155loPI    C2 2466  13.830  10.477  10.758  0.0480  0.1532 -0.0890
  155loPI    C3 2467  13.914  10.113  10.902  0.3144  0.1337 -0.2860
  155loPI   PO4 2468  13.706  10.170  10.395  0.2766  0.2048  0.0157
  155loPI   GL1 2469  13.651   9.935  10.077 -0.1365 -0.1550  0.0426
  155loPI   GL2 2470  13.960  10.138   9.972 -0.2063  0.1367 -0.0539
  155loPI   C1A 2471  13.564   9.772   9.731  0.0598  0.0398 -0.2484
  155loPI   C2A 2472  13.662   9.835   9.257  0.0989 -0.0872 -0.0172
  155loPI   C3A 2473  13.620   9.928   8.814 -0.1247  0.1810 -0.0806
  155loPI   C4A 2474  13.619   9.950   8.439 -0.0354 -0.2938  0.1980
  155loPI   C5A 2475  13.327   9.647   8.338  0.0628  0.0220 -0.2532
  155loPI   C6A 2476  13.314   9.203   8.499  0.0250  0.1123  0.0598
  155loPI   C1B 2477  14.170  10.177   9.641  0.1644  0.1646  0.1578
  155loPI   C2B 2478  14.209  10.194   9.193 -0.2577  0.1578 -0.4143
  155loPI   C3B 2479  14.078  10.077   8.790 -0.0482 -0.3258 -0.0371
  155loPI   C4B 2480  14.073   9.808   8.527  0.1935  0.2776  0.4770
  156loPI    C1 2481   9.843   7.398  10.984  0.0402 -0.0742 -0.0120
  156loPI    C2 2482  10.079   7.375  11.306 -0.0126  0.0824  0.0389
  156loPI    C3 2483   9.703   7.241  11.324 -0.0364  0.1518  0.0630
  156loPI   PO4 2484   9.990   7.441  10.773  0.0548  0.0517  0.2420
  156loPI   GL1 2485   9.888   7.591  10.373  0.1644  0.0122 -0.0692
  156loPI   GL2 2486  10.011   7.317  10.135  0.0515  0.3046  0.0849
  156loPI   C1A 2487  10.013   7.829   9.950  0.0305 -0.0743 -0.0296
  156loPI   C2A 2488  10.096   7.930   9.551 -0.1327 -0.0798 -0.0457
  156loPI   C3A 2489   9.997   7.836   9.172 -0.1593 -0.0599  0.0855
  156loPI   C4A 2490   9.934   7.859   8.748 -0.2678 -0.1006 -0.1893
  156loPI   C5A 2491   9.695   7.629   8.482  0.0169  0.1861  0.0743
  156loPI   C6A 2492   9.488   7.411   8.209  0.0054 -0.0243  0.2440
  156loPI   C1B 2493  10.130   7.404   9.706 -0.2404  0.1496 -0.0210
  156loPI   C2B 2494  10.252   7.450   9.334  0.2092 -0.1313  0.2372
  156loPI   C3B 2495  10.345   7.643   8.910 -0.0152  0.1627 -0.1896
  156loPI   C4B 2496  10.266   7.540   8.496 -0.2889 -0.0255 -0.2228
  157loPI    C1 2497   9.229  12.738  11.203 -0.0955 -0.1366  0.1477
  157loPI    C2 2498   9.047  12.459  11.424  0.1723 -0.1826  0.3141
  157loPI    C3 2499   9.251  12.754  11.602 -0.1984  0.1860  0.1432
  157loPI   PO4 2500   9.105  12.702  10.941 -0.0740  0.0892  0.3048
  157loPI   GL1 2501   9.103  12.582  10.447  0.0952 -0.1205 -0.2182
  157loPI   GL2 2502   9.235  12.248  10.550  0.0381 -0.2163  0.0414
  157loPI   C1A 2503   9.025  12.741   9.997  0.2365 -0.2024 -0.1393
  157loPI   C2A 2504   8.934  12.844   9.608 -0.1544  0.4711 -0.3141
  157loPI   C3A 2505   8.807  12.817   9.256 -0.0426 -0.0258 -0.1113
  157loPI   C4A 2506   8.799  12.634   8.951 -0.2318  0.0526 -0.1440
  157loPI   C5A 2507   8.851  12.448   8.452 -0.1752  0.1892 -0.5817
  157loPI   C6A 2508   8.955  12.117   8.372 -0.0345  0.1227 -0.0092
  157loPI   C1B 2509   9.213  12.299  10.068  0.0294  0.0860  0.0841
  157loPI   C2B 2510   8.915  12.349   9.727 -0.1242  0.0916  0.2262
  157loPI   C3B 2511   8.783  12.329   9.311 -0.1666  0.0794  0.1841
  157loPI   C4B 2512   9.045  12.210   8.931 -0.3056 -0.3058 -0.0521
  158loPI    C1 2513  17.424  13.414  10.970  0.1015 -0.2502 -0.0146
  158loPI    C2 2514  17.066  13.245  11.028 -0.0992  0.1160 -0.1542
  158loPI    C3 2515  17.324  13.275  11.332 -0.1433 -0.2393 -0.0763
  158loPI   PO4 2516  17.467  13.419  10.775  0.3843  0.1368  0.0998
  158loPI   GL1 2517  17.486  13.684  10.522 -0.1051  0.2748 -0.2985
  158loPI   GL2 2518  17.829  13.643  10.361  0.0550  0.0108 -0.1157
  158loPI   C1A 2519  17.396  13.591  10.028  0.3048 -0.3436 -0.0754
  158loPI   C2A 2520  17.450  13.652   9.584 -0.1381  0.1120 -0.1368
  158loPI   C3A 2521  17.501  13.655   9.142  0.1798 -0.0576  0.0637
  158loPI   C4A 2522  17.523  13.839   8.722 -0.0430  0.0982 -0.3784
  158loPI   C5A 2523  17.572  14.112   8.461 -0.0890 -0.1266  0.3529
  158loPI   C6A 2524  17.793  14.430   8.463  0.0970  0.0953 -0.3635
  158loPI   C1B 2525  17.794  13.785   9.898  0.2181 -0.0860  0.2159
  158loPI   C2B 2526  17.910  13.896   9.364  0.3618 -0.3328 -0.0250
  158loPI   C3B 2527  17.922  13.989   8.946  0.0879  0.1350 -0.0646
  158loPI   C4B 2528  18.071  14.024   8.521  0.1547 -0.3210 -0.2769
  159loPI    C1 2529   0.426  10.826  10.654 -0.0733 -0.0727  0.0855
  159loPI    C2 2530   0.318  11.168  10.831  0.0581 -0.0316  0.0876
  159loPI    C3 2531   0.517  10.890  11.039  0.0204 -0.0763  0.0642
  159loPI   PO4 2532   0.516  10.873  10.474  0.2414 -0.0536  0.0526
  159loPI   GL1 2533   0.711  10.833  10.149 -0.0755 -0.0710 -0.3547
  159loPI   GL2 2534   0.617  11.148   9.997 -0.0029  0.0076  0.1212
  159loPI   C1A 2535   0.677  10.750   9.749 -0.0390  0.1754  0.1144
  159loPI   C2A 2536   0.643  10.809   9.382 -0.0491  0.2227 -0.3436
  159loPI   C3A 2537   0.640  10.678   8.967  0.0451  0.0371 -0.0405
  159loPI   C4A 2538   0.740  10.561   8.611 -0.0337  0.1535 -0.0163
  159loPI   C5A 2539   1.031  10.550   8.282  0.0111  0.0120 -0.2598
  159loPI   C6A 2540   1.407  10.551   8.238  0.0691  0.0680  0.1551
  159loPI   C1B 2541   0.581  11.285   9.540  0.0933 -0.0422  0.3846
  159loPI   C2B 2542   0.633  11.213   9.106 -0.1806 -0.1736 -0.1482
  159loPI   C3B 2543   0.268  11.033   8.817 -0.5576 -0.3869 -0.2354
  159loPI   C4B 2544   0.112  10.928   8.364  0.2783 -0.0177  0.2667
  160loPI    C1 2545  16.860   4.928  10.541 -0.1716 -0.1475 -0.4088
  160loPI    C2 2546  16.465   4.962  10.596 -0.1032  0.1576 -0.0655
  160loPI    C3 2547  16.674   4.693  10.806 -0.0689  0.2795  0.0579
  160loPI   PO4 2548  16.910   4.810  10.244  0.0703 -0.0392  0.0697
  160loPI   GL1 2549  16.979   4.899   9.806  0.2110 -0.0182 -0.1566
  160loPI   GL2 2550  16.750   4.687   9.751  0.4154 -0.0902  0.0834
  160loPI   C1A 2551  16.809   5.106   9.457  0.1781  0.0895  0.1003
  160loPI   C2A 2552  16.739   5.087   9.060  0.2671  0.2998  0.0384
  160loPI   C3A 2553  16.773   5.204   8.711  0.1271 -0.0691 -0.1868
  160loPI   C4A 2554  16.697   5.522   8.459  0.1042  0.2611 -0.3455
  160loPI   C5A 2555  16.767   5.971   8.314  0.3575  0.1627 -0.0405
  160loPI   C6A 2556  16.777   6.408   8.159 -0.0306  0.1656  0.1006
  160loPI   C1B 2557  16.822   4.656   9.340  0.3637  0.3271 -0.1085
  160loPI   C2B 2558  16.940   4.611   8.912 -0.1455 -0.0150 -0.0362
  160loPI   C3B 2559  16.885   4.730   8.535  0.3451 -0.0730  0.1225
  160loPI   C4B 2560  16.704   5.084   8.239 -0.0528 -0.1171 -0.0971
  161loPI    C1 2561   5.351  11.547  10.895 -0.0107  0.1273 -0.1126
  161loPI    C2 2562   5.026  11.447  10.683  0.0408  0.0419 -0.1519
  161loPI    C3 2563   4.993  11.529  11.074 -0.0406  0.1131 -0.1733
  161loPI   PO4 2564   5.500  11.731  10.622  0.0033 -0.0778 -0.0242
  161loPI   GL1 2565   5.710  11.654  10.151 -0.0873 -0.0192  0.1598
  161loPI   GL2 2566   5.481  11.881  10.138 -0.0227 -0.1710 -0.0694
  161loPI   C1A 2567   5.672  11.686   9.733  0.2604  0.0542  0.0930
  161loPI   C2A 2568   5.640  11.748   9.287  0.1155 -0.2290  0.0886
  161loPI   C3A 2569   5.569  11.723   8.843  0.1413 -0.0304 -0.2047
  161loPI   C4A 2570   5.485  11.580   8.459 -0.0708  0.3235 -0.1866
  161loPI   C5A 2571   5.644  11.367   8.072 -0.1977  0.2550 -0.0473
  161loPI   C6A 2572   6.127  11.295   8.053 -0.1684  0.0098  0.1124
  161loPI   C1B 2573   5.154  11.953   9.831  0.1486 -0.1711 -0.0781
  161loPI   C2B 2574   5.227  12.024   9.542  0.3516  0.0582  0.0644
  161loPI   C3B 2575   5.244  11.990   9.042  0.1224 -0.1773 -0.2972
  161loPI   C4B 2576   5.181  12.032   8.553 -0.0465 -0.0679 -0.1016
  162loPI    C1 2577   7.448   3.184  10.454 -0.2514  0.1489  0.0041
  162loPI    C2 2578   7.478   3.459  10.743 -0.4512 -0.1159  0.2837
  162loPI    C3 2579   7.770   3.191  10.692 -0.3005  0.0844  0.0728
  162loPI   PO4 2580   7.420   3.285  10.215 -0.4482  0.0329  0.0359
  162loPI   GL1 2581   7.350   3.284   9.723  0.0248 -0.0802 -0.1166
  162loPI   GL2 2582   7.114   3.166   9.665 -0.1278  0.2655 -0.0123
  162loPI   C1A 2583   7.534   3.240   9.276 -0.0115  0.1869  0.2189
  162loPI   C2A 2584   7.460   3.209   8.831  0.0940  0.0554  0.0689
  162loPI   C3A 2585   7.527   3.373   8.500  0.0325 -0.0351 -0.2918
  162loPI   C4A 2586   7.371   3.506   8.215 -0.2536  0.3078  0.2943
  162loPI   C5A 2587   7.231   3.498   7.860  0.1357  0.1451  0.1178
  162loPI   C6A 2588   7.181   3.813   7.579  0.1416  0.0089  0.2004
  162loPI   C1B 2589   7.090   3.087   9.267  0.0417  0.3229  0.0983
  162loPI   C2B 2590   6.996   3.079   8.861 -0.2381 -0.0513  0.1589
  162loPI   C3B 2591   7.032   3.173   8.427  0.1227  0.0096 -0.0773
  162loPI   C4B 2592   6.911   3.147   8.006 -0.4534 -0.2571  0.1063
  163loPI    C1 2593   0.797   5.990  10.929  0.0918 -0.0361 -0.1855
  163loPI    C2 2594   0.853   5.599  10.990  0.0222 -0.0232 -0.0344
  163loPI    C3 2595   0.918   5.858  11.287  0.3194  0.1061 -0.2079
  163loPI   PO4 2596   0.954   6.030  10.726  0.1116  0.1696 -0.0393
  163loPI   GL1 2597   1.003   6.261  10.352 -0.1678  0.2036 -0.1604
  163loPI   GL2 2598   1.235   6.015  10.265  0.1551  0.2071  0.1662
  163loPI   C1A 2599   1.239   6.407   9.960  0.2367 -0.0653  0.2295
  163loPI   C2A 2600   1.432   6.430   9.557  0.2380  0.0103 -0.1044
  163loPI   C3A 2601   1.396   6.486   9.129  0.2891 -0.0803 -0.1785
  163loPI   C4A 2602   1.198   6.415   8.761  0.0125 -0.0854 -0.1906
  163loPI   C5A 2603   0.865   6.384   8.523 -0.2765 -0.2184  0.1939
  163loPI   C6A 2604   0.697   6.628   8.240  0.0283 -0.1034 -0.2012
  163loPI   C1B 2605   1.145   5.893   9.851 -0.1232 -0.2830  0.1537
  163loPI   C2B 2606   1.085   5.803   9.415  0.1861  0.2132 -0.2381
  163loPI   C3B 2607   0.841   5.493   9.043  0.1041 -0.2056  0.0862
  163loPI   C4B 2608   0.974   5.403   8.719  0.0321  0.5108 -0.0352
  164loPI    C1 2609   7.816   7.906  10.842 -0.0621 -0.1879  0.1177
  164loPI    C2 2610   7.632   7.552  10.811 -0.1672 -0.1477  0.2731
  164loPI    C3 2611   8.011   7.570  10.938 -0.0889 -0.2215  0.0551
  164loPI   PO4 2612   7.563   8.007  10.656  0.0753  0.3129  0.1693
  164loPI   GL1 2613   7.555   7.905  10.345 -0.0824 -0.2634  0.1852
  164loPI   GL2 2614   7.764   7.643  10.359 -0.3406  0.2403 -0.3609
  164loPI   C1A 2615   7.546   7.911   9.937 -0.2149 -0.2160  0.2317
  164loPI   C2A 2616   7.582   7.965   9.446 -0.1508  0.3530 -0.0892
  164loPI   C3A 2617   7.517   7.940   9.032  0.2455  0.0703  0.3124
  164loPI   C4A 2618   7.677   8.010   8.573  0.2870 -0.0747  0.1326
  164loPI   C5A 2619   7.503   8.226   8.207 -0.1567 -0.1378 -0.0385
  164loPI   C6A 2620   7.405   8.200   7.777 -0.1375 -0.1146  0.1346
  164loPI   C1B 2621   8.006   7.549   9.969 -0.2407  0.0413 -0.0978
  164loPI   C2B 2622   7.933   7.613   9.559 -0.2932 -0.0875  0.3856
  164loPI   C3B 2623   8.004   7.681   9.092 -0.1440  0.0159 -0.1645
  164loPI   C4B 2624   8.123   7.715   8.638 -0.0526 -0.1531 -0.0440
  165loPI    C1 2625  14.707   6.104  10.773 -0.0375  0.0740  0.0157
  165loPI    C2 2626  14.875   5.898  10.474 -0.1381  0.0579 -0.0302
  165loPI    C3 2627  14.933   5.783  10.852 -0.4511 -0.2482 -0.0704
  165loPI   PO4 2628  14.760   6.347  10.682  0.0735  0.2443  0.0654
  165loPI   GL1 2629  14.821   6.453  10.248 -0.0851  0.0344 -0.0540
  165loPI   GL2 2630  14.548   6.585  10.130 -0.0447  0.3376  0.1352
  165loPI   C1A 2631  15.000   6.531   9.903 -0.1071 -0.0293  0.0233
  165loPI   C2A 2632  15.003   6.573   9.476  0.1107  0.1289  0.2378
  165loPI   C3A 2633  14.909   6.625   9.060  0.1767  0.1125  0.2672
  165loPI   C4A 2634  15.005   6.599   8.553  0.2726  0.1497 -0.2235
  165loPI   C5A 2635  14.932   6.337   8.147 -0.0243 -0.0800 -0.1240
  165loPI   C6A 2636  14.523   6.401   7.816  0.1869  0.0715  0.0625
  165loPI   C1B 2637  14.314   6.415   9.883 -0.1450 -0.2776  0.1845
  165loPI   C2B 2638  14.133   6.520   9.525 -0.2048 -0.1382 -0.0517
  165loPI   C3B 2639  14.080   6.564   9.080 -0.3272 -0.2979  0.1724
  165loPI   C4B 2640  14.082   6.488   8.646  0.1532 -0.2407 -0.1035
  166loPI    C1 2641  11.920  12.122  10.793 -0.2621  0.1111 -0.2667
  166loPI    C2 2642  11.782  11.878  11.079  0.2588  0.0060 -0.0931
  166loPI    C3 2643  11.901  12.248  11.172 -0.1185  0.1818 -0.2825
  166loPI   PO4 2644  11.691  12.088  10.597  0.1897  0.3123  0.3753
  166loPI   GL1 2645  11.659  12.277  10.182  0.1062  0.2677  0.1516
  166loPI   GL2 2646  11.387  12.188   9.968 -0.1191 -0.0925  0.0837
  166loPI   C1A 2647  11.925  12.058   9.890  0.1299 -0.0067 -0.0688
  166loPI   C2A 2648  12.169  11.861   9.549 -0.2457 -0.4012  0.1625
  166loPI   C3A 2649  12.446  11.843   9.220  0.0560  0.1008  0.2103
  166loPI   C4A 2650  12.231  11.906   8.864  0.0010 -0.1245 -0.2252
  166loPI   C5A 2651  11.994  12.174   8.558  0.0477 -0.2220  0.2206
  166loPI   C6A 2652  11.840  12.509   8.677  0.1166 -0.0010 -0.1604
  166loPI   C1B 2653  11.252  11.874   9.665 -0.0302 -0.1226 -0.1145
  166loPI   C2B 2654  11.334  11.776   9.233  0.2569 -0.1895 -0.1086
  166loPI   C3B 2655  11.281  11.745   8.810  0.0937 -0.0744 -0.3332
  166loPI   C4B 2656  11.189  11.558   8.447  0.1726 -0.1246  0.2049
  167loPI    C1 2657   8.159   2.958   9.839 -0.0936 -0.1821 -0.0029
  167loPI    C2 2658   8.030   3.078  10.198 -0.0588 -0.1466 -0.0020
  167loPI    C3 2659   7.774   3.052   9.892  0.0264  0.4270 -0.1327
  167loPI   PO4 2660   8.378   3.118   9.795 -0.3337  0.0112 -0.1586
  167loPI   GL1 2661   8.315   3.211   9.310 -0.2725 -0.0777 -0.2634
  167loPI   GL2 2662   8.013   3.223   9.392 -0.0130  0.2409 -0.2812
  167loPI   C1A 2663   8.415   2.948   8.960  0.0690  0.0135  0.4639
  167loPI   C2A 2664   8.373   2.840   8.513 -0.3046 -0.3847 -0.0518
  167loPI   C3A 2665   8.345   2.692   8.100  0.0892 -0.0779  0.1449
  167loPI   C4A 2666   8.530   2.800   7.715 -0.1088  0.1756 -0.1282
  167loPI   C5A 2667   8.723   2.823   7.267 -0.0781 -0.2411 -0.0065
  167loPI   C6A 2668   8.621   2.857   6.747  0.1570  0.1573  0.0756
  167loPI   C1B 2669   7.889   3.099   8.981 -0.3448 -0.0842  0.2832
  167loPI   C2B 2670   7.925   3.060   8.568 -0.1128 -0.0636  0.2158
  167loPI   C3B 2671   7.983   3.110   8.143  0.0398  0.0383  0.1062
  167loPI   C4B 2672   7.744   3.233   7.840 -0.1700 -0.0436  0.3575
  168loPI    C1 2673   6.828  16.735  10.619  0.1240  0.1071  0.1239
  168loPI    C2 2674   6.768  16.774  11.013 -0.0970  0.1690  0.0857
  168loPI    C3 2675   6.886  16.423  10.862 -0.1948  0.0925  0.1855
  168loPI   PO4 2676   7.063  16.916  10.581  0.1469 -0.2443  0.1359
  168loPI   GL1 2677   7.160  17.016  10.146  0.3772 -0.0404 -0.3305
  168loPI   GL2 2678   6.946  16.728  10.152  0.1022 -0.1199  0.0083
  168loPI   C1A 2679   7.055  17.293   9.957 -0.2027  0.0453  0.0792
  168loPI   C2A 2680   7.045  17.269   9.499  0.0535  0.2332 -0.1682
  168loPI   C3A 2681   7.059  17.269   9.106  0.0562  0.3501  0.3142
  168loPI   C4A 2682   7.002  17.428   8.706  0.1313  0.0542  0.2147
  168loPI   C5A 2683   6.845  17.432   8.165 -0.0043  0.0254  0.3669
  168loPI   C6A 2684   6.651  17.548   7.685 -0.1425 -0.1485  0.0895
  168loPI   C1B 2685   7.004  16.756   9.771 -0.1194 -0.1214  0.0851
  168loPI   C2B 2686   6.961  16.779   9.319 -0.0674 -0.0165  0.1683
  168loPI   C3B 2687   7.012  16.862   8.885  0.0793  0.1501 -0.0158
  168loPI   C4B 2688   6.944  16.954   8.493  0.1290  0.2707 -0.2821
  169loPI    C1 2689   4.604  16.628  11.282  0.1852 -0.1322 -0.2361
  169loPI    C2 2690   4.943  16.832  11.344 -0.0142  0.0906  0.1577
  169loPI    C3 2691   4.794  16.598  11.633 -0.1200 -0.1236 -0.0669
  169loPI   PO4 2692   4.613  16.474  11.031  0.0690 -0.0226  0.1319
  169loPI   GL1 2693   4.514  16.685  10.644 -0.0529 -0.1989  0.2166
  169loPI   GL2 2694   4.688  16.842  10.626 -0.2215 -0.0280  0.0625
  169loPI   C1A 2695   4.218  16.652  10.319 -0.1093  0.0454 -0.2531
  169loPI   C2A 2696   4.300  16.636   9.891 -0.0688 -0.1259  0.0429
  169loPI   C3A 2697   4.211  16.771   9.459 -0.2706  0.3453  0.0226
  169loPI   C4A 2698   4.288  16.820   9.023  0.1949 -0.0350  0.0214
  169loPI   C5A 2699   4.267  16.738   8.637  0.1098  0.0235 -0.0057
  169loPI   C6A 2700   4.258  16.976   8.312 -0.4856 -0.0870  0.0499
  169loPI   C1B 2701   4.725  16.831  10.221 -0.0428  0.1015  0.4416
  169loPI   C2B 2702   4.745  16.883   9.728  0.1165  0.1566 -0.0416
  169loPI   C3B 2703   4.661  17.073   9.266  0.0749 -0.1394  0.0251
  169loPI   C4B 2704   4.668  17.059   8.857  0.1306  0.2851  0.2521
  170loPI    C1 2705   7.285  16.014  10.996 -0.0247  0.0937 -0.1060
  170loPI    C2 2706   7.003  16.172  11.232 -0.1827 -0.1184 -0.1496
  170loPI    C3 2707   7.229  15.870  11.365  0.0397  0.0636 -0.1078
  170loPI   PO4 2708   7.165  16.001  10.763  0.1668  0.2722 -0.1880
  170loPI   GL1 2709   6.840  16.172  10.385 -0.0769 -0.0125  0.2380
  170loPI   GL2 2710   6.532  16.306  10.498  0.0542  0.0044 -0.0604
  170loPI   C1A 2711   6.972  16.273   9.929 -0.0167  0.0867 -0.0714
  170loPI   C2A 2712   6.993  16.291   9.430 -0.0416 -0.0400 -0.0476
  170loPI   C3A 2713   6.916  16.299   9.006 -0.0759  0.3071  0.1053
  170loPI   C4A 2714   7.068  16.456   8.537 -0.3905 -0.1933  0.1719
  170loPI   C5A 2715   7.239  16.245   8.172 -0.1030 -0.2318  0.2963
  170loPI   C6A 2716   7.338  15.854   8.108 -0.0549 -0.2533 -0.1424
  170loPI   C1B 2717   6.523  16.485  10.113  0.0205 -0.1802 -0.2107
  170loPI   C2B 2718   6.621  16.520   9.685  0.3090 -0.1929 -0.1139
  170loPI   C3B 2719   6.480  16.451   9.269 -0.0860  0.0289  0.0058
  170loPI   C4B 2720   6.499  16.509   8.798 -0.1823 -0.0162  0.3990
  171loPI    C1 2721   3.832  13.213  10.905  0.0434  0.1979 -0.1452
  171loPI    C2 2722   3.465  13.214  11.064  0.1515  0.1503  0.1096
  171loPI    C3 2723   3.569  12.931  10.801  0.0082  0.1609  0.0409
  171loPI   PO4 2724   3.930  13.370  10.879 -0.0069  0.0678  0.0986
  171loPI   GL1 2725   4.035  13.683  10.546  0.0677  0.0037  0.3294
  171loPI   GL2 2726   4.229  13.876  10.417 -0.0627 -0.0473  0.0874
  171loPI   C1A 2727   3.830  13.713  10.109 -0.0829 -0.0043 -0.2544
  171loPI   C2A 2728   3.887  13.788   9.681  0.1765 -0.0475  0.1987
  171loPI   C3A 2729   3.895  13.785   9.239  0.0257 -0.2619 -0.0194
  171loPI   C4A 2730   3.698  13.933   8.931 -0.1702 -0.3289 -0.2709
  171loPI   C5A 2731   3.841  14.322   8.686  0.0186 -0.1408  0.1719
  171loPI   C6A 2732   3.997  14.536   8.353 -0.0999 -0.1326  0.2809
  171loPI   C1B 2733   4.279  13.951   9.901  0.1622 -0.0172  0.3992
  171loPI   C2B 2734   4.272  14.042   9.507  0.1650 -0.2825  0.0973
  171loPI   C3B 2735   4.229  14.158   9.056  0.1280  0.3205  0.0271
  171loPI   C4B 2736   4.319  14.286   8.640  0.0679  0.2109 -0.0689
  172loPI    C1 2737   9.291   4.690  10.514 -0.0972  0.0359  0.0285
  172loPI    C2 2738   9.030   4.985  10.586 -0.1193 -0.0106  0.1420
  172loPI    C3 2739   8.914   4.604  10.620 -0.1556 -0.0363 -0.2316
  172loPI   PO4 2740   9.473   4.736  10.213  0.0454 -0.2366 -0.0569
  172loPI   GL1 2741   9.692   4.792   9.890 -0.2034 -0.0366 -0.1337
  172loPI   GL2 2742  10.026   4.959   9.880  0.2137  0.0289  0.4032
  172loPI   C1A 2743   9.559   4.856   9.434 -0.1421  0.0917 -0.0043
  172loPI   C2A 2744   9.613   4.888   8.975  0.1303 -0.1305  0.0496
  172loPI   C3A 2745   9.638   4.794   8.515 -0.2560  0.1170 -0.1678
  172loPI   C4A 2746   9.519   4.758   8.044  0.2185 -0.0376 -0.1223
  172loPI   C5A 2747   9.569   4.337   7.939 -0.3104 -0.0857 -0.0487
  172loPI   C6A 2748   9.451   4.077   7.684 -0.1012 -0.0830 -0.0550
  172loPI   C1B 2749  10.022   4.982   9.486 -0.2561 -0.1550  0.1626
  172loPI   C2B 2750  10.048   5.066   9.155 -0.0788 -0.1045 -0.1066
  172loPI   C3B 2751   9.991   5.134   8.704 -0.0034 -0.0939  0.1222
  172loPI   C4B 2752   9.887   5.472   8.382 -0.1482  0.0606  0.0395
  173loPI    C1 2753   1.493   0.163  11.336 -0.0982  0.6632 -0.1222
  173loPI    C2 2754   1.888   0.140  11.275 -0.1062 -0.0602  0.0126
  173loPI    C3 2755   1.741   0.104  11.645 -0.3140 -0.0511 -0.0680
  173loPI   PO4 2756   1.255  -0.093  11.109 -0.1213  0.1485  0.1895
  173loPI   GL1 2757   1.430  -0.207  10.782 -0.2979 -0.1745  0.1764
  173loPI   GL2 2758   1.796  -0.142  10.846 -0.0085  0.0956  0.0359
  173loPI   C1A 2759   1.385  -0.374  10.382  0.2853  0.0211 -0.0710
  173loPI   C2A 2760   1.383  -0.541   9.952 -0.2609 -0.2442 -0.1896
  173loPI   C3A 2761   1.498  -0.668   9.614 -0.3076 -0.0336  0.0646
  173loPI   C4A 2762   1.467  -0.617   9.193 -0.0205 -0.1193  0.2744
  173loPI   C5A 2763   1.258  -0.346   8.998  0.0773  0.0405  0.2220
  173loPI   C6A 2764   1.368  -0.083   8.728  0.0251  0.0698 -0.0650
  173loPI   C1B 2765   1.792  -0.184  10.374 -0.1318  0.3028 -0.1371
  173loPI   C2B 2766   1.833  -0.307   9.967 -0.0556  0.1595  0.0647
  173loPI   C3B 2767   1.964  -0.328   9.551 -0.2781  0.0279  0.0202
  173loPI   C4B 2768   1.875  -0.388   9.162 -0.0874 -0.2406  0.0228
  174loPI    C1 2769  17.182   3.695  10.457 -0.1100 -0.0560  0.2048
  174loPI    C2 2770  16.901   3.955  10.575  0.0346  0.2012 -0.0077
  174loPI    C3 2771  16.800   3.579  10.485 -0.2753  0.3408 -0.2635
  174loPI   PO4 2772  17.268   3.769  10.274 -0.0463  0.1457  0.1062
  174loPI   GL1 2773  17.299   3.878   9.830  0.1398  0.1534  0.0822
  174loPI   GL2 2774  17.112   4.119   9.717  0.0284 -0.2398  0.0970
  174loPI   C1A 2775  17.093   3.657   9.484  0.0180 -0.0664 -0.1621
  174loPI   C2A 2776  17.041   3.614   9.072 -0.1276  0.1629  0.1723
  174loPI   C3A 2777  17.168   3.444   8.712 -0.1214  0.3674  0.0579
  174loPI   C4A 2778  17.052   3.230   8.378  0.1458 -0.0701 -0.0720
  174loPI   C5A 2779  16.806   3.107   7.976 -0.0427  0.1308 -0.2163
  174loPI   C6A 2780  16.655   3.125   7.548  0.0617  0.3118 -0.0635
  174loPI   C1B 2781  17.110   4.215   9.320 -0.1645 -0.1466 -0.1001
  174loPI   C2B 2782  17.016   4.092   8.972 -0.1652  0.1489  0.1128
  174loPI   C3B 2783  16.874   3.813   8.642 -0.0595 -0.0383  0.0022
  174loPI   C4B 2784  16.754   3.641   8.350 -0.0592  0.1166  0.3210
  175loPI    C1 2785   2.165   5.292  10.890 -0.0547 -0.2162  0.1633
  175loPI    C2 2786   1.925   5.240  11.206 -0.2014 -0.0821  0.0753
  175loPI    C3 2787   2.194   4.960  11.111 -0.1460 -0.1163  0.3274
  175loPI   PO4 2788   2.043   5.379  10.669 -0.1703  0.3118  0.0820
  175loPI   GL1 2789   2.194   5.299  10.281  0.3268  0.2185 -0.0645
  175loPI   GL2 2790   2.059   5.540  10.223 -0.0118  0.0700  0.0814
  175loPI   C1A 2791   2.383   5.139   9.905  0.1568  0.1157  0.0628
  175loPI   C2A 2792   2.353   5.134   9.532 -0.1338 -0.2196  0.1628
  175loPI   C3A 2793   2.285   5.149   9.063 -0.0413 -0.0088 -0.0881
  175loPI   C4A 2794   2.333   5.066   8.606  0.0636 -0.1330  0.3966
  175loPI   C5A 2795   2.172   5.102   8.146  0.2179 -0.3470  0.0015
  175loPI   C6A 2796   2.114   4.787   7.772  0.1684  0.0916 -0.0159
  175loPI   C1B 2797   2.007   5.468   9.801  0.1706 -0.2840 -0.0566
  175loPI   C2B 2798   1.932   5.397   9.401 -0.1450  0.0008  0.2534
  175loPI   C3B 2799   1.820   5.386   8.937  0.1225 -0.1265  0.0330
  175loPI   C4B 2800   1.978   5.402   8.507 -0.0724 -0.2193  0.1728
  176loPI    C1 2801   5.042   6.805  11.083 -0.0949  0.0284  0.0957
  176loPI    C2 2802   4.878   7.070  11.334  0.0240  0.0235  0.1797
  176loPI    C3 2803   4.806   6.679  11.381 -0.0594  0.0322  0.1256
  176loPI   PO4 2804   5.050   6.983  10.833 -0.0582 -0.2664 -0.2118
  176loPI   GL1 2805   5.295   6.986  10.448 -0.2541  0.0166  0.1746
  176loPI   GL2 2806   5.079   7.059  10.248  0.0581  0.0197 -0.2717
  176loPI   C1A 2807   5.535   7.037  10.124 -0.2203 -0.0844 -0.0024
  176loPI   C2A 2808   5.633   7.074   9.676 -0.0314  0.1771 -0.0501
  176loPI   C3A 2809   5.660   7.033   9.236 -0.3165 -0.1563  0.0015
  176loPI   C4A 2810   5.508   6.957   8.767  0.4230  0.2385  0.0107
  176loPI   C5A 2811   5.609   7.130   8.333  0.0123 -0.3349 -0.0070
  176loPI   C6A 2812   5.430   7.183   7.978 -0.4166  0.2512  0.1336
  176loPI   C1B 2813   4.939   7.138   9.821  0.1937 -0.2023 -0.3636
  176loPI   C2B 2814   4.989   7.099   9.458  0.1622 -0.1394 -0.1746
  176loPI   C3B 2815   5.197   7.160   9.104 -0.0309 -0.1968  0.4513
  176loPI   C4B 2816   5.159   7.337   8.699  0.0917 -0.0538 -0.0887
  177loPI    C1 2817  11.316   8.014  10.962 -0.2334  0.0078  0.0970
  177loPI    C2 2818  11.113   8.249  10.710 -0.1335  0.0740  0.0772
  177loPI    C3 2819  11.171   8.365  11.089 -0.0177  0.1170  0.0466
  177loPI   PO4 2820  11.523   7.955  10.825 -0.1017  0.1792 -0.3086
  177loPI   GL1 2821  11.522   7.872  10.458 -0.4576 -0.0383  0.1722
  177loPI   GL2 2822  11.493   8.224  10.360 -0.0909 -0.1072  0.0132
  177loPI   C1A 2823  11.968   7.825  10.260 -0.0068  0.0676 -0.1761
  177loPI   C2A 2824  12.260   7.906   9.865  0.1580 -0.2344 -0.1947
  177loPI   C3A 2825  12.229   7.881   9.443 -0.0690  0.2508 -0.2314
  177loPI   C4A 2826  12.386   8.103   9.059 -0.2550  0.1916  0.1336
  177loPI   C5A 2827  12.641   8.366   8.797  0.1274 -0.2361  0.2873
  177loPI   C6A 2828  12.603   8.650   8.594 -0.0651 -0.2538  0.0530
  177loPI   C1B 2829  11.442   8.113   9.995 -0.2499 -0.0222  0.0024
  177loPI   C2B 2830  11.352   8.163   9.505 -0.1297 -0.0796  0.1171
  177loPI   C3B 2831  11.327   8.010   9.061  0.0379 -0.3716 -0.3941
  177loPI   C4B 2832  11.094   8.086   8.753  0.1043 -0.0985 -0.0169
  178loPI    C1 2833  13.693   0.471  10.703 -0.0015 -0.0959 -0.1439
  178loPI    C2 2834  13.878   0.339  11.032  0.2779 -0.0930 -0.2966
  178loPI    C3 2835  13.735   0.713  11.019 -0.0644 -0.2104 -0.0472
  178loPI   PO4 2836  13.875   0.370  10.527  0.2617 -0.0517 -0.0972
  178loPI   GL1 2837  13.882   0.423  10.161 -0.1467 -0.0329  0.0570
  178loPI   GL2 2838  13.907   0.767  10.083 -0.3325 -0.1320  0.1745
  178loPI   C1A 2839  14.044   0.404   9.760  0.1522 -0.0523  0.0942
  178loPI   C2A 2840  14.107   0.111   9.431  0.0559 -0.3200  0.0192
  178loPI   C3A 2841  14.077  -0.081   9.043 -0.3836  0.0397  0.2377
  178loPI   C4A 2842  14.089  -0.481   8.805  0.0758  0.1837 -0.0541
  178loPI   C5A 2843  13.838  -0.667   8.435  0.2440  0.1229  0.1432
  178loPI   C6A 2844  13.421  -0.722   8.209  0.0272 -0.1302 -0.3843
  178loPI   C1B 2845  13.624   0.666   9.686  0.0776  0.1184  0.0601
  178loPI   C2B 2846  13.725   0.422   9.390  0.1948 -0.1603 -0.1549
  178loPI   C3B 2847  13.869   0.394   9.057  0.0540  0.0574  0.0266
  178loPI   C4B 2848  14.011   0.431   8.634  0.1012 -0.1510 -0.1683
  179loPI    C1 2849   6.724   8.638  10.664 -0.4465 -0.2565 -0.1649
  179loPI    C2 2850   6.595   8.713  11.035 -0.0693 -0.0440 -0.0722
  179loPI    C3 2851   6.589   9.002  10.758  0.2786 -0.0024 -0.0417
  179loPI   PO4 2852   6.870   8.539  10.649 -0.1062  0.0302 -0.1386
  179loPI   GL1 2853   7.107   8.539  10.296 -0.0280  0.0939 -0.2867
  179loPI   GL2 2854   7.090   8.228  10.119 -0.0511  0.0689  0.0693
  179loPI   C1A 2855   7.106   8.763   9.924  0.2658 -0.2099 -0.1284
  179loPI   C2A 2856   7.105   8.745   9.403 -0.1321  0.0531  0.1681
  179loPI   C3A 2857   7.080   8.707   8.964 -0.2294  0.1070 -0.0683
  179loPI   C4A 2858   7.139   8.942   8.572 -0.0964 -0.0836  0.0477
  179loPI   C5A 2859   6.945   8.861   8.154  0.0320  0.1483 -0.0674
  179loPI   C6A 2860   6.653   9.029   7.813  0.4580 -0.0906  0.1403
  179loPI   C1B 2861   7.115   8.198   9.684 -0.0183  0.0741 -0.0558
  179loPI   C2B 2862   7.075   8.155   9.268  0.0497  0.1227 -0.3209
  179loPI   C3B 2863   7.124   8.126   8.812 -0.1237 -0.0584  0.0021
  179loPI   C4B 2864   7.111   8.427   8.402  0.2535  0.0440  0.1853
  180loPI    C1 2865   3.083  12.449  10.973  0.1585 -0.0038  0.1380
  180loPI    C2 2866   3.391  12.620  11.162  0.1505 -0.0356  0.1801
  180loPI    C3 2867   3.193  12.320  11.335  0.0808  0.0005  0.1634
  180loPI   PO4 2868   3.170  12.465  10.715  0.2793 -0.2701 -0.0980
  180loPI   GL1 2869   3.129  12.765  10.456  0.0152  0.1767  0.0707
  180loPI   GL2 2870   2.900  12.644  10.265  0.0548  0.0788  0.0937
  180loPI   C1A 2871   3.368  12.854  10.109  0.0300 -0.2177  0.0446
  180loPI   C2A 2872   3.311  12.862   9.636  0.1304 -0.2604  0.1785
  180loPI   C3A 2873   3.305  13.026   9.256  0.1940 -0.0185  0.0139
  180loPI   C4A 2874   3.327  13.178   8.796 -0.0825 -0.0158 -0.2017
  180loPI   C5A 2875   3.156  13.228   8.406  0.0265  0.1507  0.2559
  180loPI   C6A 2876   2.947  13.226   8.028 -0.0342  0.0660  0.0520
  180loPI   C1B 2877   2.840  12.725   9.885  0.1199  0.1245  0.0397
  180loPI   C2B 2878   2.872  12.819   9.399  0.3188 -0.0164  0.0145
  180loPI   C3B 2879   2.848  12.884   8.885 -0.0961  0.2781  0.0734
  180loPI   C4B 2880   2.586  12.852   8.448  0.4549  0.2236  0.0490
  181loPI    C1 2881   1.777  17.203  11.077  0.0124 -0.3561  0.1111
  181loPI    C2 2882   2.097  17.420  11.177 -0.0619 -0.1125 -0.1655
  181loPI    C3 2883   1.732  17.535  11.294 -0.0911 -0.1481 -0.2211
  181loPI   PO4 2884   1.858  17.025  11.116  0.1485  0.3006 -0.1798
  181loPI   GL1 2885   1.791  16.756  10.755 -0.1199  0.1629 -0.2002
  181loPI   GL2 2886   1.490  16.841  10.855  0.0596  0.1127  0.4252
  181loPI   C1A 2887   1.913  16.500  10.423 -0.1267  0.1527  0.1733
  181loPI   C2A 2888   1.855  16.342  10.016  0.2792 -0.2022  0.3020
  181loPI   C3A 2889   1.843  16.468   9.597 -0.4451 -0.3430 -0.3965
  181loPI   C4A 2890   1.976  16.364   9.105 -0.4069  0.1012 -0.2492
  181loPI   C5A 2891   2.079  16.347   8.656  0.1838 -0.0126  0.2507
  181loPI   C6A 2892   2.089  16.656   8.258 -0.1180 -0.1128 -0.2162
  181loPI   C1B 2893   1.468  16.776  10.332  0.1090 -0.0787 -0.2141
  181loPI   C2B 2894   1.458  16.723   9.864 -0.0168 -0.1103 -0.4367
  181loPI   C3B 2895   1.537  16.811   9.389  0.1241  0.2149  0.0129
  181loPI   C4B 2896   1.598  16.656   8.944 -0.1887 -0.1798  0.1915
  182loPI    C1 2897   6.956  14.616  10.733 -0.1725 -0.2506  0.1314
  182loPI    C2 2898   7.315  14.441  10.748 -0.0657 -0.0403  0.0666
  182loPI    C3 2899   7.128  14.543  11.087  0.0175  0.0139  0.0968
  182loPI   PO4 2900   6.972  14.843  10.619 -0.0734  0.0109  0.1687
  182loPI   GL1 2901   6.655  15.219  10.432  0.1516 -0.1744  0.0089
  182loPI   GL2 2902   6.556  14.890  10.229 -0.1051  0.3209 -0.0016
  182loPI   C1A 2903   6.484  15.420  10.018 -0.0163 -0.0474  0.1556
  182loPI   C2A 2904   6.440  15.526   9.536  0.2601 -0.0448  0.0884
  182loPI   C3A 2905   6.465  15.530   9.096 -0.1159 -0.4449 -0.0988
  182loPI   C4A 2906   6.446  15.546   8.615  0.4133 -0.0778 -0.1825
  182loPI   C5A 2907   6.536  15.426   8.222 -0.1210 -0.0562 -0.1089
  182loPI   C6A 2908   6.661  15.380   7.803 -0.0900 -0.1774 -0.0201
  182loPI   C1B 2909   6.481  15.005   9.778  0.0837 -0.0623 -0.4253
  182loPI   C2B 2910   6.424  15.047   9.430  0.0086  0.3402  0.1217
  182loPI   C3B 2911   6.538  15.049   8.915  0.2389 -0.1095 -0.1714
  182loPI   C4B 2912   6.447  15.018   8.490  0.0247  0.0117  0.1835
  183loPI    C1 2913  12.867   3.856  10.455  0.1149 -0.0095 -0.0156
  183loPI    C2 2914  12.606   3.658  10.684  0.0773  0.1390  0.0715
  183loPI    C3 2915  12.964   3.758  10.831  0.0617  0.2147  0.0581
  183loPI   PO4 2916  12.697   4.051  10.366 -0.0266 -0.0902 -0.0695
  183loPI   GL1 2917  12.680   4.187  10.046 -0.1364  0.0065 -0.0436
  183loPI   GL2 2918  12.365   4.065   9.936 -0.2519 -0.0466 -0.1047
  183loPI   C1A 2919  12.696   4.333   9.645  0.2024  0.0418 -0.1167
  183loPI   C2A 2920  12.657   4.396   9.221  0.5715 -0.1040 -0.2171
  183loPI   C3A 2921  12.783   4.646   8.788 -0.0188  0.1448  0.0146
  183loPI   C4A 2922  12.756   4.621   8.317 -0.3053  0.0208  0.0121
  183loPI   C5A 2923  12.387   4.785   8.158  0.2760 -0.2112 -0.2288
  183loPI   C6A 2924  12.020   4.908   7.899  0.5859 -0.0302  0.2172
  183loPI   C1B 2925  12.242   4.219   9.506  0.4037 -0.1889  0.0891
  183loPI   C2B 2926  12.163   4.346   9.100 -0.1504 -0.1582  0.1134
  183loPI   C3B 2927  12.210   4.524   8.620  0.0514  0.0947  0.3947
  183loPI   C4B 2928  11.906   4.459   8.266 -0.3332  0.0130 -0.1216
  184loPI    C1 2929  15.687  14.110  11.051 -0.2551  0.1489 -0.0932
  184loPI    C2 2930  16.045  13.949  11.126 -0.2551  0.1249 -0.1440
  184loPI    C3 2931  15.717  13.793  11.293 -0.2322  0.2044 -0.0226
  184loPI   PO4 2932  15.681  14.039  10.782  0.0744 -0.0239 -0.1715
  184loPI   GL1 2933  15.414  13.893  10.504 -0.0408 -0.0212  0.1856
  184loPI   GL2 2934  15.530  13.523  10.332  0.3205  0.1219  0.0620
  184loPI   C1A 2935  15.188  13.820  10.062 -0.1297  0.3885  0.1003
  184loPI   C2A 2936  15.172  13.754   9.711  0.1376  0.0895  0.0644
  184loPI   C3A 2937  15.352  13.750   9.236  0.1607 -0.0982  0.1909
  184loPI   C4A 2938  15.350  13.743   8.785 -0.2632  0.3316 -0.0273
  184loPI   C5A 2939  15.056  13.777   8.601  0.0215 -0.1669 -0.2115
  184loPI   C6A 2940  14.706  13.706   8.309 -0.1506 -0.2461 -0.0351
  184loPI   C1B 2941  15.562  13.449   9.903  0.0648  0.0726  0.1934
  184loPI   C2B 2942  15.621  13.364   9.495  0.0196  0.0493  0.0645
  184loPI   C3B 2943  15.554  13.155   9.088 -0.2709 -0.1172 -0.0520
  184loPI   C4B 2944  15.716  13.193   8.656  0.2227  0.1281 -0.1943
  185loPI    C1 2945   6.606   2.138  10.122 -0.0296  0.1866 -0.1661
  185loPI    C2 2946   6.897   2.383  10.245 -0.2148  0.3553 -0.0593
  185loPI    C3 2947   6.531   2.411  10.405 -0.2541  0.0503 -0.0915
  185loPI   PO4 2948   6.685   1.873  10.072  0.1325 -0.1714 -0.0041
  185loPI   GL1 2949   6.766   1.800   9.708 -0.2903 -0.3093  0.4552
  185loPI   GL2 2950   6.834   2.153   9.662  0.1180  0.0700  0.1839
  185loPI   C1A 2951   6.670   1.830   9.325  0.0046  0.0117  0.1045
  185loPI   C2A 2952   6.595   1.679   8.965  0.1163 -0.1666  0.2021
  185loPI   C3A 2953   6.519   1.849   8.604  0.0028 -0.0643 -0.1438
  185loPI   C4A 2954   6.308   1.873   8.122 -0.3547 -0.0012 -0.1486
  185loPI   C5A 2955   6.148   2.208   7.804  0.2281 -0.1107 -0.0696
  185loPI   C6A 2956   5.893   2.554   7.719 -0.2752  0.2921  0.2354
  185loPI   C1B 2957   7.070   2.183   9.240  0.2124  0.2873 -0.2581
  185loPI   C2B 2958   6.931   2.125   8.822 -0.0883  0.1283  0.1373
  185loPI   C3B 2959   6.859   2.098   8.399 -0.2226 -0.2915  0.0201
  185loPI   C4B 2960   6.894   2.064   7.974  0.6056 -0.0461 -0.1708
  186loPI    C1 2961   8.433   6.986  10.770  0.4183 -0.1566  0.1569
  186loPI    C2 2962   8.120   6.757  10.867  0.0906  0.0690 -0.3297
  186loPI    C3 2963   8.213   7.074  11.093  0.0615 -0.0841 -0.0996
  186loPI   PO4 2964   8.560   6.781  10.544 -0.1648  0.2208  0.1169
  186loPI   GL1 2965   8.689   6.907  10.097 -0.1485 -0.0622  0.1756
  186loPI   GL2 2966   8.511   6.598  10.077 -0.2594  0.0690 -0.2832
  186loPI   C1A 2967   8.655   7.200   9.730  0.1625 -0.0492 -0.2077
  186loPI   C2A 2968   8.561   7.010   9.363 -0.0097 -0.0288 -0.1243
  186loPI   C3A 2969   8.418   6.817   9.008  0.1209 -0.1439  0.0813
  186loPI   C4A 2970   8.439   6.964   8.513 -0.1321 -0.0849 -0.1766
  186loPI   C5A 2971   8.345   6.789   8.103  0.0992 -0.2983  0.0578
  186loPI   C6A 2972   8.139   6.392   8.033  0.1182  0.0188 -0.3146
  186loPI   C1B 2973   8.421   6.545   9.629  0.1469 -0.1063 -0.1475
  186loPI   C2B 2974   8.398   6.297   9.247  0.2784 -0.2101 -0.2338
  186loPI   C3B 2975   8.291   6.281   8.845 -0.0475 -0.0873 -0.0691
  186loPI   C4B 2976   8.352   6.458   8.458 -0.1433  0.1128 -0.0357
  187loPI    C1 2977   1.057   3.738  10.530  0.1723 -0.1527 -0.0380
  187loPI    C2 2978   0.757   3.686  10.789 -0.0363 -0.0424 -0.2530
  187loPI    C3 2979   1.119   3.533  10.868 -0.1340 -0.1329  0.0326
  187loPI   PO4 2980   0.910   3.765  10.268  0.1049  0.0741 -0.0579
  187loPI   GL1 2981   0.921   3.911   9.853 -0.2095  0.1998 -0.1504
  187loPI   GL2 2982   0.560   4.023   9.941  0.3560  0.0362 -0.1268
  187loPI   C1A 2983   0.847   3.952   9.431  0.0618 -0.0719 -0.3115
  187loPI   C2A 2984   0.905   3.961   8.972 -0.0037  0.0902  0.5557
  187loPI   C3A 2985   0.838   3.816   8.503  0.0511  0.2021  0.3896
  187loPI   C4A 2986   1.076   3.690   8.226 -0.2990 -0.2532 -0.2517
  187loPI   C5A 2987   1.310   3.896   7.908 -0.3256  0.0556  0.0583
  187loPI   C6A 2988   1.373   3.870   7.542 -0.3413 -0.1612 -0.0369
  187loPI   C1B 2989   0.390   4.147   9.500  0.3031 -0.2828 -0.0208
  187loPI   C2B 2990   0.443   4.058   9.124 -0.0941 -0.0303  0.0064
  187loPI   C3B 2991   0.446   4.090   8.698 -0.1179 -0.1969  0.3434
  187loPI   C4B 2992   0.410   4.208   8.254 -0.0608 -0.0084  0.2421
  188loPI    C1 2993   7.962   4.939  10.443 -0.2074  0.0662 -0.1198
  188loPI    C2 2994   7.680   4.810  10.695  0.0655  0.0674  0.1918
  188loPI    C3 2995   7.857   4.553  10.445 -0.0466  0.0212  0.1596
  188loPI   PO4 2996   7.872   5.136  10.345  0.1069 -0.1370  0.2626
  188loPI   GL1 2997   7.885   5.379  10.011 -0.0680  0.0083 -0.0779
  188loPI   GL2 2998   8.141   5.502   9.830 -0.1358  0.3222  0.0153
  188loPI   C1A 2999   7.899   5.117   9.650 -0.4692  0.0013 -0.0939
  188loPI   C2A 3000   7.966   5.037   9.233 -0.2622  0.5542 -0.0245
  188loPI   C3A 3001   8.209   4.813   8.994 -0.0217  0.1734 -0.0638
  188loPI   C4A 3002   8.176   4.537   8.621 -0.0646 -0.1291 -0.0216
  188loPI   C5A 3003   8.123   4.535   8.147 -0.0280 -0.1429  0.1859
  188loPI   C6A 3004   8.088   4.407   7.718  0.0717  0.0838 -0.3061
  188loPI   C1B 3005   7.920   5.610   9.469  0.2305  0.3159 -0.0657
  188loPI   C2B 3006   7.845   5.580   9.122 -0.0702  0.2818  0.0704
  188loPI   C3B 3007   7.752   5.560   8.714  0.1339  0.0939 -0.0098
  188loPI   C4B 3008   7.776   5.574   8.380 -0.4327 -0.1058  0.2438
  189loPI    C1 3009   3.088   5.528  10.681  0.1037 -0.1858 -0.2088
  189loPI    C2 3010   2.840   5.685  10.954  0.1941 -0.5470  0.0894
  189loPI    C3 3011   3.230   5.776  10.961  0.1375 -0.2719 -0.1492
  189loPI   PO4 3012   3.009   5.600  10.467 -0.0149  0.0912  0.2986
  189loPI   GL1 3013   3.150   5.682  10.118 -0.1299 -0.1712 -0.1534
  189loPI   GL2 3014   2.917   5.956  10.135  0.0887 -0.0766 -0.0636
  189loPI   C1A 3015   3.342   5.623   9.758  0.1430 -0.1953 -0.0692
  189loPI   C2A 3016   3.248   5.598   9.375 -0.0838  0.0977  0.0766
  189loPI   C3A 3017   3.232   5.597   8.890  0.0009 -0.0255 -0.1291
  189loPI   C4A 3018   3.194   5.557   8.546  0.3096 -0.0457 -0.2465
  189loPI   C5A 3019   3.145   5.731   8.194  0.3273 -0.1850  0.2847
  189loPI   C6A 3020   3.128   6.159   8.197 -0.2088 -0.1625  0.2985
  189loPI   C1B 3021   2.859   5.932   9.778 -0.0364  0.1174  0.1786
  189loPI   C2B 3022   2.831   5.867   9.327 -0.0174  0.0608 -0.1426
  189loPI   C3B 3023   2.775   5.886   8.964  0.1494  0.1476  0.0868
  189loPI   C4B 3024   2.718   5.892   8.521 -0.2363  0.2184  0.1678
  190loPI    C1 3025   7.236   0.829  10.212 -0.1474 -0.0333  0.0170
  190loPI    C2 3026   7.199   1.075  10.526 -0.1276  0.1824 -0.1473
  190loPI    C3 3027   7.531   0.856  10.482 -0.1239  0.1631 -0.0263
  190loPI   PO4 3028   7.156   0.930  10.052  0.0596 -0.2038  0.0615
  190loPI   GL1 3029   7.248   1.009   9.671 -0.0291  0.0345 -0.0263
  190loPI   GL2 3030   7.421   0.694   9.643  0.1752  0.1040 -0.0652
  190loPI   C1A 3031   7.088   1.075   9.264 -0.0002  0.0090  0.2824
  190loPI   C2A 3032   7.048   1.049   8.835  0.1656  0.1142 -0.2264
  190loPI   C3A 3033   6.821   0.962   8.526  0.3214  0.0965  0.3363
  190loPI   C4A 3034   6.740   0.978   8.100 -0.0925  0.0386  0.2080
  190loPI   C5A 3035   6.393   1.107   7.826 -0.0057  0.2915 -0.1490
  190loPI   C6A 3036   6.203   1.312   8.086  0.2018  0.0168  0.2012
  190loPI   C1B 3037   7.500   0.723   9.292 -0.0688 -0.0935 -0.1492
  190loPI   C2B 3038   7.402   0.708   9.000  0.0523  0.0534 -0.0156
  190loPI   C3B 3039   7.463   0.776   8.637  0.0482  0.0832  0.2270
  190loPI   C4B 3040   7.223   0.872   8.239 -0.2375 -0.1288  0.1636
  191loPI    C1 3041   6.206   8.631  10.763 -0.0182 -0.0787 -0.0833
  191loPI    C2 3042   5.932   8.420  10.964 -0.0292  0.0068 -0.0083
  191loPI    C3 3043   6.065   8.768  11.111 -0.0420  0.0729 -0.1520
  191loPI   PO4 3044   6.222   8.663  10.525  0.1024  0.4037 -0.2204
  191loPI   GL1 3045   6.373   8.567  10.119  0.0696 -0.0106  0.0897
  191loPI   GL2 3046   6.681   8.640  10.108  0.1944 -0.2166 -0.0220
  191loPI   C1A 3047   6.195   8.713   9.663 -0.0375 -0.1075 -0.2901
  191loPI   C2A 3048   6.224   8.743   9.179  0.1208 -0.2899  0.0847
  191loPI   C3A 3049   6.198   8.789   8.748 -0.2444  0.1167 -0.1893
  191loPI   C4A 3050   6.255   8.920   8.356 -0.1427  0.1200  0.0311
  191loPI   C5A 3051   6.509   9.324   8.205 -0.0176  0.0666  0.0728
  191loPI   C6A 3052   6.897   9.646   8.077 -0.1191  0.2361  0.2563
  191loPI   C1B 3053   6.678   8.497   9.657  0.0052  0.0255 -0.1846
  191loPI   C2B 3054   6.644   8.478   9.205 -0.0830 -0.1243  0.1041
  191loPI   C3B 3055   6.650   8.515   8.756 -0.0729  0.0839 -0.2999
  191loPI   C4B 3056   6.591   8.542   8.316 -0.1366  0.2332  0.1954
  192loPI    C1 3057  16.002   1.309  10.771  0.0395  0.1104 -0.0428
  192loPI    C2 3058  16.401   1.290  10.786  0.0217 -0.2204  0.0977
  192loPI    C3 3059  16.199   1.481  11.074  0.0859  0.1374 -0.0884
  192loPI   PO4 3060  15.961   1.336  10.528  0.1233 -0.2066  0.0261
  192loPI   GL1 3061  16.047   1.463  10.237 -0.0308 -0.0764  0.1684
  192loPI   GL2 3062  15.941   1.748  10.161  0.0097  0.3722  0.2195
  192loPI   C1A 3063  16.187   1.276   9.888  0.0926 -0.0168  0.0075
  192loPI   C2A 3064  15.944   1.178   9.550  0.0161 -0.0611  0.0806
  192loPI   C3A 3065  15.858   1.255   9.035  0.3768 -0.0572 -0.3934
  192loPI   C4A 3066  15.884   1.078   8.652  0.0316 -0.2815  0.1531
  192loPI   C5A 3067  16.160   0.943   8.398  0.3571 -0.1830 -0.0922
  192loPI   C6A 3068  16.375   0.628   8.210  0.0524  0.0025 -0.2429
  192loPI   C1B 3069  16.065   1.739   9.717 -0.1131 -0.1262  0.0069
  192loPI   C2B 3070  16.098   1.649   9.262 -0.0188 -0.0764  0.1218
  192loPI   C3B 3071  16.296   1.538   8.802 -0.0615  0.2113  0.1037
  192loPI   C4B 3072  16.188   1.437   8.435  0.0137 -0.1573 -0.0858
  193loPI    C1 3073   6.415  17.266  10.937 -0.0046  0.0804  0.0813
  193loPI    C2 3074   6.488  17.595  11.152  0.0567  0.0574  0.0960
  193loPI    C3 3075   6.179  17.360  11.246  0.0314  0.0941  0.1046
  193loPI   PO4 3076   6.667  17.199  10.782 -0.0091  0.2887 -0.0415
  193loPI   GL1 3077   6.664  17.133  10.336 -0.0294  0.0147 -0.1879
  193loPI   GL2 3078   6.268  17.131  10.385  0.2026 -0.1431  0.0462
  193loPI   C1A 3079   6.600  16.993   9.902  0.0649  0.0379  0.0446
  193loPI   C2A 3080   6.532  16.978   9.468 -0.0016 -0.0183 -0.0022
  193loPI   C3A 3081   6.540  16.978   9.073 -0.1737 -0.3590 -0.1317
  193loPI   C4A 3082   6.484  17.088   8.595  0.2110 -0.1407 -0.1171
  193loPI   C5A 3083   6.428  16.744   8.335  0.1676 -0.0490  0.0579
  193loPI   C6A 3084   6.727  16.370   8.222 -0.0587  0.1732  0.0127
  193loPI   C1B 3085   6.088  17.327   9.948 -0.1682  0.2535  0.0344
  193loPI   C2B 3086   5.994  17.327   9.521 -0.1033  0.0047  0.3019
  193loPI   C3B 3087   6.037  17.262   8.992 -0.0762 -0.0690  0.1089
  193loPI   C4B 3088   6.056  17.361   8.579 -0.1845  0.0553  0.0529
  194loPI    C1 3089  14.851  17.431  10.915 -0.0231 -0.2816 -0.0053
  194loPI    C2 3090  14.549  17.667  11.029  0.0629 -0.0770 -0.1915
  194loPI    C3 3091  14.509  17.269  11.043 -0.0324 -0.0565  0.2643
  194loPI   PO4 3092  14.959  17.484  10.583  0.2419 -0.0913  0.2981
  194loPI   GL1 3093  14.899  17.291  10.235  0.0135  0.0332 -0.0483
  194loPI   GL2 3094  14.655  17.557  10.092  0.1269  0.1260  0.4853
  194loPI   C1A 3095  15.021  17.274   9.857 -0.2493  0.0434 -0.2728
  194loPI   C2A 3096  14.800  17.247   9.455  0.0425  0.0954  0.1391
  194loPI   C3A 3097  14.988  17.296   9.049  0.1251 -0.2079  0.0867
  194loPI   C4A 3098  15.158  17.501   8.704 -0.4162 -0.0674 -0.0923
  194loPI   C5A 3099  15.367  17.569   8.385 -0.1290  0.0714 -0.0593
  194loPI   C6A 3100  15.567  17.920   8.231  0.0150  0.0479 -0.0729
  194loPI   C1B 3101  14.299  17.553   9.984  0.1668 -0.1867 -0.2426
  194loPI   C2B 3102  13.938  17.788   9.859  0.0623 -0.1112  0.1016
  194loPI   C3B 3103  13.554  18.125   9.857 -0.2125  0.1949  0.0811
  194loPI   C4B 3104  13.224  18.206   9.842 -0.1163 -0.0983  0.0064
  195loPI    C1 3105  12.812  15.860  10.666 -0.1615  0.2452  0.0543
  195loPI    C2 3106  12.911  15.692  11.016  0.0921 -0.0985 -0.1759
  195loPI    C3 3107  12.526  15.744  10.920  0.0180 -0.1761  0.0724
  195loPI   PO4 3108  12.838  15.757  10.460 -0.0770  0.1008 -0.1833
  195loPI   GL1 3109  12.927  15.661   9.992  0.3500 -0.0815 -0.0639
  195loPI   GL2 3110  13.133  15.761   9.835 -0.2942  0.0564 -0.1882
  195loPI   C1A 3111  12.831  15.292   9.830  0.0289  0.2098  0.1797
  195loPI   C2A 3112  12.682  15.160   9.511 -0.0947 -0.0630 -0.0008
  195loPI   C3A 3113  12.728  15.024   9.009  0.0566 -0.0360 -0.0912
  195loPI   C4A 3114  12.929  14.996   8.735  0.0609  0.2418  0.4236
  195loPI   C5A 3115  13.040  14.829   8.317  0.1527 -0.0801 -0.0071
  195loPI   C6A 3116  12.927  14.506   8.008  0.1238 -0.2680  0.0335
  195loPI   C1B 3117  12.777  15.714   9.544 -0.1598 -0.1918 -0.0691
  195loPI   C2B 3118  12.680  15.579   9.210 -0.1071 -0.0371  0.1717
  195loPI   C3B 3119  12.604  15.564   8.768 -0.1441 -0.1579  0.1538
  195loPI   C4B 3120  12.424  15.582   8.353 -0.1263  0.3196 -0.2141
  196loPI    C1 3121  10.738   5.984  10.810  0.0573 -0.0588  0.2096
  196loPI    C2 3122  10.857   6.068  11.183  0.1134 -0.0116  0.1812
  196loPI    C3 3123  11.102   5.872  10.934  0.2207  0.2796  0.0515
  196loPI   PO4 3124  10.713   6.202  10.682  0.0135  0.0246  0.0432
  196loPI   GL1 3125  10.485   6.411  10.352 -0.1812  0.1437 -0.2083
  196loPI   GL2 3126  10.819   6.514  10.219  0.4134  0.0802  0.2205
  196loPI   C1A 3127  10.502   6.303   9.845  0.4280  0.0796  0.0067
  196loPI   C2A 3128  10.398   6.360   9.468  0.0142  0.3990  0.0837
  196loPI   C3A 3129  10.544   6.377   9.043 -0.0209  0.2749 -0.0052
  196loPI   C4A 3130  10.257   6.578   8.817 -0.2159  0.2623 -0.4034
  196loPI   C5A 3131  10.149   6.977   8.536 -0.0109  0.0509  0.0577
  196loPI   C6A 3132   9.879   7.152   8.137  0.0510  0.2848  0.1007
  196loPI   C1B 3133  10.862   6.756   9.726  0.1079 -0.2130 -0.1564
  196loPI   C2B 3134  10.799   6.697   9.307 -0.0481  0.0717  0.0945
  196loPI   C3B 3135  10.890   7.140   8.981 -0.1129 -0.0311  0.2952
  196loPI   C4B 3136  11.157   7.022   8.555 -0.4862  0.3250 -0.0036
  197loPI    C1 3137   8.644   2.205  10.025 -0.1262  0.1028  0.0043
  197loPI    C2 3138   8.870   2.341  10.325 -0.3571  0.0737  0.1940
  197loPI    C3 3139   8.618   2.037  10.386 -0.2598 -0.0655 -0.0821
  197loPI   PO4 3140   8.756   2.149   9.775  0.1344  0.2530 -0.0983
  197loPI   GL1 3141   8.577   2.136   9.470  0.1347 -0.0707  0.0233
  197loPI   GL2 3142   8.418   1.868   9.433 -0.3428  0.1356  0.0974
  197loPI   C1A 3143   8.846   2.116   9.029  0.2104  0.1128 -0.2942
  197loPI   C2A 3144   8.833   2.085   8.589  0.0354 -0.0337  0.1462
  197loPI   C3A 3145   8.822   1.904   8.188 -0.1024  0.0965  0.0625
  197loPI   C4A 3146   9.238   1.711   8.053 -0.1443  0.2179 -0.1957
  197loPI   C5A 3147   9.341   1.473   7.656 -0.1840  0.1254  0.1941
  197loPI   C6A 3148   9.611   1.342   7.324  0.4261  0.0407 -0.3064
  197loPI   C1B 3149   8.368   2.141   9.053  0.0194  0.0551 -0.1621
  197loPI   C2B 3150   8.302   2.124   8.718 -0.1608  0.0027  0.2732
  197loPI   C3B 3151   8.312   2.191   8.181 -0.1284 -0.1204  0.2092
  197loPI   C4B 3152   8.038   2.256   7.801 -0.2195  0.1974 -0.1819
  198loPI    C1 3153   7.833   5.803  10.312 -0.0496  0.1593 -0.1345
  198loPI    C2 3154   7.980   5.596  10.622  0.0264  0.1525 -0.1748
  198loPI    C3 3155   7.771   5.931  10.686  0.0408  0.1503 -0.1160
  198loPI   PO4 3156   8.023   5.884  10.189  0.5617  0.0579  0.2255
  198loPI   GL1 3157   8.178   6.053   9.904 -0.3087 -0.1741 -0.2740
  198loPI   GL2 3158   8.132   6.365   9.949 -0.1027  0.0591 -0.2685
  198loPI   C1A 3159   8.297   5.952   9.583 -0.0753 -0.2604  0.1386
  198loPI   C2A 3160   8.368   5.815   9.235 -0.0096  0.0650 -0.1978
  198loPI   C3A 3161   8.212   5.784   8.851  0.2320  0.1525 -0.3812
  198loPI   C4A 3162   8.279   5.861   8.479  0.3228 -0.2127  0.2133
  198loPI   C5A 3163   8.528   6.074   8.172  0.2015 -0.0062 -0.1390
  198loPI   C6A 3164   8.691   6.442   8.061  0.0275  0.0093 -0.1721
  198loPI   C1B 3165   7.905   6.507   9.672 -0.3203 -0.0094  0.0766
  198loPI   C2B 3166   7.928   6.595   9.281 -0.3372  0.1604  0.0447
  198loPI   C3B 3167   7.891   6.551   8.813  0.0767  0.1125 -0.1635
  198loPI   C4B 3168   7.914   6.742   8.409  0.1641 -0.1759  0.2422
  199loPI    C1 3169  14.434  13.343  10.897 -0.0268  0.0122  0.1992
  199loPI    C2 3170  14.718  13.431  11.164  0.3391  0.0317 -0.1853
  199loPI    C3 3171  14.689  13.060  11.019 -0.0276 -0.0451  0.0693
  199loPI   PO4 3172  14.467  13.555  10.672 -0.1565 -0.2271 -0.0907
  199loPI   GL1 3173  14.424  13.646  10.345  0.0722  0.0526 -0.0301
  199loPI   GL2 3174  14.131  13.568  10.255 -0.3652 -0.0055 -0.0743
  199loPI   C1A 3175  14.661  13.570   9.980 -0.0160  0.0060  0.2554
  199loPI   C2A 3176  14.670  13.677   9.577  0.0249  0.0798  0.2923
  199loPI   C3A 3177  14.853  13.776   9.173 -0.0851  0.1017  0.0920
  199loPI   C4A 3178  14.703  14.161   8.905 -0.2625  0.1196 -0.1800
  199loPI   C5A 3179  14.520  14.145   8.525 -0.0816 -0.0405 -0.0410
  199loPI   C6A 3180  14.207  13.969   8.289 -0.1979 -0.0204  0.1375
  199loPI   C1B 3181  14.199  13.729   9.821 -0.2390  0.0595 -0.3512
  199loPI   C2B 3182  14.122  13.702   9.358 -0.0927 -0.1773 -0.0493
  199loPI   C3B 3183  14.356  13.798   8.984 -0.0782 -0.0043 -0.0383
  199loPI   C4B 3184  14.621  13.529   8.758  0.1716  0.0535 -0.3716
  200loPI    C1 3185  13.165   5.501  10.748 -0.1071 -0.2111  0.0430
  200loPI    C2 3186  13.342   5.206  10.951  0.0510 -0.2148 -0.0980
  200loPI    C3 3187  13.536   5.550  10.888  0.0386 -0.2467 -0.3182
  200loPI   PO4 3188  13.055   5.409  10.485 -0.0463 -0.1652  0.1647
  200loPI   GL1 3189  12.848   5.473  10.112  0.0178 -0.1863  0.1918
  200loPI   GL2 3190  12.699   5.759  10.059  0.2273  0.0837 -0.0869
  200loPI   C1A 3191  13.269   5.733   9.897 -0.0342 -0.2665  0.1932
  200loPI   C2A 3192  13.491   5.948   9.861 -0.2755 -0.0422  0.0205
  200loPI   C3A 3193  13.562   6.297   9.659  0.0337 -0.1339  0.2259
  200loPI   C4A 3194  13.659   6.416   9.295  0.3133  0.1717 -0.0367
  200loPI   C5A 3195  13.654   6.277   8.844 -0.2239  0.0668 -0.0892
  200loPI   C6A 3196  13.587   6.205   8.406 -0.2620  0.1967  0.1163
  200loPI   C1B 3197  12.865   5.676   9.636 -0.0773 -0.1783 -0.1610
  200loPI   C2B 3198  12.883   5.683   9.204 -0.0736  0.2815 -0.2244
  200loPI   C3B 3199  12.901   5.897   8.942  0.2705 -0.1408  0.2335
  200loPI   C4B 3200  13.109   5.972   8.673 -0.0765  0.2809  0.2552
  201loPI    C1 3201   5.127  12.475  10.825 -0.1093 -0.1512 -0.0717
  201loPI    C2 3202   4.933  12.664  11.120 -0.1000 -0.1293 -0.0795
  201loPI    C3 3203   5.170  12.353  11.203  0.2228  0.1291 -0.0140
  201loPI   PO4 3204   4.911  12.503  10.610  0.2338  0.0550  0.0771
  201loPI   GL1 3205   4.918  12.434  10.223  0.1975  0.2747 -0.2626
  201loPI   GL2 3206   4.710  12.184   9.981  0.1971  0.0742 -0.3787
  201loPI   C1A 3207   5.162  12.436   9.824  0.2782 -0.0545 -0.0141
  201loPI   C2A 3208   5.233  12.508   9.305  0.1301  0.1306  0.3781
  201loPI   C3A 3209   5.165  12.452   8.869  0.1119  0.2543  0.0982
  201loPI   C4A 3210   5.018  12.682   8.563  0.0217 -0.1387 -0.4905
  201loPI   C5A 3211   5.360  12.982   8.398 -0.1546  0.0911  0.0107
  201loPI   C6A 3212   5.573  13.175   8.065  0.0382  0.2791 -0.0619
  201loPI   C1B 3213   4.717  12.169   9.613  0.1672 -0.0639 -0.0825
  201loPI   C2B 3214   4.746  12.192   9.121  0.2274 -0.0265 -0.1840
  201loPI   C3B 3215   4.666  12.329   8.711 -0.3145  0.1039 -0.1049
  201loPI   C4B 3216   4.608  12.542   8.362  0.0029 -0.0110  0.2706
  202loPI    C1 3217   9.503   5.212  10.662 -0.0325 -0.0035  0.0419
  202loPI    C2 3218   9.887   5.291  10.745 -0.0469 -0.0808  0.1839
  202loPI    C3 3219   9.597   5.448  10.972 -0.0979 -0.0521  0.0990
  202loPI   PO4 3220   9.326   5.270  10.308  0.1575 -0.2205  0.0004
  202loPI   GL1 3221   9.421   5.211   9.887 -0.0668  0.3048 -0.1990
  202loPI   GL2 3222   9.065   5.331   9.871  0.2859  0.2868  0.0449
  202loPI   C1A 3223   9.309   5.563   9.571  0.4011 -0.0628  0.2831
  202loPI   C2A 3224   9.197   5.854   9.291 -0.1630 -0.0407  0.1689
  202loPI   C3A 3225   9.158   5.728   8.857  0.1015 -0.1258  0.1934
  202loPI   C4A 3226   9.187   5.620   8.456 -0.1683  0.2026 -0.0906
  202loPI   C5A 3227   9.154   5.555   7.987  0.3564 -0.2355  0.2851
  202loPI   C6A 3228   9.115   5.546   7.516 -0.0419 -0.2192 -0.2377
  202loPI   C1B 3229   9.020   5.134   9.481  0.1094 -0.1830  0.1188
  202loPI   C2B 3230   9.196   5.166   9.119 -0.0540 -0.0620 -0.4661
  202loPI   C3B 3231   9.433   5.210   8.672  0.3903  0.2702  0.0703
  202loPI   C4B 3232   9.425   5.244   8.244 -0.3445  0.0416 -0.1490
  203loPI    C1 3233   6.458   0.282  10.629 -0.1667 -0.0648  0.0226
  203loPI    C2 3234   6.073   0.318  10.732 -0.1175 -0.1237  0.2308
  203loPI    C3 3235   6.316   0.084  10.946  0.0436 -0.0565  0.1232
  203loPI   PO4 3236   6.451   0.241  10.412 -0.0640  0.3028 -0.0110
  203loPI   GL1 3237   6.032   0.175  10.245 -0.2798 -0.1518  0.0800
  203loPI   GL2 3238   6.070  -0.116  10.099 -0.2528 -0.2377  0.1859
  203loPI   C1A 3239   5.726   0.268   9.879 -0.2711  0.0073  0.1464
  203loPI   C2A 3240   5.509   0.198   9.540 -0.1627 -0.1931 -0.2667
  203loPI   C3A 3241   5.546   0.070   9.156  0.1785 -0.4108  0.0268
  203loPI   C4A 3242   5.549   0.274   8.708  0.0660  0.1902  0.1320
  203loPI   C5A 3243   5.589   0.581   8.344 -0.2027 -0.3052 -0.0643
  203loPI   C6A 3244   5.940   0.865   8.130  0.2809  0.1217  0.1867
  203loPI   C1B 3245   6.056  -0.030   9.647  0.4846  0.0046  0.0410
  203loPI   C2B 3246   6.027  -0.067   9.276  0.0190 -0.1270  0.0578
  203loPI   C3B 3247   5.954  -0.089   8.857  0.0225  0.3915  0.0342
  203loPI   C4B 3248   5.891  -0.118   8.388  0.0178 -0.0408  0.2277
  204loPI    C1 3249  16.519   5.670  10.351 -0.1661 -0.1110 -0.0203
  204loPI    C2 3250  16.723   5.439  10.606 -0.0431  0.0732  0.0506
  204loPI    C3 3251  16.543   5.770  10.738 -0.2950 -0.0283 -0.0333
  204loPI   PO4 3252  16.382   5.457  10.228  0.1678  0.0463  0.1189
  204loPI   GL1 3253  16.493   5.569   9.843  0.1635 -0.0998 -0.1439
  204loPI   GL2 3254  16.182   5.801   9.828  0.0851 -0.2386 -0.2614
  204loPI   C1A 3255  16.418   5.456   9.411  0.1569  0.1576  0.0476
  204loPI   C2A 3256  16.304   5.389   9.006 -0.0704 -0.2833 -0.0138
  204loPI   C3A 3257  16.117   5.290   8.593 -0.0797 -0.0595  0.3079
  204loPI   C4A 3258  16.280   5.243   8.161 -0.1896  0.3276  0.1070
  204loPI   C5A 3259  16.078   5.027   7.841  0.1841  0.4352  0.0369
  204loPI   C6A 3260  15.900   4.720   7.722  0.0281  0.0889  0.1394
  204loPI   C1B 3261  16.024   5.753   9.422  0.0982  0.0557 -0.3075
  204loPI   C2B 3262  15.918   5.966   9.072  0.0731  0.1765 -0.3193
  204loPI   C3B 3263  15.880   6.084   8.626  0.1369 -0.1563  0.0931
  204loPI   C4B 3264  15.890   6.296   8.190 -0.0037  0.1507 -0.1632
  205loPI    C1 3265   3.155   2.350  10.786  0.2312 -0.0395 -0.1678
  205loPI    C2 3266   3.537   2.437  10.866  0.1809 -0.1283  0.1899
  205loPI    C3 3267   3.264   2.450  11.158 -0.1276  0.1214 -0.1010
  205loPI   PO4 3268   3.158   2.278  10.604 -0.2226 -0.1308  0.2416
  205loPI   GL1 3269   3.071   2.341  10.260  0.0651  0.0093 -0.3358
  205loPI   GL2 3270   3.210   2.617  10.150  0.0295  0.1989  0.0898
  205loPI   C1A 3271   2.803   2.296   9.892 -0.0695  0.0599  0.2249
  205loPI   C2A 3272   2.833   2.234   9.460 -0.0682  0.0638  0.1216
  205loPI   C3A 3273   2.797   2.216   9.006  0.3231  0.2041 -0.1681
  205loPI   C4A 3274   2.666   2.037   8.631  0.1981  0.0457 -0.1095
  205loPI   C5A 3275   2.307   1.949   8.551  0.2095 -0.1281 -0.0512
  205loPI   C6A 3276   2.051   2.072   8.185 -0.1648  0.3346  0.3509
  205loPI   C1B 3277   3.275   2.516   9.689 -0.1865 -0.1396 -0.1919
  205loPI   C2B 3278   3.263   2.476   9.202  0.1700  0.2537 -0.4365
  205loPI   C3B 3279   3.147   2.475   8.815  0.0514 -0.2838  0.0973
  205loPI   C4B 3280   3.125   2.247   8.476  0.1354 -0.1597  0.0913
  206loPI    C1 3281  16.590  14.234  11.180 -0.0760 -0.1802  0.0771
  206loPI    C2 3282  16.750  14.082  11.514  0.0024 -0.0223  0.1124
  206loPI    C3 3283  16.353  14.114  11.479 -0.0105 -0.1471  0.1426
  206loPI   PO4 3284  16.708  14.214  10.930 -0.1074  0.3594 -0.0919
  206loPI   GL1 3285  16.894  14.340  10.617  0.1263  0.1206 -0.0826
  206loPI   GL2 3286  16.668  14.192  10.417  0.0628 -0.1113  0.1176
  206loPI   C1A 3287  17.066  14.398  10.211 -0.0045 -0.3401 -0.0465
  206loPI   C2A 3288  17.123  14.438   9.784 -0.4010  0.0985  0.0718
  206loPI   C3A 3289  17.125  14.534   9.415  0.1215  0.1994 -0.0266
  206loPI   C4A 3290  17.073  14.584   8.985 -0.1106  0.0053  0.1066
  206loPI   C5A 3291  17.134  14.447   8.562 -0.1941 -0.1166 -0.2075
  206loPI   C6A 3292  17.115  14.384   8.023 -0.3039 -0.2524 -0.0385
  206loPI   C1B 3293  16.454  14.201  10.135  0.1145 -0.0441  0.3068
  206loPI   C2B 3294  16.262  14.211   9.885  0.0478 -0.1764  0.0144
  206loPI   C3B 3295  16.268  14.151   9.474 -0.0356  0.2834 -0.0510
  206loPI   C4B 3296  16.183  13.955   9.030 -0.2738  0.1488  0.0078
  207loPI    C1 3297  14.918  12.217  11.059 -0.1974  0.0347  0.1374
  207loPI    C2 3298  15.241  11.991  11.128 -0.1169  0.0946 -0.0371
  207loPI    C3 3299  15.254  12.384  11.200 -0.2369  0.0559  0.2066
  207loPI   PO4 3300  14.796  12.169  10.785 -0.0197  0.2627  0.0330
  207loPI   GL1 3301  14.916  12.137  10.381 -0.1649 -0.3585 -0.0446
  207loPI   GL2 3302  14.605  12.082  10.223  0.1366  0.0337 -0.2004
  207loPI   C1A 3303  15.091  12.214   9.973  0.1964  0.1342 -0.0671
  207loPI   C2A 3304  14.964  12.316   9.594  0.2691  0.1644 -0.0758
  207loPI   C3A 3305  14.951  12.339   9.142 -0.1783  0.3135 -0.0311
  207loPI   C4A 3306  15.094  12.318   8.748 -0.0638  0.0553 -0.1766
  207loPI   C5A 3307  15.276  12.397   8.382 -0.0457 -0.3798 -0.0686
  207loPI   C6A 3308  15.752  12.304   8.369 -0.0196  0.1281  0.0692
  207loPI   C1B 3309  14.687  11.984   9.846  0.2407 -0.0907  0.1452
  207loPI   C2B 3310  14.660  11.899   9.394  0.3197  0.0490 -0.3955
  207loPI   C3B 3311  14.820  11.919   8.973  0.2749 -0.0222  0.0534
  207loPI   C4B 3312  15.119  11.812   8.811 -0.2211  0.1702 -0.0332
  208loPI    C1 3313  10.325  10.784  10.947  0.1436 -0.0700  0.1660
  208loPI    C2 3314  10.717  10.848  10.994  0.1432  0.0616 -0.0030
  208loPI    C3 3315  10.454  11.129  11.105  0.0948 -0.0371  0.1344
  208loPI   PO4 3316  10.271  10.628  10.754  0.2604 -0.0667  0.1037
  208loPI   GL1 3317  10.006  10.423  10.384 -0.1972 -0.0889  0.1147
  208loPI   GL2 3318   9.703  10.484  10.378 -0.1262  0.4409  0.0975
  208loPI   C1A 3319  10.169  10.174  10.142 -0.1909  0.2413  0.0259
  208loPI   C2A 3320  10.186  10.037   9.742  0.1695 -0.1368  0.1070
  208loPI   C3A 3321  10.233  10.039   9.358 -0.1216 -0.0027 -0.1904
  208loPI   C4A 3322  10.278  10.137   8.965  0.1501  0.1173 -0.2367
  208loPI   C5A 3323  10.186  10.143   8.533 -0.0252 -0.1937  0.4073
  208loPI   C6A 3324  10.308  10.110   8.137  0.0516 -0.3019 -0.1208
  208loPI   C1B 3325   9.845  10.501   9.947  0.1483 -0.0154 -0.1618
  208loPI   C2B 3326   9.818  10.390   9.582 -0.1840  0.0252 -0.1100
  208loPI   C3B 3327   9.863  10.370   9.152  0.2177  0.1949  0.1624
  208loPI   C4B 3328   9.780  10.296   8.694 -0.1006 -0.2827 -0.1256
  209loPI    C1 3329  11.532  11.181  10.379  0.1728 -0.0674  0.0110
  209loPI    C2 3330  11.876  11.268  10.193  0.0693  0.5323  0.0796
  209loPI    C3 3331  11.875  11.185  10.584  0.1865  0.0639 -0.0133
  209loPI   PO4 3332  11.344  11.395  10.310  0.0206 -0.1675 -0.1289
  209loPI   GL1 3333  11.251  11.460   9.975  0.2210 -0.0844  0.0066
  209loPI   GL2 3334  10.992  11.446   9.874 -0.4038  0.0722  0.2170
  209loPI   C1A 3335  11.667  11.452   9.676  0.0678 -0.1500  0.3132
  209loPI   C2A 3336  11.711  11.301   9.332 -0.1162 -0.0413  0.0049
  209loPI   C3A 3337  11.514  11.228   8.990  0.2879  0.0808  0.1249
  209loPI   C4A 3338  11.626  11.262   8.595  0.2964  0.0327  0.2065
  209loPI   C5A 3339  11.732  11.661   8.293 -0.0769  0.0103  0.0471
  209loPI   C6A 3340  11.832  12.047   8.063 -0.0580  0.1496  0.2002
  209loPI   C1B 3341  10.990  11.470   9.522  0.1424  0.0789 -0.0373
  209loPI   C2B 3342  10.828  11.411   9.069 -0.3176  0.0592 -0.0041
  209loPI   C3B 3343  10.503  11.300   8.728 -0.0562 -0.1117 -0.0265
  209loPI   C4B 3344  10.314  11.012   8.536  0.1202 -0.1000  0.1588
  210loPI    C1 3345  10.655  11.563  10.986 -0.0274 -0.1714  0.0157
  210loPI    C2 3346  11.019  11.578  10.821 -0.0350 -0.2841 -0.0119
  210loPI    C3 3347  10.942  11.315  11.113 -0.0165 -0.0734  0.1857
  210loPI   PO4 3348  10.425  11.592  10.722 -0.2035 -0.1652 -0.1715
  210loPI   GL1 3349  10.362  11.409  10.367  0.0229  0.3021 -0.2106
  210loPI   GL2 3350  10.531  11.194  10.128 -0.0428  0.1307  0.2094
  210loPI   C1A 3351  10.090  11.165   9.960 -0.0658  0.1737 -0.2760
  210loPI   C2A 3352  10.130  11.183   9.515 -0.0594 -0.0793  0.1537
  210loPI   C3A 3353  10.144  11.089   9.126  0.0106  0.1060  0.3847
  210loPI   C4A 3354   9.922  11.222   8.800  0.1103  0.0544  0.0270
  210loPI   C5A 3355   9.506  11.402   8.691  0.2354  0.1573  0.4668
  210loPI   C6A 3356   9.170  11.592   8.501 -0.1511  0.2355  0.0478
  210loPI   C1B 3357  10.426  11.470   9.774  0.4389  0.0856 -0.0468
  210loPI   C2B 3358  10.445  11.539   9.347 -0.3578  0.1105  0.0197
  210loPI   C3B 3359  10.369  11.729   9.051 -0.0156 -0.0147 -0.2649
  210loPI   C4B 3360  10.185  11.863   8.679 -0.1523 -0.2338  0.0215
  211loPI    C1 3361   2.674   5.180  11.011  0.0744 -0.0977 -0.0293
  211loPI    C2 3362   2.754   4.985  11.351 -0.1894 -0.0102  0.0856
  211loPI    C3 3363   2.723   5.384  11.352 -0.0054  0.0061 -0.0793
  211loPI   PO4 3364   2.851   5.080  10.810  0.1309  0.1012  0.0621
  211loPI   GL1 3365   2.900   5.109  10.361  0.1280  0.0560  0.0987
  211loPI   GL2 3366   2.808   4.913  10.066 -0.0203  0.2821 -0.2891
  211loPI   C1A 3367   3.189   5.167   9.970 -0.0846  0.4091  0.1335
  211loPI   C2A 3368   3.311   5.149   9.562 -0.1147 -0.0283 -0.1906
  211loPI   C3A 3369   3.149   5.135   9.105  0.2990  0.0001  0.1748
  211loPI   C4A 3370   3.185   5.047   8.670 -0.1945 -0.3338 -0.0459
  211loPI   C5A 3371   3.173   5.160   8.257 -0.3539  0.4122 -0.0004
  211loPI   C6A 3372   3.060   5.312   7.907  0.1041  0.0712 -0.2282
  211loPI   C1B 3373   2.848   4.912   9.618 -0.0122  0.1062 -0.2667
  211loPI   C2B 3374   2.703   4.914   9.128  0.1168  0.3201  0.0217
  211loPI   C3B 3375   2.691   4.815   8.701 -0.1826 -0.2141  0.0469
  211loPI   C4B 3376   2.710   4.654   8.171  0.1652  0.0396  0.1150
  212loPI    C1 3377   8.518   0.379  10.296 -0.0998 -0.1068  0.2594
  212loPI    C2 3378   8.488   0.002  10.427  0.0731 -0.1784  0.0963
  212loPI    C3 3379   8.835   0.199  10.461  0.0591 -0.1253 -0.0587
  212loPI   PO4 3380   8.488   0.365  10.051 -0.0409 -0.0781 -0.1747
  212loPI   GL1 3381   8.599   0.275   9.623  0.0448  0.1549  0.0563
  212loPI   GL2 3382   8.791   0.011   9.569 -0.2525 -0.1299  0.1675
  212loPI   C1A 3383   8.350   0.241   9.259 -0.2999  0.0095 -0.3153
  212loPI   C2A 3384   8.330   0.178   8.921  0.0867  0.1754  0.0771
  212loPI   C3A 3385   8.352   0.230   8.471 -0.1185  0.0694  0.0675
  212loPI   C4A 3386   8.427   0.103   8.039 -0.2676 -0.2406 -0.0974
  212loPI   C5A 3387   8.675  -0.211   7.737 -0.1134 -0.2878 -0.3895
  212loPI   C6A 3388   8.834  -0.635   7.737  0.1844  0.1561  0.1274
  212loPI   C1B 3389   8.810  -0.058   9.078 -0.0406 -0.2156 -0.2987
  212loPI   C2B 3390   8.890  -0.021   8.566 -0.1938  0.2022 -0.2439
  212loPI   C3B 3391   8.876  -0.005   8.210 -0.0710  0.1970  0.1384
  212loPI   C4B 3392   9.091   0.175   7.815  0.1297 -0.0454 -0.0928
  213loPI    C1 3393   8.487   4.904  10.466  0.0390  0.0612 -0.0257
  213loPI    C2 3394   8.341   5.183  10.713  0.1393  0.0608  0.0342
  213loPI    C3 3395   8.284   4.796  10.794 -0.0230  0.0634 -0.0631
  213loPI   PO4 3396   8.408   4.944  10.253  0.2268  0.0166 -0.1295
  213loPI   GL1 3397   8.324   4.988   9.847 -0.2292 -0.1000 -0.0075
  213loPI   GL2 3398   8.590   5.196   9.855  0.3900 -0.0703  0.1367
  213loPI   C1A 3399   8.163   4.686   9.543 -0.4253  0.0417 -0.2547
  213loPI   C2A 3400   8.050   4.285   9.187 -0.1112  0.0305 -0.1717
  213loPI   C3A 3401   8.166   4.013   8.853  0.0948 -0.3602  0.3748
  213loPI   C4A 3402   8.534   3.878   8.653  0.0521  0.1551  0.0302
  213loPI   C5A 3403   8.611   3.817   8.161 -0.3408  0.0105 -0.1772
  213loPI   C6A 3404   8.986   3.589   7.989  0.1699 -0.1996  0.0683
  213loPI   C1B 3405   8.345   5.327   9.467 -0.2386 -0.0376  0.0841
  213loPI   C2B 3406   8.334   5.364   9.071  0.1741  0.3003 -0.3085
  213loPI   C3B 3407   8.277   5.191   8.663 -0.3952 -0.0099  0.0914
  213loPI   C4B 3408   8.390   5.344   8.290  0.0643 -0.0360  0.1722
  214loPI    C1 3409   5.560  13.224  10.837  0.0128  0.1580 -0.1966
  214loPI    C2 3410   5.835  13.119  11.108 -0.0439  0.0399 -0.1844
  214loPI    C3 3411   5.644  13.469  11.142 -0.1904 -0.0602  0.0384
  214loPI   PO4 3412   5.649  13.083  10.641  0.0002 -0.1051 -0.3179
  214loPI   GL1 3413   5.782  13.279  10.297 -0.0194  0.2561 -0.0217
  214loPI   GL2 3414   5.567  13.138  10.098  0.0213  0.0025 -0.0497
  214loPI   C1A 3415   5.885  13.536   9.907 -0.1529  0.1191  0.0031
  214loPI   C2A 3416   5.871  13.589   9.447  0.0867 -0.0451 -0.1593
  214loPI   C3A 3417   5.942  13.700   9.009  0.0369 -0.0335 -0.0046
  214loPI   C4A 3418   6.004  13.612   8.543 -0.1438  0.0516 -0.3108
  214loPI   C5A 3419   5.908  13.509   8.095  0.2545  0.0621  0.0953
  214loPI   C6A 3420   5.530  13.630   7.869  0.5180  0.1872 -0.2452
  214loPI   C1B 3421   5.591  13.184   9.623 -0.0985 -0.2649  0.0310
  214loPI   C2B 3422   5.582  13.292   9.226 -0.1687  0.1047 -0.0056
  214loPI   C3B 3423   5.552  13.493   8.828  0.0427 -0.0173 -0.0638
  214loPI   C4B 3424   5.473  13.517   8.404 -0.1393 -0.2405  0.1242
  215loPI    C1 3425   3.574   3.037  10.646 -0.2745  0.1798 -0.2582
  215loPI    C2 3426   3.382   2.924  10.978  0.1521 -0.0743 -0.0883
  215loPI    C3 3427   3.507   3.302  10.938  0.0281 -0.0229  0.0029
  215loPI   PO4 3428   3.573   2.822  10.472  0.0216  0.0963 -0.1542
  215loPI   GL1 3429   3.774   2.674  10.128  0.2347 -0.2790  0.0085
  215loPI   GL2 3430   4.013   2.933  10.226 -0.2517  0.1036  0.0428
  215loPI   C1A 3431   3.709   2.843   9.751 -0.1521  0.3987 -0.1121
  215loPI   C2A 3432   3.702   2.759   9.306  0.0340  0.2992  0.1922
  215loPI   C3A 3433   3.652   2.739   8.909  0.1217  0.1441 -0.1958
  215loPI   C4A 3434   3.594   2.519   8.458  0.1329 -0.0819  0.1131
  215loPI   C5A 3435   3.877   2.279   8.117  0.3255  0.1366 -0.1830
  215loPI   C6A 3436   4.363   2.442   7.974  0.1975  0.2009  0.2527
  215loPI   C1B 3437   4.168   3.093   9.808  0.1789  0.3041  0.2693
  215loPI   C2B 3438   4.152   3.056   9.403 -0.0054 -0.1712  0.3114
  215loPI   C3B 3439   4.088   3.027   9.050 -0.1800 -0.0693  0.0502
  215loPI   C4B 3440   4.043   2.898   8.563 -0.1909 -0.1407 -0.1619
  216loPI    C1 3441  15.071  10.607  10.829 -0.1582  0.1407 -0.1374
  216loPI    C2 3442  14.986  10.357  11.130  0.1012  0.2568  0.0357
  216loPI    C3 3443  14.760  10.681  11.069 -0.1718  0.0408 -0.1236
  216loPI   PO4 3444  15.080  10.517  10.565 -0.2035 -0.2664 -0.0358
  216loPI   GL1 3445  15.153  10.823  10.240 -0.2429  0.1545  0.1496
  216loPI   GL2 3446  14.879  10.783  10.052  0.3055 -0.2083 -0.1268
  216loPI   C1A 3447  15.200  11.211   9.942 -0.0302 -0.0457 -0.0905
  216loPI   C2A 3448  15.057  11.226   9.511  0.1754  0.1682 -0.1501
  216loPI   C3A 3449  15.034  11.355   9.116 -0.2032  0.1963 -0.1933
  216loPI   C4A 3450  15.116  11.309   8.678 -0.1653  0.1927 -0.0818
  216loPI   C5A 3451  15.058  11.608   8.347 -0.1448 -0.4793  0.0510
  216loPI   C6A 3452  14.888  12.029   8.350  0.1324 -0.0646 -0.1087
  216loPI   C1B 3453  15.030  10.750   9.660  0.1889 -0.1862 -0.0331
  216loPI   C2B 3454  15.025  10.693   9.287  0.0069  0.0603 -0.1464
  216loPI   C3B 3455  15.096  10.759   8.941  0.0754 -0.0921  0.2383
  216loPI   C4B 3456  15.053  10.851   8.558  0.1456  0.0727 -0.0735
  217loPI    C1 3457   6.874  10.430  10.885 -0.0058 -0.1552  0.3283
  217loPI    C2 3458   6.612  10.362  10.591  0.1496 -0.0094  0.1534
  217loPI    C3 3459   6.516  10.272  10.969 -0.0539 -0.1927  0.0607
  217loPI   PO4 3460   7.061  10.174  10.798  0.1209  0.3720  0.0348
  217loPI   GL1 3461   7.517  10.164  10.487  0.0906  0.1877 -0.3461
  217loPI   GL2 3462   7.543  10.577  10.320  0.0931  0.0328 -0.1931
  217loPI   C1A 3463   7.378  10.084  10.077  0.0494 -0.1898 -0.1451
  217loPI   C2A 3464   7.423   9.972   9.681  0.0927 -0.1202  0.2611
  217loPI   C3A 3465   7.578   9.951   9.216  0.2633  0.2302 -0.4701
  217loPI   C4A 3466   7.563  10.079   8.790  0.0089  0.4355  0.0603
  217loPI   C5A 3467   7.463  10.188   8.466 -0.1118  0.0000  0.0979
  217loPI   C6A 3468   7.233  10.534   8.329 -0.0535 -0.1851 -0.0752
  217loPI   C1B 3469   7.381  10.540   9.901  0.0737 -0.1898 -0.0153
  217loPI   C2B 3470   7.429  10.503   9.502 -0.1230 -0.1381 -0.0562
  217loPI   C3B 3471   7.552  10.493   9.076 -0.0610  0.2411 -0.2851
  217loPI   C4B 3472   7.548  10.726   8.702  0.0511  0.0268  0.0616
  218loPI    C1 3473  11.741  17.294  10.234  0.1617  0.0052 -0.2960
  218loPI    C2 3474  11.997  17.134  10.497  0.1068 -0.0374 -0.2680
  218loPI    C3 3475  11.882  17.516  10.536 -0.0835 -0.1106 -0.0921
  218loPI   PO4 3476  11.616  17.051  10.168 -0.2940 -0.3003  0.2251
  218loPI   GL1 3477  11.339  16.847   9.930  0.2049 -0.1256  0.1705
  218loPI   GL2 3478  10.978  16.955   9.929  0.2653 -0.1090 -0.1607
  218loPI   C1A 3479  11.405  16.979   9.494 -0.1656  0.0022  0.1396
  218loPI   C2A 3480  11.340  16.920   9.029  0.0238  0.2073  0.2058
  218loPI   C3A 3481  11.149  17.083   8.647 -0.2558  0.0610 -0.2948
  218loPI   C4A 3482  11.108  16.998   8.259  0.1925  0.0034  0.3286
  218loPI   C5A 3483  10.941  16.662   8.023 -0.0178 -0.1537 -0.1087
  218loPI   C6A 3484  10.677  16.352   8.051 -0.2363  0.1719 -0.3276
  218loPI   C1B 3485  10.922  16.985   9.568 -0.0932  0.1251 -0.1864
  218loPI   C2B 3486  10.854  16.934   9.124 -0.0614 -0.3911 -0.1181
  218loPI   C3B 3487  10.998  16.635   8.788  0.0872  0.0145  0.1922
  218loPI   C4B 3488  11.068  16.394   8.431 -0.0448 -0.1828 -0.2676
  219loPI    C1 3489   9.963   4.636  10.324  0.0694 -0.4586 -0.0292
  219loPI    C2 3490  10.091   4.433  10.644  0.2290 -0.1790  0.0876
  219loPI    C3 3491   9.856   4.753  10.691 -0.1137 -0.3965 -0.1013
  219loPI   PO4 3492   9.960   4.475  10.150 -0.0523 -0.3272  0.2802
  219loPI   GL1 3493   9.750   4.271  10.000 -0.0133  0.0781  0.2549
  219loPI   GL2 3494   9.438   4.239   9.915  0.2543 -0.2483 -0.0515
  219loPI   C1A 3495   9.880   4.009   9.649  0.0056 -0.1686 -0.3128
  219loPI   C2A 3496   9.846   4.088   9.239 -0.2779  0.0622 -0.0598
  219loPI   C3A 3497   9.871   4.020   8.866 -0.2420  0.1592  0.2807
  219loPI   C4A 3498   9.892   4.205   8.456 -0.0075  0.0595  0.0088
  219loPI   C5A 3499  10.159   4.154   8.071  0.4014  0.1187  0.1240
  219loPI   C6A 3500  10.525   4.243   7.903 -0.0543  0.0609 -0.1346
  219loPI   C1B 3501   9.510   4.343   9.557 -0.3680 -0.0263 -0.3282
  219loPI   C2B 3502   9.511   4.425   9.101  0.3980  0.1928 -0.3095
  219loPI   C3B 3503   9.504   4.358   8.735 -0.0170  0.0424 -0.1196
  219loPI   C4B 3504   9.430   4.331   8.368  0.1797 -0.1993  0.0764
  220loPI    C1 3505   1.040   9.346  10.322  0.0201 -0.0939  0.0167
  220loPI    C2 3506   1.342   9.380  10.582  0.1744 -0.0377 -0.1675
  220loPI    C3 3507   1.293   9.655  10.295 -0.1519  0.0442 -0.0384
  220loPI   PO4 3508   1.107   9.051  10.274  0.1681  0.0286 -0.0462
  220loPI   GL1 3509   1.119   8.883   9.779 -0.0069  0.0371  0.3680
  220loPI   GL2 3510   1.388   9.121   9.875 -0.1303  0.1166  0.0511
  220loPI   C1A 3511   1.132   8.705   9.420  0.0196  0.0016 -0.0457
  220loPI   C2A 3512   1.007   8.603   9.002  0.0941 -0.0576  0.0806
  220loPI   C3A 3513   1.153   8.550   8.673 -0.0335  0.0910 -0.1535
  220loPI   C4A 3514   1.373   8.487   8.290 -0.1900 -0.0119 -0.1893
  220loPI   C5A 3515   1.534   8.343   7.975  0.2452 -0.0112 -0.1982
  220loPI   C6A 3516   1.828   8.037   7.825 -0.0562 -0.0035  0.0839
  220loPI   C1B 3517   1.436   9.098   9.419 -0.0531  0.0558 -0.0766
  220loPI   C2B 3518   1.499   8.825   9.071 -0.2754 -0.1600  0.0963
  220loPI   C3B 3519   1.595   8.764   8.699  0.2398 -0.0496  0.0632
  220loPI   C4B 3520   1.648   8.867   8.299 -0.2558  0.1964  0.5484
  221loPI    C1 3521  14.618  16.312  10.500  0.0218  0.0553 -0.1836
  221loPI    C2 3522  14.579  15.997  10.744  0.1728  0.2347  0.0767
  221loPI    C3 3523  14.268  16.120  10.525  0.0272  0.0875  0.1988
  221loPI   PO4 3524  14.764  16.496  10.631 -0.0398 -0.1948 -0.0873
  221loPI   GL1 3525  15.135  16.725  10.314 -0.1909 -0.0402 -0.3684
  221loPI   GL2 3526  14.845  16.571  10.087  0.1496 -0.0620  0.0207
  221loPI   C1A 3527  15.303  16.788   9.916  0.2435  0.0870 -0.1051
  221loPI   C2A 3528  15.280  16.986   9.503  0.1905 -0.0997 -0.1107
  221loPI   C3A 3529  15.412  17.069   9.152  0.0423  0.1476  0.2108
  221loPI   C4A 3530  15.567  17.180   8.827  0.0991  0.1066 -0.1912
  221loPI   C5A 3531  15.703  16.916   8.490 -0.1752 -0.0763 -0.3509
  221loPI   C6A 3532  15.909  16.612   8.199  0.2383  0.1259  0.0991
  221loPI   C1B 3533  14.831  16.812   9.685 -0.3364  0.0441  0.0567
  221loPI   C2B 3534  14.784  16.786   9.237 -0.0228 -0.1356 -0.0032
  221loPI   C3B 3535  14.782  16.815   8.850 -0.1884  0.2310 -0.2042
  221loPI   C4B 3536  14.791  16.845   8.395 -0.0546  0.1018  0.1956
  222loPI    C1 3537   4.634  15.435  11.261  0.2482 -0.0441 -0.0022
  222loPI    C2 3538   4.305  15.594  11.424  0.0825 -0.1346 -0.2444
  222loPI    C3 3539   4.653  15.613  11.619 -0.0511  0.0234 -0.0172
  222loPI   PO4 3540   4.620  15.546  10.975 -0.1804  0.1175  0.2911
  222loPI   GL1 3541   4.305  15.459  10.588  0.0759  0.1258  0.1573
  222loPI   GL2 3542   4.596  15.257  10.553 -0.2727  0.2728  0.2109
  222loPI   C1A 3543   4.247  15.636  10.187 -0.0210  0.1405 -0.2151
  222loPI   C2A 3544   4.129  15.651   9.698  0.1133 -0.0740  0.0839
  222loPI   C3A 3545   4.229  15.740   9.260 -0.2339  0.1340 -0.1283
  222loPI   C4A 3546   4.188  15.703   8.879 -0.1961 -0.1551 -0.3796
  222loPI   C5A 3547   4.041  15.769   8.503  0.1199  0.1675  0.1377
  222loPI   C6A 3548   3.952  15.586   8.164 -0.1132 -0.2213  0.1262
  222loPI   C1B 3549   4.662  15.376  10.117 -0.1427  0.1247 -0.0861
  222loPI   C2B 3550   4.703  15.387   9.705  0.2619 -0.1798 -0.1190
  222loPI   C3B 3551   4.673  15.513   9.343  0.2399  0.1617 -0.2282
  222loPI   C4B 3552   4.641  15.510   8.858  0.1517 -0.1220 -0.0855
  223loPI    C1 3553   9.780   5.609  10.361 -0.0496 -0.0970 -0.1481
  223loPI    C2 3554   9.551   5.864  10.154  0.0885 -0.0337 -0.2243
  223loPI    C3 3555   9.522   5.848  10.553  0.0043  0.0261 -0.2276
  223loPI   PO4 3556  10.035   5.604  10.364  0.3619  0.0909  0.2122
  223loPI   GL1 3557  10.348   5.758  10.005 -0.0968 -0.0969 -0.3803
  223loPI   GL2 3558  10.087   5.990  10.016  0.0070 -0.0409 -0.2313
  223loPI   C1A 3559  10.351   5.426   9.689 -0.0255  0.3607 -0.0086
  223loPI   C2A 3560  10.316   5.425   9.340 -0.0052  0.2143  0.2004
  223loPI   C3A 3561  10.307   5.505   8.991 -0.1655 -0.1373  0.0532
  223loPI   C4A 3562  10.372   5.353   8.561 -0.0698 -0.1308  0.1315
  223loPI   C5A 3563  10.223   5.076   8.220 -0.3646 -0.0130 -0.1568
  223loPI   C6A 3564   9.887   5.047   8.081 -0.1565 -0.1310 -0.0388
  223loPI   C1B 3565  10.115   5.910   9.537 -0.1137 -0.0236 -0.0299
  223loPI   C2B 3566  10.211   6.068   9.125 -0.3522  0.0556  0.2497
  223loPI   C3B 3567  10.216   6.077   8.740 -0.2398 -0.4563  0.1631
  223loPI   C4B 3568  10.354   6.377   8.300 -0.0256 -0.0171 -0.2776
  224loPI    C1 3569  12.342   4.409  10.624 -0.1266 -0.0362 -0.0241
  224loPI    C2 3570  12.409   4.074  10.831  0.1113 -0.0257 -0.0810
  224loPI    C3 3571  12.353   4.421  11.023  0.0486 -0.0655 -0.0271
  224loPI   PO4 3572  12.221   4.271  10.340 -0.0723 -0.2957 -0.0870
  224loPI   GL1 3573  11.971   4.351  10.055  0.0311 -0.1292 -0.1385
  224loPI   GL2 3574  11.883   3.983   9.963  0.1819 -0.2777 -0.4578
  224loPI   C1A 3575  11.913   4.610   9.763 -0.0908  0.2103 -0.2813
  224loPI   C2A 3576  11.877   4.574   9.392  0.3798 -0.0830 -0.4099
  224loPI   C3A 3577  11.895   4.739   9.005 -0.0429  0.2093 -0.0498
  224loPI   C4A 3578  11.749   4.978   8.727 -0.1478  0.0750  0.1999
  224loPI   C5A 3579  11.907   5.123   8.371 -0.0462 -0.0372  0.1485
  224loPI   C6A 3580  12.300   5.398   8.255  0.1582  0.1124  0.1801
  224loPI   C1B 3581  11.649   4.155   9.579 -0.2377 -0.1310 -0.3336
  224loPI   C2B 3582  11.670   4.205   9.130  0.0686  0.2559 -0.0949
  224loPI   C3B 3583  11.652   4.394   8.688  0.1626 -0.0109  0.1605
  224loPI   C4B 3584  11.481   4.687   8.433  0.1903 -0.1546 -0.1527
  225loPI    C1 3585  16.514  15.247  10.935 -0.1386  0.1250  0.2025
  225loPI    C2 3586  16.776  15.146  11.220 -0.0662 -0.0576  0.0740
  225loPI    C3 3587  16.571  15.489  11.248  0.0514 -0.0014  0.2675
  225loPI   PO4 3588  16.699  15.244  10.714 -0.1470  0.2808  0.2475
  225loPI   GL1 3589  16.698  15.374  10.289  0.2616 -0.1664  0.0547
  225loPI   GL2 3590  16.540  15.104  10.178  0.1814 -0.1224 -0.1526
  225loPI   C1A 3591  16.773  15.559   9.899  0.0136 -0.1157  0.4504
  225loPI   C2A 3592  16.663  15.492   9.497  0.2364  0.1859 -0.0326
  225loPI   C3A 3593  16.660  15.326   9.217  0.1835 -0.1683  0.1706
  225loPI   C4A 3594  16.716  15.363   8.791 -0.1679  0.3825  0.0975
  225loPI   C5A 3595  16.928  15.066   8.603  0.1441  0.0196 -0.0785
  225loPI   C6A 3596  16.898  14.783   8.262  0.1232 -0.0905  0.3564
  225loPI   C1B 3597  16.565  15.138   9.785  0.2793  0.1230  0.1907
  225loPI   C2B 3598  16.598  14.915   9.445  0.0099 -0.1582 -0.2693
  225loPI   C3B 3599  16.671  14.876   8.991  0.3165 -0.0949 -0.1473
  225loPI   C4B 3600  16.506  14.905   8.552 -0.0534  0.0398 -0.0020
  226loPI    C1 3601  16.705  17.619  10.972  0.0707  0.1550 -0.0665
  226loPI    C2 3602  16.782  17.620  11.365 -0.1794 -0.1445 -0.0121
  226loPI    C3 3603  17.084  17.615  11.102 -0.0114 -0.0853  0.1764
  226loPI   PO4 3604  16.570  17.837  10.928  0.0914  0.0985  0.0692
  226loPI   GL1 3605  16.576  17.994  10.420  0.4610 -0.1201  0.0350
  226loPI   GL2 3606  16.693  18.238  10.597 -0.0132 -0.1779  0.2934
  226loPI   C1A 3607  16.744  17.856  10.119  0.0494 -0.0778  0.0361
  226loPI   C2A 3608  17.052  17.987   9.819  0.3512 -0.3062 -0.3892
  226loPI   C3A 3609  17.310  18.081   9.511 -0.2110  0.0113 -0.0446
  226loPI   C4A 3610  17.312  17.753   9.199  0.1776  0.1431  0.0074
  226loPI   C5A 3611  17.329  17.330   8.992  0.0543  0.2636  0.0579
  226loPI   C6A 3612  17.131  17.382   8.576 -0.1134  0.0155  0.3039
  226loPI   C1B 3613  17.043  18.198  10.285 -0.1676 -0.0177 -0.0658
  226loPI   C2B 3614  17.234  18.414  10.013  0.0323  0.0672  0.0737
  226loPI   C3B 3615  17.324  18.558   9.668  0.2113 -0.0740  0.1540
  226loPI   C4B 3616  17.427  18.568   9.139 -0.0792 -0.1726  0.0651
  227loPI    C1 3617   2.382  17.012  11.245  0.0645  0.0655  0.1823
  227loPI    C2 3618   2.484  17.018  11.632 -0.2988  0.0627  0.2812
  227loPI    C3 3619   2.149  16.831  11.516  0.0576 -0.3628 -0.1004
  227loPI   PO4 3620   2.546  16.907  11.100  0.2192  0.1750  0.1358
  227loPI   GL1 3621   2.640  16.485  10.933 -0.0835 -0.2329 -0.0182
  227loPI   GL2 3622   2.793  16.653  10.701 -0.4192 -0.2012 -0.0679
  227loPI   C1A 3623   2.379  16.734  10.482  0.2756 -0.0510  0.3493
  227loPI   C2A 3624   2.429  16.725  10.091 -0.5843 -0.4178 -0.0081
  227loPI   C3A 3625   2.432  16.792   9.643 -0.0785 -0.1809 -0.0486
  227loPI   C4A 3626   2.400  16.814   9.115  0.1652  0.3150 -0.1201
  227loPI   C5A 3627   2.419  17.164   8.769 -0.0835 -0.3418 -0.2122
  227loPI   C6A 3628   2.301  17.147   8.368  0.0540 -0.0851 -0.0226
  227loPI   C1B 3629   2.752  16.399  10.414  0.2784  0.0737 -0.0974
  227loPI   C2B 3630   2.776  16.409  10.011  0.2329 -0.1867  0.0679
  227loPI   C3B 3631   2.869  16.517   9.595  0.5441 -0.3366  0.0791
  227loPI   C4B 3632   2.860  16.535   9.168  0.0315 -0.2143  0.1590
  228loPI    C1 3633  17.796  17.093  11.451 -0.0384 -0.0724 -0.0390
  228loPI    C2 3634  17.787  16.828  11.751 -0.1400 -0.0982 -0.0643
  228loPI    C3 3635  17.597  17.178  11.788 -0.1376 -0.0941 -0.0916
  228loPI   PO4 3636  17.845  16.893  11.262  0.1954  0.1329  0.1477
  228loPI   GL1 3637  18.029  16.649  10.950  0.0798 -0.2723 -0.1812
  228loPI   GL2 3638  18.231  16.878  10.986 -0.1196  0.1766  0.1562
  228loPI   C1A 3639  18.389  16.643  10.545  0.1867 -0.2104 -0.1881
  228loPI   C2A 3640  18.400  16.739  10.013 -0.2957  0.1262  0.1555
  228loPI   C3A 3641  18.442  16.688   9.625 -0.2239  0.0383  0.3533
  228loPI   C4A 3642  18.505  16.760   9.220 -0.1278  0.1807  0.1739
  228loPI   C5A 3643  18.574  16.688   8.805 -0.0674  0.0512  0.1530
  228loPI   C6A 3644  18.534  16.406   8.437  0.3529 -0.0724  0.0793
  228loPI   C1B 3645  18.138  17.081  10.649 -0.2305 -0.3367  0.0236
  228loPI   C2B 3646  18.229  17.140  10.259 -0.2284 -0.3713 -0.2933
  228loPI   C3B 3647  18.489  17.211   9.919 -0.0370  0.1475  0.0766
  228loPI   C4B 3648  18.523  17.199   9.550 -0.0324  0.0567  0.1601
  229loPI    C1 3649   5.533   6.959  10.955  0.0984 -0.1743  0.0279
  229loPI    C2 3650   5.503   6.869  11.343 -0.1258 -0.3178 -0.0212
  229loPI    C3 3651   5.338   7.205  11.202  0.0455 -0.2133  0.0251
  229loPI   PO4 3652   5.498   6.713  10.787  0.3808 -0.1564 -0.2793
  229loPI   GL1 3653   5.567   6.535  10.249  0.0620  0.1574 -0.0927
  229loPI   GL2 3654   5.786   6.646   9.986 -0.0336 -0.2501  0.1896
  229loPI   C1A 3655   5.287   6.534   9.906  0.1750  0.1152 -0.2157
  229loPI   C2A 3656   5.384   6.641   9.422 -0.1223  0.0908 -0.0508
  229loPI   C3A 3657   5.200   6.687   9.014  0.1211  0.0078  0.2348
  229loPI   C4A 3658   5.322   6.431   8.553 -0.0587 -0.0664 -0.2582
  229loPI   C5A 3659   5.545   6.220   8.256 -0.1398 -0.1292 -0.0743
  229loPI   C6A 3660   5.607   5.793   8.062  0.3405 -0.1617 -0.0048
  229loPI   C1B 3661   5.909   6.661   9.509 -0.0532  0.0552 -0.0273
  229loPI   C2B 3662   6.069   6.714   9.082  0.1250 -0.0210  0.1285
  229loPI   C3B 3663   6.026   6.580   8.702 -0.2060  0.0990  0.0310
  229loPI   C4B 3664   5.754   6.649   8.315 -0.0547  0.0948 -0.0087
  230loPI    C1 3665   1.805   9.500  10.674  0.0161  0.0627 -0.0487
  230loPI    C2 3666   1.970   9.826  10.835 -0.1555  0.0653  0.1248
  230loPI    C3 3667   1.574   9.774  10.850 -0.1201 -0.1988  0.1875
  230loPI   PO4 3668   1.920   9.445  10.494  0.0133 -0.1034 -0.0870
  230loPI   GL1 3669   1.985   9.564  10.085 -0.0454 -0.1375 -0.3374
  230loPI   GL2 3670   1.680   9.500  10.030  0.0885  0.2159 -0.0204
  230loPI   C1A 3671   2.388   9.302   9.921 -0.2307 -0.0074  0.0194
  230loPI   C2A 3672   2.441   8.965   9.588  0.2307  0.0669 -0.0089
  230loPI   C3A 3673   2.489   9.024   9.132 -0.1449  0.0706  0.0041
  230loPI   C4A 3674   2.452   9.131   8.785 -0.0073 -0.0614  0.2448
  230loPI   C5A 3675   2.721   9.319   8.496  0.0594 -0.0222 -0.0558
  230loPI   C6A 3676   3.020   9.492   8.352  0.2709  0.1829  0.3376
  230loPI   C1B 3677   1.447   9.605   9.683  0.0254 -0.0098  0.0838
  230loPI   C2B 3678   1.349   9.537   9.254 -0.1418  0.2311 -0.0505
  230loPI   C3B 3679   1.520   9.288   8.927 -0.2913 -0.0895 -0.1479
  230loPI   C4B 3680   1.374   9.257   8.473 -0.0613 -0.3929  0.0555
  231loPI    C1 3681  15.752  11.401  10.769  0.2771  0.1641 -0.1410
  231loPI    C2 3682  15.537  11.735  10.814  0.1112  0.0579 -0.1379
  231loPI    C3 3683  15.363  11.377  10.856  0.2437 -0.0316 -0.3356
  231loPI   PO4 3684  15.858  11.485  10.544 -0.1108  0.2188 -0.0019
  231loPI   GL1 3685  15.809  11.627  10.258  0.1633 -0.0569 -0.0431
  231loPI   GL2 3686  16.066  11.798  10.105  0.2824  0.0709  0.2425
  231loPI   C1A 3687  15.610  11.482   9.911  0.0368 -0.0557  0.0783
  231loPI   C2A 3688  15.487  11.466   9.503 -0.0176  0.0502  0.3822
  231loPI   C3A 3689  15.506  11.602   9.116  0.1288  0.2621  0.0870
  231loPI   C4A 3690  15.584  11.597   8.735 -0.0537 -0.0287  0.1539
  231loPI   C5A 3691  15.950  11.789   8.542 -0.2320 -0.2292  0.0429
  231loPI   C6A 3692  16.327  12.008   8.505  0.0775  0.4723 -0.1734
  231loPI   C1B 3693  16.262  11.991   9.802 -0.2078 -0.1032  0.0315
  231loPI   C2B 3694  16.195  12.171   9.447 -0.0864 -0.0454 -0.1017
  231loPI   C3B 3695  15.955  12.478   9.214  0.2304  0.1910  0.1654
  231loPI   C4B 3696  15.744  12.696   8.788  0.1582 -0.0132  0.0594
  232loPI    C1 3697   3.505  15.951  11.317 -0.2796 -0.0247  0.0024
  232loPI    C2 3698   3.130  15.902  11.446 -0.2427  0.1400  0.1763
  232loPI    C3 3699   3.354  16.199  11.592 -0.1040  0.1534 -0.0595
  232loPI   PO4 3700   3.439  15.943  10.987 -0.1673  0.1905 -0.0273
  232loPI   GL1 3701   3.771  16.114  10.682  0.1344 -0.1750  0.1573
  232loPI   GL2 3702   3.629  15.834  10.512 -0.2143  0.1383  0.1308
  232loPI   C1A 3703   3.762  16.461  10.432 -0.0488  0.1658  0.0515
  232loPI   C2A 3704   3.785  16.472  10.017  0.1249  0.0142  0.2136
  232loPI   C3A 3705   3.764  16.460   9.593 -0.3433 -0.0681  0.1717
  232loPI   C4A 3706   3.835  16.575   9.113 -0.1145 -0.0075 -0.0687
  232loPI   C5A 3707   3.882  16.510   8.762  0.1324  0.1247  0.2131
  232loPI   C6A 3708   4.175  16.265   8.688 -0.0747 -0.0981  0.0574
  232loPI   C1B 3709   3.764  15.831  10.229  0.1569 -0.1521 -0.1991
  232loPI   C2B 3710   3.764  15.984   9.840  0.1256  0.1765  0.1790
  232loPI   C3B 3711   3.821  15.984   9.358  0.0073  0.0104 -0.2745
  232loPI   C4B 3712   3.779  15.980   8.878  0.0726 -0.0134 -0.0007
  233loPI    C1 3713   3.214   6.513  10.827 -0.2374  0.1064  0.1275
  233loPI    C2 3714   3.470   6.206  10.848 -0.3197  0.0192 -0.1042
  233loPI    C3 3715   3.484   6.498  11.121  0.2201  0.1668 -0.2776
  233loPI   PO4 3716   3.237   6.534  10.589  0.0878  0.2429  0.0909
  233loPI   GL1 3717   3.356   6.788  10.285 -0.1488  0.1762  0.4943
  233loPI   GL2 3718   3.638   6.942  10.278  0.1404  0.0489  0.2241
  233loPI   C1A 3719   3.237   6.733   9.866  0.0365  0.0351 -0.1960
  233loPI   C2A 3720   3.170   6.649   9.531  0.0177 -0.2436 -0.1804
  233loPI   C3A 3721   3.185   6.592   9.087 -0.2317  0.0267  0.1860
  233loPI   C4A 3722   3.167   6.589   8.616 -0.0509  0.0477  0.2243
  233loPI   C5A 3723   2.917   6.786   8.262 -0.0522  0.1009 -0.2678
  233loPI   C6A 3724   2.563   7.053   8.045  0.0948 -0.0017 -0.4125
  233loPI   C1B 3725   3.646   7.050   9.901  0.0645  0.0899  0.0346
  233loPI   C2B 3726   3.898   7.126   9.600 -0.0202  0.1818 -0.0208
  233loPI   C3B 3727   4.029   7.020   9.292 -0.4159  0.0202  0.1980
  233loPI   C4B 3728   4.304   7.206   8.941 -0.1404 -0.0081  0.0364
  234loPI    C1 3729   1.406   0.992  11.467 -0.0626 -0.0589  0.0768
  234loPI    C2 3730   1.065   1.189  11.539 -0.0841 -0.0500 -0.0466
  234loPI    C3 3731   1.241   0.980  11.831  0.0593  0.3351  0.1493
  234loPI   PO4 3732   1.564   1.181  11.354  0.1726 -0.2667 -0.2275
  234loPI   GL1 3733   1.579   1.387  10.872  0.2837 -0.2875 -0.0762
  234loPI   GL2 3734   1.306   1.527  10.694 -0.1564  0.0921 -0.0041
  234loPI   C1A 3735   1.633   1.071  10.613  0.0403  0.0650  0.0668
  234loPI   C2A 3736   1.565   0.746  10.348  0.4534  0.0864 -0.3476
  234loPI   C3A 3737   1.536   0.728   9.953  0.1248 -0.1208 -0.2908
  234loPI   C4A 3738   1.539   0.477   9.588  0.2811  0.0803 -0.1333
  234loPI   C5A 3739   1.406   0.411   9.212 -0.2060  0.1440  0.2000
  234loPI   C6A 3740   1.333   0.423   8.778  0.2334 -0.1140 -0.1577
  234loPI   C1B 3741   1.464   1.511  10.319  0.1945  0.1324 -0.0509
  234loPI   C2B 3742   1.555   1.598   9.886  0.1759 -0.2042 -0.1859
  234loPI   C3B 3743   1.443   1.530   9.501 -0.2134  0.2105 -0.0488
  234loPI   C4B 3744   1.390   1.497   9.115 -0.0084  0.2014 -0.0339
  235loPI    C1 3745  10.095  10.176  10.871  0.0567  0.1011 -0.2833
  235loPI    C2 3746   9.763  10.075  11.069 -0.0410  0.2711 -0.3576
  235loPI    C3 3747   9.849  10.461  11.007  0.3480  0.2430 -0.0396
  235loPI   PO4 3748  10.105   9.857  10.742 -0.1932  0.0500 -0.1531
  235loPI   GL1 3749  10.073   9.662  10.362 -0.2273 -0.4166  0.0548
  235loPI   GL2 3750  10.409   9.770  10.319  0.1212  0.1629  0.0962
  235loPI   C1A 3751   9.824   9.812   9.999 -0.0315  0.1346  0.1613
  235loPI   C2A 3752   9.757   9.797   9.511  0.0585  0.2039 -0.1325
  235loPI   C3A 3753   9.828   9.870   9.007 -0.0087  0.2160  0.2807
  235loPI   C4A 3754   9.788   9.746   8.619 -0.4032  0.4614  0.3149
  235loPI   C5A 3755   9.787  10.031   8.231  0.0970  0.2162  0.1647
  235loPI   C6A 3756   9.898  10.174   7.856 -0.2075 -0.1706  0.0851
  235loPI   C1B 3757  10.270   9.578   9.949  0.1297  0.1368 -0.2595
  235loPI   C2B 3758  10.224   9.572   9.497  0.3621  0.1981 -0.0958
  235loPI   C3B 3759  10.341   9.587   9.154 -0.2760 -0.0337 -0.4134
  235loPI   C4B 3760  10.283   9.636   8.755  0.2196 -0.0558  0.1491
  236loPI    C1 3761   3.000   3.619  10.710 -0.1653  0.1799  0.2250
  236loPI    C2 3762   3.299   3.708  10.960  0.1207  0.0163 -0.0524
  236loPI    C3 3763   2.926   3.825  11.045  0.2618  0.2300  0.2933
  236loPI   PO4 3764   3.072   3.405  10.623  0.2143  0.0211  0.0780
  236loPI   GL1 3765   3.353   3.218  10.183 -0.1779  0.0144 -0.2993
  236loPI   GL2 3766   3.701   3.232  10.045 -0.0645  0.2432  0.0388
  236loPI   C1A 3767   3.225   3.058   9.845  0.1060  0.0038  0.0783
  236loPI   C2A 3768   3.212   2.995   9.483 -0.0131  0.1168 -0.0161
  236loPI   C3A 3769   3.173   2.950   9.037  0.1395 -0.1082 -0.0273
  236loPI   C4A 3770   3.068   3.042   8.587 -0.2183  0.0742 -0.0772
  236loPI   C5A 3771   3.179   2.777   8.297  0.1226 -0.1547 -0.1148
  236loPI   C6A 3772   3.510   2.707   8.027  0.0388  0.2964  0.1024
  236loPI   C1B 3773   3.684   3.314   9.581 -0.2858  0.3886  0.1383
  236loPI   C2B 3774   3.615   3.273   9.086 -0.0434 -0.0550  0.0744
  236loPI   C3B 3775   3.579   3.180   8.680 -0.1402 -0.0345 -0.0223
  236loPI   C4B 3776   3.598   3.195   8.131 -0.1013  0.0655  0.1414
  237loPI    C1 3777  15.510   3.973  10.398 -0.0477 -0.2860  0.0268
  237loPI    C2 3778  15.688   4.265  10.607  0.1461 -0.3595 -0.0340
  237loPI    C3 3779  15.591   3.921  10.786  0.0876 -0.3289 -0.0068
  237loPI   PO4 3780  15.183   3.926  10.302  0.0455  0.0342 -0.1216
  237loPI   GL1 3781  14.938   3.842  10.022 -0.0228 -0.3109  0.2074
  237loPI   GL2 3782  14.671   3.979  10.007  0.0510 -0.1845 -0.2252
  237loPI   C1A 3783  15.094   3.901   9.542 -0.2379 -0.1085 -0.2630
  237loPI   C2A 3784  15.137   3.869   9.260  0.1941 -0.1076 -0.0943
  237loPI   C3A 3785  14.879   3.912   8.889 -0.0378 -0.2295  0.0281
  237loPI   C4A 3786  14.812   3.669   8.495  0.0026  0.1660  0.0440
  237loPI   C5A 3787  15.136   3.581   8.321  0.1118  0.1653  0.0514
  237loPI   C6A 3788  15.476   3.445   7.989  0.1355  0.1184 -0.3216
  237loPI   C1B 3789  14.611   4.175   9.605 -0.0497 -0.0447  0.0265
  237loPI   C2B 3790  14.553   4.267   9.178  0.3142  0.1850 -0.0955
  237loPI   C3B 3791  14.518   4.222   8.729 -0.1487 -0.1020  0.0273
  237loPI   C4B 3792  14.608   4.061   8.357 -0.0573 -0.1603  0.2168
  238loPI    C1 3793  17.687  10.099  10.688  0.1052 -0.0548 -0.3802
  238loPI    C2 3794  17.355   9.884  10.752  0.1220 -0.0301 -0.2043
  238loPI    C3 3795  17.686   9.807  10.962  0.0979  0.2350 -0.0654
  238loPI   PO4 3796  17.605  10.191  10.483  0.1495  0.4223  0.1455
  238loPI   GL1 3797  17.786  10.322  10.115 -0.1363  0.3622  0.3649
  238loPI   GL2 3798  17.913  10.055  10.129  0.0162 -0.1795  0.0071
  238loPI   C1A 3799  17.731  10.275   9.677 -0.0116 -0.1296  0.0788
  238loPI   C2A 3800  17.860  10.216   9.254 -0.1768  0.0123 -0.0534
  238loPI   C3A 3801  17.765  10.133   8.872 -0.0829  0.2724 -0.0438
  238loPI   C4A 3802  17.914  10.037   8.512  0.0479  0.3005  0.0114
  238loPI   C5A 3803  18.064   9.880   8.117 -0.0867  0.1499  0.2421
  238loPI   C6A 3804  17.942   9.657   7.786 -0.0729 -0.2986 -0.1018
  238loPI   C1B 3805  18.081   9.845   9.817 -0.3738 -0.1378  0.3592
  238loPI   C2B 3806  18.028   9.752   9.410  0.1460 -0.1380 -0.0529
  238loPI   C3B 3807  18.105   9.720   8.998  0.1994 -0.2017  0.1808
  238loPI   C4B 3808  18.311   9.766   8.551  0.1248  0.0516 -0.1429
  239loPI    C1 3809   9.821  16.967  10.749 -0.1023 -0.1236  0.1935
  239loPI    C2 3810   9.917  16.583  10.694 -0.1380 -0.1059  0.0014
  239loPI    C3 3811   9.884  16.729  11.065  0.1129 -0.2277  0.0736
  239loPI   PO4 3812   9.961  17.078  10.539 -0.1160 -0.0540 -0.0976
  239loPI   GL1 3813  10.140  16.956  10.169 -0.3625 -0.5508  0.0086
  239loPI   GL2 3814  10.290  17.196   9.939 -0.2563 -0.1704 -0.2962
  239loPI   C1A 3815   9.993  16.993   9.676 -0.1462 -0.1298  0.0121
  239loPI   C2A 3816   9.942  17.044   9.295 -0.1396 -0.2553 -0.3759
  239loPI   C3A 3817  10.037  17.012   8.869  0.5563  0.1226 -0.0996
  239loPI   C4A 3818  10.141  17.111   8.515  0.1035  0.1252  0.2611
  239loPI   C5A 3819  10.081  17.298   8.109  0.0777  0.2313 -0.0533
  239loPI   C6A 3820   9.710  17.331   7.898 -0.0535 -0.0350  0.2769
  239loPI   C1B 3821  10.470  17.331   9.531  0.0573  0.1773  0.2440
  239loPI   C2B 3822  10.414  17.314   9.069 -0.0407  0.1075 -0.0054
  239loPI   C3B 3823  10.658  17.187   8.758 -0.0417 -0.0427 -0.0064
  239loPI   C4B 3824  10.710  17.342   8.338  0.0415  0.1794 -0.0504
  240loPI    C1 3825   8.845  12.230  10.848  0.0331 -0.0917  0.0517
  240loPI    C2 3826   8.641  12.195  11.191  0.0894 -0.2356  0.0714
  240loPI    C3 3827   8.459  12.335  10.864  0.0939  0.1141  0.2138
  240loPI   PO4 3828   9.004  11.961  10.881 -0.0879  0.2398 -0.0345
  240loPI   GL1 3829   9.019  11.783  10.494 -0.0463  0.3897 -0.2743
  240loPI   GL2 3830   8.774  12.062  10.415  0.2966  0.3654 -0.0673
  240loPI   C1A 3831   9.001  11.487  10.115 -0.2993 -0.1747  0.0640
  240loPI   C2A 3832   8.874  11.386   9.710 -0.0033 -0.3521  0.0254
  240loPI   C3A 3833   8.897  11.352   9.312 -0.2153  0.2011  0.0809
  240loPI   C4A 3834   8.807  11.268   8.964  0.1116  0.0008 -0.1570
  240loPI   C5A 3835   8.743  11.293   8.536 -0.4099 -0.1292 -0.1519
  240loPI   C6A 3836   8.667  11.076   8.169 -0.1536 -0.0395  0.1266
  240loPI   C1B 3837   8.765  11.889  10.009  0.0787 -0.0519  0.1806
  240loPI   C2B 3838   8.824  11.874   9.512 -0.2316  0.1783 -0.2278
  240loPI   C3B 3839   8.740  11.776   9.103  0.0693 -0.0064 -0.1565
  240loPI   C4B 3840   8.685  11.833   8.674 -0.1716 -0.1136 -0.2172
  241loPI    C1 3841  16.861  11.520  10.864  0.0531 -0.2254  0.2799
  241loPI    C2 3842  17.251  11.573  10.795 -0.0142 -0.0432  0.0242
  241loPI    C3 3843  17.088  11.210  10.753  0.1487 -0.1451  0.2504
  241loPI   PO4 3844  16.705  11.720  10.692  0.1704 -0.2114  0.1676
  241loPI   GL1 3845  16.821  11.641  10.373  0.2206 -0.0161  0.1170
  241loPI   GL2 3846  16.534  11.737  10.179  0.1817 -0.3129 -0.1190
  241loPI   C1A 3847  17.070  11.676  10.014  0.0341  0.0958  0.1193
  241loPI   C2A 3848  17.057  11.686   9.527 -0.1777  0.2214  0.0303
  241loPI   C3A 3849  16.926  11.811   9.146 -0.1622  0.0074 -0.0706
  241loPI   C4A 3850  16.818  11.594   8.723  0.1803 -0.2848  0.0797
  241loPI   C5A 3851  16.647  11.251   8.587  0.0456 -0.0454  0.1210
  241loPI   C6A 3852  16.845  10.898   8.411 -0.2722 -0.1957 -0.1759
  241loPI   C1B 3853  16.604  11.582   9.767 -0.0237  0.0371 -0.1443
  241loPI   C2B 3854  16.540  11.814   9.439 -0.0298  0.1258 -0.0057
  241loPI   C3B 3855  16.441  11.936   9.072  0.0227  0.2887 -0.0111
  241loPI   C4B 3856  16.745  12.151   8.803 -0.0168  0.0126  0.2147
  242loPI    C1 3857   9.761  14.318  10.828  0.0871 -0.3470 -0.1487
  242loPI    C2 3858  10.086  14.405  11.044  0.1394 -0.3347 -0.2320
  242loPI    C3 3859   9.748  14.295  11.227  0.0539  0.0977 -0.1185
  242loPI   PO4 3860   9.804  14.179  10.657  0.2329  0.0192 -0.4553
  242loPI   GL1 3861   9.694  14.044  10.254  0.0388 -0.2269 -0.1133
  242loPI   GL2 3862   9.553  13.825  10.223  0.0642 -0.0110 -0.1314
  242loPI   C1A 3863   9.750  14.090   9.874  0.1383  0.0813  0.1601
  242loPI   C2A 3864   9.535  14.110   9.502 -0.1145  0.1212  0.4359
  242loPI   C3A 3865   9.559  14.058   9.147  0.0824 -0.2992  0.0397
  242loPI   C4A 3866   9.518  14.249   8.702  0.3888  0.0685  0.0762
  242loPI   C5A 3867   9.209  14.318   8.452 -0.1588  0.2556 -0.0183
  242loPI   C6A 3868   8.868  14.362   8.058 -0.0696  0.2471  0.1098
  242loPI   C1B 3869   9.412  13.702   9.774 -0.1214 -0.0211  0.2087
  242loPI   C2B 3870   9.271  13.627   9.417  0.2673 -0.2664  0.2032
  242loPI   C3B 3871   9.169  13.569   9.002 -0.0590  0.1876 -0.1377
  242loPI   C4B 3872   8.754  13.629   8.732  0.3273  0.1642  0.2130
  243loPI    C1 3873  17.336   4.109  10.711 -0.0143 -0.0115  0.1768
  243loPI    C2 3874  17.078   4.414  10.685 -0.2857 -0.2491  0.0199
  243loPI    C3 3875  17.231   4.311  11.040  0.1066  0.3057  0.0249
  243loPI   PO4 3876  17.571   4.144  10.478 -0.0276  0.1065  0.0689
  243loPI   GL1 3877  17.576   4.305   9.999 -0.0665 -0.0363  0.1658
  243loPI   GL2 3878  17.349   4.586   9.981 -0.2210 -0.2069 -0.1253
  243loPI   C1A 3879  17.826   4.428   9.616 -0.1234  0.1362 -0.1684
  243loPI   C2A 3880  17.893   4.288   9.234  0.2200 -0.0922  0.0402
  243loPI   C3A 3881  17.850   4.208   8.868 -0.1111 -0.3170  0.0356
  243loPI   C4A 3882  17.860   4.370   8.469 -0.1357 -0.3513 -0.0913
  243loPI   C5A 3883  17.595   4.384   8.064  0.0070  0.0585  0.0286
  243loPI   C6A 3884  17.186   4.308   7.797 -0.0596  0.0103  0.1318
  243loPI   C1B 3885  17.363   4.594   9.572  0.0787  0.1770 -0.0451
  243loPI   C2B 3886  17.463   4.477   9.090  0.1132 -0.2087  0.1662
  243loPI   C3B 3887  17.442   4.502   8.686  0.2092 -0.0343  0.0728
  243loPI   C4B 3888  17.419   4.805   8.337  0.2021  0.0990 -0.1337
  244loPI    C1 3889   6.444   9.454  10.879  0.2868  0.2207  0.0181
  244loPI    C2 3890   6.271   9.212  11.147 -0.0751  0.1250 -0.2927
  244loPI    C3 3891   6.337   9.596  11.238 -0.1445  0.0808 -0.0487
  244loPI   PO4 3892   6.272   9.498  10.643 -0.2036 -0.0046 -0.3762
  244loPI   GL1 3893   6.529   9.454  10.226  0.0439 -0.0287 -0.0646
  244loPI   GL2 3894   6.398   9.106  10.306 -0.1306 -0.0483  0.0114
  244loPI   C1A 3895   6.507   9.528   9.813 -0.1593  0.1666  0.1614
  244loPI   C2A 3896   6.574   9.466   9.371  0.1815  0.2446 -0.1834
  244loPI   C3A 3897   6.663   9.502   8.959 -0.0231 -0.0726  0.1230
  244loPI   C4A 3898   6.506   9.623   8.573  0.1349 -0.0521  0.0506
  244loPI   C5A 3899   6.325   9.792   8.155  0.0513  0.0722 -0.2358
  244loPI   C6A 3900   6.066   9.746   7.853  0.1052  0.1237 -0.0002
  244loPI   C1B 3901   6.525   9.007   9.887 -0.1956 -0.1474  0.2386
  244loPI   C2B 3902   6.639   8.972   9.443 -0.0584 -0.0087  0.1050
  244loPI   C3B 3903   6.624   9.002   9.062 -0.1360 -0.2594  0.0631
  244loPI   C4B 3904   6.674   9.115   8.645 -0.1727  0.0824  0.1996
  245loPI    C1 3905   2.401  14.432  11.409 -0.3334 -0.0118 -0.3138
  245loPI    C2 3906   2.022  14.380  11.526 -0.2979  0.0999 -0.1464
  245loPI    C3 3907   2.206  14.729  11.592 -0.0563 -0.0669  0.0833
  245loPI   PO4 3908   2.438  14.329  11.153  0.0752  0.0421  0.0410
  245loPI   GL1 3909   2.509  14.106  10.805 -0.1627  0.1422 -0.2073
  245loPI   GL2 3910   2.274  14.000  10.535  0.2741 -0.1217  0.2653
  245loPI   C1A 3911   2.713  14.271  10.501  0.0442  0.0898  0.1632
  245loPI   C2A 3912   2.831  14.354  10.073 -0.0947  0.1740 -0.4171
  245loPI   C3A 3913   2.786  14.356   9.639  0.3097 -0.1279 -0.1306
  245loPI   C4A 3914   2.843  14.380   9.245  0.0174  0.1094 -0.0831
  245loPI   C5A 3915   2.784  14.385   8.768  0.1077  0.0146 -0.1800
  245loPI   C6A 3916   2.757  14.072   8.403 -0.0850  0.1546 -0.1442
  245loPI   C1B 3917   2.391  14.001  10.075 -0.0711  0.1533 -0.0226
  245loPI   C2B 3918   2.354  14.089   9.647  0.1748  0.3851 -0.2226
  245loPI   C3B 3919   2.354  14.200   9.257 -0.0755 -0.1939 -0.4250
  245loPI   C4B 3920   2.353  14.174   8.816  0.0279 -0.1421  0.0999
  246loPI    C1 3921   8.980   4.280  10.252  0.2567 -0.2500 -0.0547
  246loPI    C2 3922   8.764   4.104  10.539 -0.0443 -0.0173 -0.1329
  246loPI    C3 3923   9.163   4.083  10.548 -0.0566 -0.1807  0.1911
  246loPI   PO4 3924   8.720   4.452  10.143 -0.0774  0.1381  0.2096
  246loPI   GL1 3925   8.637   4.592   9.768 -0.1601 -0.2183 -0.1662
  246loPI   GL2 3926   9.062   4.615   9.741  0.0470 -0.0787 -0.3972
  246loPI   C1A 3927   8.627   4.833   9.440 -0.1979 -0.0566 -0.0443
  246loPI   C2A 3928   8.698   5.007   9.101 -0.2823  0.1939 -0.1388
  246loPI   C3A 3929   8.900   5.154   8.684 -0.0017  0.1549  0.0574
  246loPI   C4A 3930   8.886   5.181   8.184  0.0657  0.3254 -0.0934
  246loPI   C5A 3931   9.137   5.074   7.839  0.0235 -0.0037  0.1874
  246loPI   C6A 3932   9.465   5.162   7.591 -0.0840  0.1024 -0.0319
  246loPI   C1B 3933   9.093   4.702   9.244 -0.2616  0.2112 -0.3695
  246loPI   C2B 3934   9.154   4.775   8.836 -0.0489 -0.0773 -0.3218
  246loPI   C3B 3935   9.075   4.687   8.366 -0.1255  0.1098 -0.1045
  246loPI   C4B 3936   9.004   4.586   7.990 -0.0447  0.1513  0.4730
  247loPI    C1 3937  12.648   1.041  10.307 -0.0728 -0.0595 -0.0500
  247loPI    C2 3938  12.873   1.088   9.980  0.0649  0.2148  0.0808
  247loPI    C3 3939  13.036   0.944  10.315 -0.0796 -0.0801  0.0283
  247loPI   PO4 3940  12.441   1.002  10.261 -0.0839 -0.2067 -0.1895
  247loPI   GL1 3941  12.278   0.849   9.886  0.0064  0.2600 -0.2457
  247loPI   GL2 3942  12.073   1.096   9.875 -0.0234 -0.2666  0.0248
  247loPI   C1A 3943  12.556   0.975   9.631  0.2335  0.2192  0.0170
  247loPI   C2A 3944  12.770   1.370   9.595 -0.0543  0.0147  0.2742
  247loPI   C3A 3945  12.923   1.721   9.353 -0.2321 -0.0508  0.1395
  247loPI   C4A 3946  13.017   1.780   9.035 -0.1585  0.4946 -0.0557
  247loPI   C5A 3947  12.973   1.817   8.746 -0.2947  0.1362  0.2816
  247loPI   C6A 3948  12.555   2.068   8.658 -0.2324 -0.0976 -0.0183
  247loPI   C1B 3949  12.306   1.385   9.662 -0.1294 -0.0095 -0.1007
  247loPI   C2B 3950  12.435   1.314   9.232 -0.1438  0.0846 -0.1490
  247loPI   C3B 3951  12.841   1.249   9.091 -0.0733  0.0559  0.0414
  247loPI   C4B 3952  13.271   1.196   9.357  0.1082 -0.2787  0.1629
  248loPI    C1 3953  17.061   1.809  10.733 -0.1076 -0.0249 -0.1215
  248loPI    C2 3954  17.292   1.559  10.943 -0.0788 -0.0533 -0.1866
  248loPI    C3 3955  17.448   1.894  10.789 -0.1075 -0.0160 -0.1350
  248loPI   PO4 3956  16.975   1.780  10.594 -0.0606  0.0891 -0.0056
  248loPI   GL1 3957  16.957   1.442  10.275 -0.0599  0.0527  0.0520
  248loPI   GL2 3958  16.727   1.295  10.255  0.1103  0.0224  0.1544
  248loPI   C1A 3959  17.048   1.519   9.855  0.0032  0.1244 -0.3149
  248loPI   C2A 3960  16.994   1.553   9.450 -0.0180 -0.2949  0.0916
  248loPI   C3A 3961  17.082   1.591   8.998  0.3308 -0.0537  0.1323
  248loPI   C4A 3962  17.060   1.717   8.564 -0.1913 -0.0432  0.3816
  248loPI   C5A 3963  17.068   1.755   8.087  0.0177 -0.0442 -0.0838
  248loPI   C6A 3964  17.238   1.590   7.750  0.0345 -0.0908 -0.1975
  248loPI   C1B 3965  16.644   1.027   9.991  0.0553 -0.0407 -0.1142
  248loPI   C2B 3966  16.705   1.123   9.499 -0.1341 -0.1327  0.2197
  248loPI   C3B 3967  16.782   1.240   9.104  0.5863  0.0114  0.0501
  248loPI   C4B 3968  16.736   1.398   8.651 -0.0788  0.1032 -0.1266
  249loPI    C1 3969   3.549  11.263  10.437  0.1253  0.0238  0.0964
  249loPI    C2 3970   3.217  11.485  10.449  0.2416  0.2187 -0.1779
  249loPI    C3 3971   3.193  11.095  10.365  0.0785  0.2222 -0.1517
  249loPI   PO4 3972   3.727  11.358  10.363  0.3407  0.1967  0.3182
  249loPI   GL1 3973   3.767  11.608  10.042  0.1256 -0.2022 -0.1830
  249loPI   GL2 3974   3.960  11.816  10.128 -0.0187  0.0601  0.0922
  249loPI   C1A 3975   3.815  11.680   9.604 -0.2574  0.4514 -0.0387
  249loPI   C2A 3976   3.826  11.711   9.128  0.0137  0.1972 -0.0812
  249loPI   C3A 3977   3.655  11.745   8.750 -0.1052  0.0238 -0.0116
  249loPI   C4A 3978   3.445  11.681   8.358  0.1473  0.0674  0.2608
  249loPI   C5A 3979   3.157  11.526   7.950  0.0450 -0.0636 -0.3067
  249loPI   C6A 3980   2.844  11.622   7.688 -0.1286  0.0225 -0.0624
  249loPI   C1B 3981   4.261  11.954   9.752  0.0465 -0.2426  0.2194
  249loPI   C2B 3982   4.327  11.966   9.340  0.0097  0.3282 -0.0841
  249loPI   C3B 3983   4.359  11.991   8.890 -0.0765 -0.1202  0.3915
  249loPI   C4B 3984   4.261  12.172   8.434  0.2472 -0.1990 -0.0931
  250loPI    C1 3985   7.368  13.075  10.624  0.0446 -0.0018  0.0564
  250loPI    C2 3986   7.727  12.940  10.737  0.0186 -0.0682  0.0601
  250loPI    C3 3987   7.437  12.990  11.008  0.0423  0.0387  0.0659
  250loPI   PO4 3988   7.351  13.235  10.536 -0.2102  0.2050 -0.0565
  250loPI   GL1 3989   7.424  13.419  10.138 -0.0648 -0.2238 -0.5308
  250loPI   GL2 3990   7.189  13.130  10.074 -0.1299  0.1616 -0.0363
  250loPI   C1A 3991   7.586  13.299   9.841  0.0602  0.2485  0.1294
  250loPI   C2A 3992   7.496  13.094   9.455  0.0770 -0.1445 -0.0751
  250loPI   C3A 3993   7.493  13.091   8.985 -0.1915  0.0632 -0.2084
  250loPI   C4A 3994   7.465  13.080   8.590  0.3033  0.0506  0.0663
  250loPI   C5A 3995   7.244  12.690   8.483 -0.1397  0.0788 -0.4364
  250loPI   C6A 3996   7.441  12.365   8.218 -0.3047  0.0304 -0.0798
  250loPI   C1B 3997   7.072  12.952   9.654 -0.0600  0.0370 -0.3067
  250loPI   C2B 3998   7.019  12.953   9.256  0.3603 -0.1990  0.4448
  250loPI   C3B 3999   6.985  13.175   8.816 -0.3023  0.1261  0.0667
  250loPI   C4B 4000   6.881  13.265   8.403  0.1081  0.2332 -0.0794
  251loPI    C1 4001   0.754   4.258  10.372 -0.0350  0.0851  0.0681
  251loPI    C2 4002   1.054   4.471  10.528  0.0136  0.0342  0.0447
  251loPI    C3 4003   0.896   4.167  10.735 -0.0327  0.0712  0.0638
  251loPI   PO4 4004   0.559   4.412  10.261 -0.2653  0.0879  0.0189
  251loPI   GL1 4005   0.479   4.652   9.887 -0.0848  0.4356  0.1640
  251loPI   GL2 4006   0.514   4.932   9.723  0.1087  0.1178  0.1637
  251loPI   C1A 4007   0.385   4.623   9.387  0.2824 -0.2591  0.1178
  251loPI   C2A 4008   0.342   4.570   8.909  0.2197  0.2259  0.0844
  251loPI   C3A 4009   0.542   4.613   8.526 -0.2623  0.1480 -0.3322
  251loPI   C4A 4010   0.739   4.624   8.188  0.0104 -0.0954  0.0949
  251loPI   C5A 4011   0.728   4.929   7.836 -0.2637  0.4522 -0.0672
  251loPI   C6A 4012   0.447   4.789   7.558 -0.1173  0.2055  0.2644
  251loPI   C1B 4013   0.642   5.029   9.299  0.2516 -0.0456  0.5346
  251loPI   C2B 4014   0.686   4.993   8.884 -0.1239  0.0331 -0.2943
  251loPI   C3B 4015   0.986   4.914   8.548 -0.2335 -0.3353 -0.0798
  251loPI   C4B 4016   1.393   4.929   8.188  0.0036  0.1760  0.1053
  252loPI    C1 4017  16.529  11.104  11.001 -0.1577  0.0477 -0.1706
  252loPI    C2 4018  16.566  11.322  11.334  0.0762 -0.0234 -0.1480
  252loPI    C3 4019  16.299  11.025  11.318 -0.0079  0.0470 -0.0608
  252loPI   PO4 4020  16.696  11.016  10.958  0.0897  0.0273 -0.2288
  252loPI   GL1 4021  16.786  10.940  10.454 -0.3121  0.1840  0.0279
  252loPI   GL2 4022  16.858  10.676  10.284  0.0676 -0.1580  0.0314
  252loPI   C1A 4023  16.532  10.984  10.088 -0.0617  0.0078 -0.1117
  252loPI   C2A 4024  16.515  10.988   9.736  0.1868 -0.0379  0.2643
  252loPI   C3A 4025  16.366  10.942   9.240 -0.0338  0.1717  0.0604
  252loPI   C4A 4026  16.337  10.993   8.853  0.0752  0.1023  0.0444
  252loPI   C5A 4027  16.252  10.924   8.368  0.0631 -0.3187  0.2439
  252loPI   C6A 4028  16.577  11.143   8.079  0.2776 -0.1480  0.0648
  252loPI   C1B 4029  16.944  10.703   9.867 -0.1047  0.0263 -0.1676
  252loPI   C2B 4030  16.969  10.811   9.388  0.3981  0.1368  0.2292
  252loPI   C3B 4031  16.804  10.769   8.909  0.0289  0.2524 -0.0039
  252loPI   C4B 4032  17.161  10.628   8.686  0.0235 -0.2151 -0.0418
  253loPI    C1 4033   8.343  16.932  10.730 -0.1838  0.0135  0.1053
  253loPI    C2 4034   8.564  17.230  10.880 -0.0140  0.0651 -0.2366
  253loPI    C3 4035   8.401  16.959  11.125  0.0625  0.2773  0.0548
  253loPI   PO4 4036   8.458  16.864  10.519 -0.2100  0.0132  0.1175
  253loPI   GL1 4037   8.598  16.878  10.222  0.2663  0.2822  0.0413
  253loPI   GL2 4038   8.553  17.093  10.015 -0.2511 -0.0185  0.3614
  253loPI   C1A 4039   8.655  16.660   9.782  0.3764  0.3306 -0.3355
  253loPI   C2A 4040   8.652  16.708   9.334  0.0799  0.3724  0.2265
  253loPI   C3A 4041   8.752  16.775   8.875  0.2621  0.3389 -0.2751
  253loPI   C4A 4042   8.779  16.690   8.476 -0.0713 -0.1604  0.1573
  253loPI   C5A 4043   8.929  16.735   8.092  0.0695  0.1515  0.2576
  253loPI   C6A 4044   8.937  16.695   7.671  0.0372 -0.2688  0.0250
  253loPI   C1B 4045   8.438  17.069   9.658  0.4310  0.2537  0.0445
  253loPI   C2B 4046   8.430  17.110   9.187 -0.0135  0.0008  0.4401
  253loPI   C3B 4047   8.384  17.056   8.798  0.1469 -0.0666  0.2312
  253loPI   C4B 4048   8.279  17.112   8.356 -0.2559  0.0056  0.0383
  254loPI    C1 4049   0.065  17.651  11.423  0.3240  0.1426  0.1649
  254loPI    C2 4050  -0.323  17.593  11.347  0.3743  0.0375 -0.0169
  254loPI    C3 4051  -0.211  17.772  11.686  0.1650  0.1225  0.0090
  254loPI   PO4 4052   0.160  17.763  11.257  0.0533 -0.1658 -0.0388
  254loPI   GL1 4053   0.203  17.566  10.824  0.1857  0.1418 -0.0097
  254loPI   GL2 4054  -0.027  17.280  10.978 -0.0589  0.0795 -0.1698
  254loPI   C1A 4055   0.416  17.650  10.437 -0.0804  0.1891 -0.0754
  254loPI   C2A 4056   0.482  17.693   9.982 -0.2113 -0.1437 -0.2241
  254loPI   C3A 4057   0.580  17.690   9.590 -0.1749  0.4107 -0.1820
  254loPI   C4A 4058   0.591  17.570   9.143 -0.1093  0.0169 -0.1809
  254loPI   C5A 4059   0.746  17.742   8.714  0.0508 -0.1941  0.2014
  254loPI   C6A 4060   0.464  18.048   8.582  0.0065 -0.1226  0.0460
  254loPI   C1B 4061  -0.276  17.208  10.621 -0.1469  0.0261  0.3268
  254loPI   C2B 4062  -0.224  17.062  10.217 -0.1556  0.0157 -0.0656
  254loPI   C3B 4063   0.119  17.029   9.867 -0.1860  0.1699  0.2966
  254loPI   C4B 4064   0.203  17.003   9.452  0.1660 -0.0706 -0.2780
  255loPI    C1 4065   3.193  17.471  11.264 -0.2375 -0.2652 -0.1306
  255loPI    C2 4066   2.917  17.274  11.476  0.0258 -0.1758  0.3085
  255loPI    C3 4067   3.306  17.205  11.541  0.1138 -0.1778 -0.1839
  255loPI   PO4 4068   3.134  17.434  11.035  0.2530  0.1538 -0.3133
  255loPI   GL1 4069   2.970  17.208  10.665 -0.0730 -0.3531  0.0311
  255loPI   GL2 4070   2.721  17.143  10.688 -0.2916 -0.1990  0.0060
  255loPI   C1A 4071   3.263  17.205  10.373 -0.2652  0.0492  0.0043
  255loPI   C2A 4072   3.449  17.232  10.013  0.2442 -0.1271 -0.2847
  255loPI   C3A 4073   3.327  17.235   9.557 -0.0146 -0.2018 -0.0478
  255loPI   C4A 4074   3.267  17.286   9.087  0.3740 -0.0143  0.1246
  255loPI   C5A 4075   3.324  17.040   8.674  0.2875 -0.1959  0.3234
  255loPI   C6A 4076   3.003  16.771   8.395 -0.1468 -0.0344  0.2702
  255loPI   C1B 4077   2.781  16.942  10.294  0.0985 -0.3167  0.0705
  255loPI   C2B 4078   2.886  16.959   9.919  0.0816 -0.0924 -0.0993
  255loPI   C3B 4079   2.886  17.082   9.394  0.0541 -0.2796 -0.2801
  255loPI   C4B 4080   2.896  17.015   8.999  0.0099  0.0135  0.2224
  256loPI    C1 4081  13.055  16.761  10.789 -0.0035  0.2950 -0.3023
  256loPI    C2 4082  13.348  16.878  11.035  0.0307 -0.1408 -0.1257
  256loPI    C3 4083  13.120  17.151  10.851  0.2041  0.1956  0.1456
  256loPI   PO4 4084  13.110  16.665  10.594  0.0057  0.0632  0.0546
  256loPI   GL1 4085  13.358  16.655  10.149  0.0255 -0.2472  0.0089
  256loPI   GL2 4086  13.190  16.741  10.013  0.2296 -0.1392 -0.2261
  256loPI   C1A 4087  13.585  16.467   9.852  0.1820 -0.0329  0.1927
  256loPI   C2A 4088  13.542  16.469   9.429 -0.1197  0.1899 -0.2150
  256loPI   C3A 4089  13.499  16.276   8.995 -0.1045 -0.2229  0.0870
  256loPI   C4A 4090  13.358  16.426   8.643 -0.1356  0.1547  0.2395
  256loPI   C5A 4091  13.180  16.300   8.329 -0.1205 -0.1228  0.0504
  256loPI   C6A 4092  12.928  16.141   8.020  0.3005  0.0978  0.1685
  256loPI   C1B 4093  13.116  16.810   9.577 -0.2927  0.0893  0.0495
  256loPI   C2B 4094  12.979  17.084   9.208 -0.1666  0.3039 -0.0437
  256loPI   C3B 4095  12.957  16.926   8.881  0.2231  0.0685  0.1743
  256loPI   C4B 4096  13.082  16.852   8.468 -0.0469  0.1345  0.1345
  257loPI    C1 4097   8.960  17.585  10.326  0.3129 -0.0676  0.1477
  257loPI    C2 4098   8.843  17.640  10.704  0.3518  0.0595  0.1417
  257loPI    C3 4099   9.207  17.760  10.588  0.3619 -0.0318  0.0781
  257loPI   PO4 4100   8.704  17.606  10.112  0.0787  0.1644  0.1532
  257loPI   GL1 4101   8.370  17.789   9.907  0.2310  0.3862  0.1345
  257loPI   GL2 4102   8.405  17.568   9.730  0.0199 -0.3239  0.1862
  257loPI   C1A 4103   7.977  17.805   9.573  0.1888 -0.2731  0.1488
  257loPI   C2A 4104   7.892  17.802   9.108 -0.0262  0.0680 -0.1048
  257loPI   C3A 4105   7.909  17.826   8.619  0.0348 -0.0583 -0.0966
  257loPI   C4A 4106   7.848  17.803   8.136  0.1153  0.0165  0.3112
  257loPI   C5A 4107   7.920  17.392   7.882  0.3372  0.0517  0.1548
  257loPI   C6A 4108   7.876  17.011   8.040  0.0832 -0.1516  0.1132
  257loPI   C1B 4109   8.431  17.606   9.435 -0.2397 -0.0110 -0.5714
  257loPI   C2B 4110   8.361  17.595   9.010 -0.2354  0.0801 -0.1171
  257loPI   C3B 4111   8.466  17.520   8.575  0.0983 -0.0298  0.1337
  257loPI   C4B 4112   8.398  17.478   8.086 -0.3433 -0.1228  0.1637
  258loPI    C1 4113   1.695  10.403  10.402  0.1206  0.2619 -0.1993
  258loPI    C2 4114   2.013  10.301  10.623 -0.0285  0.2589  0.0166
  258loPI    C3 4115   1.643  10.234  10.761 -0.1251 -0.0148 -0.3610
  258loPI   PO4 4116   1.739  10.566  10.301  0.4589 -0.1135  0.1033
  258loPI   GL1 4117   1.666  10.748   9.868 -0.1375 -0.2051  0.0152
  258loPI   GL2 4118   1.910  10.557   9.819 -0.2807  0.2268 -0.0257
  258loPI   C1A 4119   1.589  10.989   9.493  0.0653  0.1447 -0.1744
  258loPI   C2A 4120   1.607  11.147   9.045  0.1495 -0.2385  0.2765
  258loPI   C3A 4121   1.445  11.273   8.674 -0.0294 -0.0770  0.3269
  258loPI   C4A 4122   1.006  11.395   8.658  0.3929 -0.1136  0.2485
  258loPI   C5A 4123   0.695  11.198   8.527  0.2538 -0.0819 -0.1195
  258loPI   C6A 4124   0.593  10.865   8.150 -0.0247 -0.0345 -0.1035
  258loPI   C1B 4125   1.864  10.523   9.333 -0.0131  0.0266 -0.1636
  258loPI   C2B 4126   1.964  10.464   8.922  0.0631  0.0608 -0.0145
  258loPI   C3B 4127   1.750  10.120   8.635 -0.1533  0.0749  0.1978
  258loPI   C4B 4128   1.878  10.035   8.179  0.2332  0.0266 -0.3547
  259loPI    C1 4129  17.446   0.248  11.384  0.0013 -0.2421 -0.0515
  259loPI    C2 4130  17.836   0.298  11.458  0.0064 -0.3467 -0.0064
  259loPI    C3 4131  17.566   0.381  11.741 -0.0139 -0.1337 -0.0863
  259loPI   PO4 4132  17.431   0.210  11.214  0.1182  0.0175 -0.0205
  259loPI   GL1 4133  17.387   0.187  10.788 -0.0440  0.0663 -0.1472
  259loPI   GL2 4134  17.499  -0.138  10.805 -0.3165 -0.0717  0.2661
  259loPI   C1A 4135  17.531   0.334  10.359 -0.2803 -0.1586 -0.0676
  259loPI   C2A 4136  17.646   0.191   9.950 -0.1450 -0.0583 -0.1972
  259loPI   C3A 4137  17.825   0.065   9.598 -0.0426 -0.0528  0.0855
  259loPI   C4A 4138  17.757   0.009   9.126 -0.0496 -0.1009 -0.2696
  259loPI   C5A 4139  17.936  -0.254   8.937 -0.2238 -0.1189  0.0760
  259loPI   C6A 4140  17.987  -0.629   8.963 -0.0633  0.0557  0.2735
  259loPI   C1B 4141  17.713  -0.131  10.391 -0.0196  0.2993 -0.0250
  259loPI   C2B 4142  17.892  -0.245  10.127 -0.2919  0.2440  0.1746
  259loPI   C3B 4143  17.929  -0.400   9.743 -0.1323 -0.2903 -0.1387
  259loPI   C4B 4144  18.034  -0.352   9.410 -0.0280 -0.0192  0.0141
  260loPI    C1 4145   0.647  12.874  10.937  0.0263  0.1849  0.0698
  260loPI    C2 4146   0.312  12.784  11.135 -0.0748  0.1309 -0.1235
  260loPI    C3 4147   0.409  13.166  11.070  0.0754  0.1553  0.2246
  260loPI   PO4 4148   0.730  12.655  10.922  0.1096  0.0234  0.0723
  260loPI   GL1 4149   0.814  12.509  10.463 -0.0789 -0.0947  0.1440
  260loPI   GL2 4150   0.818  12.913  10.433  0.1842  0.3975  0.0681
  260loPI   C1A 4151   0.898  12.640   9.954 -0.1464  0.0327 -0.4046
  260loPI   C2A 4152   0.859  12.729   9.430 -0.1084  0.1893  0.2058
  260loPI   C3A 4153   0.858  12.957   9.043 -0.0906 -0.0494  0.1148
  260loPI   C4A 4154   0.879  13.021   8.526  0.1712  0.2030 -0.1974
  260loPI   C5A 4155   0.982  13.149   8.185  0.0219  0.0014 -0.1811
  260loPI   C6A 4156   0.989  13.336   7.917 -0.2810 -0.2021  0.1060
  260loPI   C1B 4157   0.870  13.162   9.972 -0.1519  0.1105  0.1867
  260loPI   C2B 4158   0.888  13.350   9.491  0.1001  0.0623 -0.0305
  260loPI   C3B 4159   1.046  13.410   9.103 -0.1870 -0.0162 -0.2203
  260loPI   C4B 4160   1.083  13.475   8.687 -0.1659  0.1711 -0.1137
  261loPI    C1 4161  17.800   1.542  11.055 -0.1021  0.1590 -0.0938
  261loPI    C2 4162  18.109   1.408  11.271 -0.1117  0.1629 -0.0777
  261loPI    C3 4163  17.758   1.216  11.284 -0.0678  0.0719 -0.2109
  261loPI   PO4 4164  17.818   1.543  10.791 -0.3266 -0.0725  0.2644
  261loPI   GL1 4165  17.671   1.666  10.454 -0.0238  0.1169 -0.1754
  261loPI   GL2 4166  17.373   1.663  10.233  0.2339 -0.1621  0.3626
  261loPI   C1A 4167  17.935   1.761  10.152  0.3834 -0.0979  0.1553
  261loPI   C2A 4168  17.931   1.770   9.744 -0.3849 -0.0495  0.4956
  261loPI   C3A 4169  17.887   1.500   9.406  0.2055 -0.0627  0.4744
  261loPI   C4A 4170  17.788   1.415   8.998  0.3124 -0.0656  0.1202
  261loPI   C5A 4171  17.514   1.471   8.658  0.1345  0.0867 -0.3268
  261loPI   C6A 4172  17.175   1.204   8.382  0.0014  0.1723  0.0185
  261loPI   C1B 4173  17.556   1.334   9.995  0.0230 -0.0822  0.1080
  261loPI   C2B 4174  17.633   1.101   9.690 -0.3251 -0.1471  0.1611
  261loPI   C3B 4175  17.756   1.032   9.283  0.0991  0.1559 -0.0010
  261loPI   C4B 4176  17.784   0.920   8.885 -0.0799  0.1581 -0.2463
  262loPI    C1 4177  15.058  15.816  10.777 -0.0496  0.0310  0.2736
  262loPI    C2 4178  15.177  15.442  10.857 -0.0213 -0.0259 -0.0229
  262loPI    C3 4179  15.195  15.723  11.141 -0.0881 -0.2597  0.2166
  262loPI   PO4 4180  14.998  15.765  10.452  0.2600 -0.0272 -0.2040
  262loPI   GL1 4181  14.861  16.067  10.167  0.0185  0.2230  0.2400
  262loPI   GL2 4182  15.207  16.220  10.185 -0.0481 -0.0761  0.1072
  262loPI   C1A 4183  14.710  16.164   9.800  0.1655 -0.2018 -0.0330
  262loPI   C2A 4184  14.918  16.288   9.457  0.1033 -0.0556 -0.1184
  262loPI   C3A 4185  14.931  16.368   9.010 -0.1972 -0.0873  0.1475
  262loPI   C4A 4186  14.990  16.364   8.571  0.3094  0.0785  0.3791
  262loPI   C5A 4187  15.128  16.024   8.345  0.1082 -0.0567  0.0950
  262loPI   C6A 4188  15.030  15.994   7.915 -0.0376 -0.0737  0.2056
  262loPI   C1B 4189  15.272  16.272   9.790  0.0698 -0.3208 -0.0869
  262loPI   C2B 4190  15.385  16.444   9.385  0.0206  0.0226  0.0308
  262loPI   C3B 4191  15.482  16.551   8.963 -0.2784  0.1201 -0.3044
  262loPI   C4B 4192  15.794  16.476   8.732 -0.0762  0.0805  0.0075
  263loPI    C1 4193   5.610  12.532  10.672 -0.1081 -0.0413  0.0293
  263loPI    C2 4194   5.514  12.743  10.998 -0.2814 -0.1642  0.0591
  263loPI    C3 4195   5.898  12.667  10.914 -0.2223  0.0895  0.0931
  263loPI   PO4 4196   5.437  12.667  10.421 -0.0588 -0.1664 -0.2077
  263loPI   GL1 4197   5.074  12.919  10.176  0.1254 -0.0620 -0.2688
  263loPI   GL2 4198   4.797  13.128  10.266 -0.0336 -0.0223  0.3157
  263loPI   C1A 4199   5.230  12.952   9.810  0.1695  0.2729 -0.2576
  263loPI   C2A 4200   5.187  12.985   9.348 -0.1175  0.0048 -0.4450
  263loPI   C3A 4201   5.238  13.109   8.857  0.0036 -0.2515  0.1112
  263loPI   C4A 4202   5.009  13.264   8.587 -0.1228  0.0464 -0.1630
  263loPI   C5A 4203   5.003  13.570   8.316  0.1911  0.0160 -0.0868
  263loPI   C6A 4204   4.760  13.750   7.992 -0.1004 -0.1168  0.0999
  263loPI   C1B 4205   4.761  13.189   9.910 -0.1217  0.1094  0.3274
  263loPI   C2B 4206   4.761  13.296   9.566  0.0396  0.2995 -0.0193
  263loPI   C3B 4207   4.764  13.363   9.129 -0.0225 -0.0973  0.1278
  263loPI   C4B 4208   4.544  13.473   8.756 -0.0877  0.2017  0.0840
  264loPI    C1 4209   8.857   2.853  10.170  0.2048 -0.2165 -0.1695
  264loPI    C2 4210   8.492   2.693  10.135  0.1996 -0.2297 -0.0583
  264loPI    C3 4211   8.540   3.041  10.325  0.2200 -0.1319 -0.2401
  264loPI   PO4 4212   9.009   2.858   9.956 -0.2446 -0.0467  0.1423
  264loPI   GL1 4213   8.832   2.630   9.692  0.0115 -0.1025  0.0115
  264loPI   GL2 4214   9.106   2.503   9.484 -0.1127 -0.0736 -0.1464
  264loPI   C1A 4215   8.679   2.586   9.295  0.1968  0.2658 -0.1781
  264loPI   C2A 4216   8.585   2.502   8.828 -0.2854  0.0005  0.5612
  264loPI   C3A 4217   8.784   2.598   8.337 -0.0290 -0.3479  0.4515
  264loPI   C4A 4218   8.985   2.735   7.938 -0.0802  0.2815 -0.1666
  264loPI   C5A 4219   9.171   2.875   7.588 -0.0286  0.1090  0.0303
  264loPI   C6A 4220   9.145   3.258   7.571  0.0514 -0.1435  0.1180
  264loPI   C1B 4221   9.095   2.517   8.968  0.2210 -0.0793 -0.0258
  264loPI   C2B 4222   9.216   2.468   8.608  0.0281 -0.3423 -0.1816
  264loPI   C3B 4223   9.315   2.703   8.293 -0.0753  0.1531 -0.2182
  264loPI   C4B 4224   9.618   2.453   7.932  0.3352 -0.4159 -0.0310
  265loPI    C1 4225   7.816  15.296  10.908  0.0936  0.0759  0.0026
  265loPI    C2 4226   7.954  14.941  11.030 -0.1962 -0.0786 -0.1096
  265loPI    C3 4227   7.697  15.145  11.259 -0.0105  0.0738 -0.0335
  265loPI   PO4 4228   7.817  15.256  10.638  0.1249  0.2674  0.0581
  265loPI   GL1 4229   7.625  14.967  10.362  0.3454 -0.4093  0.1333
  265loPI   GL2 4230   7.411  14.784  10.352  0.1996  0.2039 -0.1539
  265loPI   C1A 4231   7.797  15.136   9.971 -0.3104  0.0846  0.1026
  265loPI   C2A 4232   7.864  15.124   9.477  0.1166  0.0133  0.2143
  265loPI   C3A 4233   7.812  15.191   9.024 -0.1335 -0.1920 -0.2470
  265loPI   C4A 4234   7.824  15.280   8.630  0.2094  0.0983 -0.1933
  265loPI   C5A 4235   7.627  15.365   8.206 -0.1661 -0.0631 -0.0767
  265loPI   C6A 4236   7.460  15.453   7.841 -0.0387 -0.0391  0.0188
  265loPI   C1B 4237   7.422  14.791   9.921  0.1623 -0.0849 -0.2393
  265loPI   C2B 4238   7.458  14.852   9.556 -0.2649 -0.0694 -0.5634
  265loPI   C3B 4239   7.380  14.900   9.175 -0.0655  0.1166  0.0473
  265loPI   C4B 4240   7.406  14.961   8.698  0.1032  0.1975 -0.1760
  266loPI    C1 4241   2.748  12.270  10.649 -0.1199 -0.0664 -0.2090
  266loPI    C2 4242   2.653  12.656  10.697  0.0241 -0.0460 -0.0791
  266loPI    C3 4243   2.568  12.392  10.985 -0.0017 -0.0974 -0.1337
  266loPI   PO4 4244   2.718  12.185  10.463  0.3397 -0.1395 -0.2169
  266loPI   GL1 4245   2.547  12.310  10.066  0.3654  0.1356  0.3526
  266loPI   GL2 4246   2.828  12.174   9.969 -0.0546  0.2405 -0.0057
  266loPI   C1A 4247   2.458  12.526   9.699 -0.2584  0.0903  0.0199
  266loPI   C2A 4248   2.361  12.634   9.346  0.2940 -0.0763  0.1533
  266loPI   C3A 4249   2.319  12.596   8.958  0.1884 -0.2146  0.0836
  266loPI   C4A 4250   2.131  12.466   8.660  0.1485  0.0451  0.4451
  266loPI   C5A 4251   2.235  12.489   8.280  0.1096  0.1195 -0.0731
  266loPI   C6A 4252   2.026  12.657   7.985 -0.1141 -0.0239 -0.0098
  266loPI   C1B 4253   2.901  12.345   9.558  0.0909  0.0465 -0.1288
  266loPI   C2B 4254   2.762  12.435   9.163  0.1206 -0.0833  0.0287
  266loPI   C3B 4255   2.740  12.414   8.687 -0.1614 -0.1862  0.0274
  266loPI   C4B 4256   2.689  12.330   8.248  0.0850  0.1321 -0.0856
  267loPI    C1 4257  12.537   0.041  10.340 -0.0143 -0.0787  0.0872
  267loPI    C2 4258  12.293   0.042  10.657 -0.1525 -0.0368 -0.0182
  267loPI    C3 4259  12.690   0.028  10.710 -0.1786 -0.1700  0.1528
  267loPI   PO4 4260  12.451  -0.082  10.133 -0.2952  0.0027 -0.0656
  267loPI   GL1 4261  12.287  -0.197   9.721  0.0480  0.0915  0.1593
  267loPI   GL2 4262  11.976  -0.454   9.671  0.1373 -0.2927  0.0956
  267loPI   C1A 4263  12.523   0.012   9.368 -0.0106  0.2227  0.1993
  267loPI   C2A 4264  12.635  -0.053   9.051  0.3497 -0.0750 -0.0046
  267loPI   C3A 4265  12.550   0.065   8.643  0.1160  0.1326 -0.1759
  267loPI   C4A 4266  12.343   0.336   8.390  0.0279 -0.1496 -0.1840
  267loPI   C5A 4267  12.148   0.710   8.418 -0.1239  0.0234  0.1642
  267loPI   C6A 4268  11.705   0.916   8.169 -0.0954 -0.2149  0.4103
  267loPI   C1B 4269  12.095  -0.321   9.222 -0.1384  0.2618  0.0042
  267loPI   C2B 4270  12.124  -0.161   8.791  0.2716 -0.1135  0.1042
  267loPI   C3B 4271  12.278  -0.261   8.347 -0.0625 -0.1100  0.1228
  267loPI   C4B 4272  12.068  -0.154   7.943 -0.1219 -0.0269  0.3131
  268loPI    C1 4273   7.743  15.827  10.763  0.1781  0.0266  0.0165
  268loPI    C2 4274   7.646  16.211  10.707  0.1714  0.0290  0.0441
  268loPI    C3 4275   8.008  16.114  10.846  0.1776  0.0246  0.0249
  268loPI   PO4 4276   7.547  15.710  10.651 -0.0751  0.1395 -0.0215
  268loPI   GL1 4277   7.485  15.519  10.246  0.1620  0.0303  0.3341
  268loPI   GL2 4278   7.853  15.551  10.211 -0.1245 -0.1881 -0.3982
  268loPI   C1A 4279   7.418  15.341   9.766  0.0287 -0.2430  0.0329
  268loPI   C2A 4280   7.425  15.364   9.358 -0.0574 -0.1849 -0.1426
  268loPI   C3A 4281   7.333  15.543   9.027 -0.2410  0.3396  0.1695
  268loPI   C4A 4282   7.426  15.642   8.615  0.3349  0.0322  0.1304
  268loPI   C5A 4283   7.105  15.330   8.211  0.0089  0.0753  0.1172
  268loPI   C6A 4284   6.975  15.009   7.910 -0.1999  0.2712 -0.0752
  268loPI   C1B 4285   7.838  15.598   9.794 -0.3036  0.1242  0.1170
  268loPI   C2B 4286   7.810  15.677   9.319 -0.1964 -0.0279  0.1824
  268loPI   C3B 4287   7.810  15.810   8.857  0.0528 -0.1851  0.0253
  268loPI   C4B 4288   7.878  15.760   8.477 -0.0496 -0.1016  0.0317
  269loPI    C1 4289   1.683  12.301  10.809  0.0472 -0.1355 -0.0350
  269loPI    C2 4290   1.986  12.427  11.038 -0.0615 -0.1078  0.0946
  269loPI    C3 4291   1.826  12.065  11.097  0.0544 -0.1893 -0.0824
  269loPI   PO4 4292   1.792  12.438  10.566 -0.0616  0.0489 -0.1639
  269loPI   GL1 4293   1.765  12.546  10.205  0.1143 -0.0317 -0.2519
  269loPI   GL2 4294   1.987  12.723  10.079  0.0405  0.3053  0.0936
  269loPI   C1A 4295   1.597  12.330   9.931  0.1010  0.2433 -0.1024
  269loPI   C2A 4296   1.478  12.451   9.510  0.0518  0.2967 -0.0482
  269loPI   C3A 4297   1.257  12.646   9.116 -0.0985  0.2079  0.1560
  269loPI   C4A 4298   1.210  12.759   8.728 -0.1393  0.4998 -0.1723
  269loPI   C5A 4299   1.392  13.006   8.451 -0.0403  0.2911 -0.0103
  269loPI   C6A 4300   1.545  12.903   8.134  0.1260 -0.3327  0.2728
  269loPI   C1B 4301   1.998  12.766   9.675 -0.1062 -0.1139  0.0220
  269loPI   C2B 4302   1.946  12.925   9.221  0.0158  0.3066 -0.1953
  269loPI   C3B 4303   1.958  12.970   8.864  0.0210  0.2069 -0.0148
  269loPI   C4B 4304   1.983  12.930   8.438 -0.0008 -0.1668 -0.0375
  270loPI    C1 4305   4.890  14.535  11.265 -0.0252  0.0799  0.0476
  270loPI    C2 4306   5.086  14.883  11.271  0.2168 -0.0509 -0.1044
  270loPI    C3 4307   5.259  14.554  11.418  0.0553 -0.1405 -0.1133
  270loPI   PO4 4308   4.821  14.509  10.929  0.1630  0.1508 -0.0430
  270loPI   GL1 4309   4.619  14.699  10.569  0.0703  0.0273  0.0690
  270loPI   GL2 4310   4.901  14.872  10.598 -0.0101 -0.0700 -0.4320
  270loPI   C1A 4311   4.606  14.872  10.139  0.1958  0.1143 -0.0797
  270loPI   C2A 4312   4.592  14.892   9.726  0.0240  0.1003  0.0889
  270loPI   C3A 4313   4.641  14.887   9.352  0.0094 -0.0105 -0.1793
  270loPI   C4A 4314   4.762  14.978   8.888 -0.2493 -0.0027  0.1291
  270loPI   C5A 4315   5.115  15.088   8.648 -0.1886  0.0138 -0.0306
  270loPI   C6A 4316   5.347  14.886   8.437  0.2426 -0.0561  0.0653
  270loPI   C1B 4317   5.087  15.127  10.319  0.1559 -0.2794 -0.0178
  270loPI   C2B 4318   5.069  15.165   9.958 -0.0934 -0.0713  0.0555
  270loPI   C3B 4319   5.102  15.177   9.466  0.4001 -0.2203 -0.2511
  270loPI   C4B 4320   5.088  15.347   9.099 -0.0573 -0.0195 -0.1634
  271loPI    C1 4321  11.928   9.497  10.911 -0.0666 -0.0839  0.1439
  271loPI    C2 4322  11.681   9.516  11.225  0.0632  0.1807  0.2325
  271loPI    C3 4323  12.005   9.750  11.211 -0.0137  0.2709 -0.1621
  271loPI   PO4 4324  11.807   9.511  10.674 -0.3885 -0.0053 -0.0243
  271loPI   GL1 4325  11.980   9.300  10.360  0.1281  0.2777  0.0796
  271loPI   GL2 4326  12.106   9.452  10.177  0.0819  0.1539  0.1357
  271loPI   C1A 4327  11.740   9.206   9.926 -0.0323 -0.1026 -0.2418
  271loPI   C2A 4328  11.726   9.266   9.476  0.3523  0.2585  0.0645
  271loPI   C3A 4329  11.548   9.413   8.980  0.1665  0.1002  0.1040
  271loPI   C4A 4330  11.460   9.195   8.558  0.1810  0.3391 -0.1837
  271loPI   C5A 4331  11.081   9.254   8.380  0.2364 -0.0704  0.1302
  271loPI   C6A 4332  10.648   9.411   8.462 -0.0283 -0.0159  0.0824
  271loPI   C1B 4333  12.107   9.525   9.751  0.0010 -0.0828  0.1042
  271loPI   C2B 4334  12.210   9.815   9.447 -0.3454  0.3069  0.1575
  271loPI   C3B 4335  12.268   9.918   9.017  0.1663  0.0770  0.4857
  271loPI   C4B 4336  12.049   9.834   8.611  0.1632  0.1798  0.1905
  272loPI    C1 4337  14.078   5.994  10.553 -0.2485  0.1573 -0.1507
  272loPI    C2 4338  14.386   6.036  10.302 -0.0865  0.1544  0.0451
  272loPI    C3 4339  14.227   6.358  10.479 -0.1763  0.1524 -0.0309
  272loPI   PO4 4340  13.927   5.761  10.402  0.2787 -0.1908  0.1000
  272loPI   GL1 4341  14.263   5.662  10.003  0.3342  0.1439 -0.2255
  272loPI   GL2 4342  14.249   5.380   9.863  0.2432  0.0757  0.4131
  272loPI   C1A 4343  13.988   5.801   9.723 -0.4188 -0.1830 -0.2356
  272loPI   C2A 4344  13.935   6.016   9.450  0.0925 -0.2026  0.5195
  272loPI   C3A 4345  14.019   6.029   9.099  0.0109 -0.4309 -0.3119
  272loPI   C4A 4346  14.061   5.960   8.724 -0.0519  0.0456 -0.0332
  272loPI   C5A 4347  13.936   5.844   8.311 -0.0551  0.1864 -0.2228
  272loPI   C6A 4348  13.754   6.040   7.848 -0.0344  0.1747 -0.1296
  272loPI   C1B 4349  14.344   5.540   9.519 -0.1359 -0.0676  0.0446
  272loPI   C2B 4350  14.349   5.646   9.158  0.2881  0.1458 -0.1636
  272loPI   C3B 4351  14.533   5.697   8.760  0.1228 -0.2069  0.0974
  272loPI   C4B 4352  14.510   5.836   8.396 -0.3196  0.3948 -0.0962
  273loPI    C1 4353  13.321   3.335  10.819  0.0547 -0.0098 -0.0093
  273loPI    C2 4354  13.262   2.993  11.019  0.0625 -0.0126 -0.0118
  273loPI    C3 4355  13.094   3.333  11.149 -0.0070 -0.0314 -0.0517
  273loPI   PO4 4356  13.200   3.380  10.583  0.2773  0.0196 -0.2729
  273loPI   GL1 4357  13.435   3.356  10.209 -0.0249  0.1103  0.2186
  273loPI   GL2 4358  13.158   3.385  10.108  0.2222 -0.2634 -0.1397
  273loPI   C1A 4359  13.710   3.474   9.903 -0.0388 -0.0446 -0.0529
  273loPI   C2A 4360  13.990   3.632   9.552 -0.2715 -0.1507 -0.1833
  273loPI   C3A 4361  13.860   3.648   9.168  0.0761 -0.0892 -0.0642
  273loPI   C4A 4362  13.812   3.494   8.821 -0.1844 -0.1567 -0.0348
  273loPI   C5A 4363  13.739   3.414   8.388 -0.3672 -0.3600 -0.1950
  273loPI   C6A 4364  13.807   3.630   8.051 -0.1291  0.0593  0.1439
  273loPI   C1B 4365  13.273   3.526   9.746  0.2058 -0.0963 -0.0907
  273loPI   C2B 4366  13.084   3.591   9.452  0.0504  0.0785  0.0586
  273loPI   C3B 4367  13.088   3.738   9.046 -0.0905  0.0086 -0.0620
  273loPI   C4B 4368  13.085   3.878   8.651  0.4437 -0.0155 -0.0260
  274loPI    C1 4369   5.234   2.720  10.866 -0.0802  0.1760  0.0935
  274loPI    C2 4370   5.197   2.987  10.571 -0.1455 -0.0128 -0.0724
  274loPI    C3 4371   4.880   2.892  10.795 -0.1054  0.1005  0.0340
  274loPI   PO4 4372   5.379   2.570  10.766 -0.0778  0.1407 -0.3551
  274loPI   GL1 4373   5.440   2.566  10.323  0.0005 -0.1420  0.2393
  274loPI   GL2 4374   5.746   2.356  10.471 -0.1443 -0.0945  0.0422
  274loPI   C1A 4375   5.152   2.562   9.930  0.0336 -0.3231 -0.0537
  274loPI   C2A 4376   5.126   2.555   9.504 -0.2162 -0.0761 -0.0967
  274loPI   C3A 4377   5.067   2.592   9.076 -0.0913  0.1824 -0.0346
  274loPI   C4A 4378   5.125   2.602   8.619 -0.0168 -0.0939 -0.3038
  274loPI   C5A 4379   5.225   2.426   8.140  0.1612  0.1103 -0.2118
  274loPI   C6A 4380   5.672   2.250   8.024  0.1555  0.1509 -0.3307
  274loPI   C1B 4381   5.583   2.270   9.930 -0.0125  0.0673 -0.2123
  274loPI   C2B 4382   5.589   2.316   9.429  0.2112 -0.0742 -0.0500
  274loPI   C3B 4383   5.547   2.416   8.964 -0.0696  0.0147  0.1032
  274loPI   C4B 4384   5.534   2.273   8.543  0.0679  0.1336  0.0967
  275loPI    C1 4385   1.326   7.848  10.750 -0.0366 -0.1203 -0.0517
  275loPI    C2 4386   1.648   7.875  10.986  0.0408 -0.0928 -0.1597
  275loPI    C3 4387   1.472   8.207  10.849 -0.1374 -0.1037  0.0381
  275loPI   PO4 4388   1.375   7.698  10.532 -0.0369  0.2430  0.1023
  275loPI   GL1 4389   1.490   7.804  10.140  0.0192 -0.0901 -0.0706
  275loPI   GL2 4390   1.377   7.468  10.095  0.2136 -0.0364 -0.0102
  275loPI   C1A 4391   1.671   8.126   9.945  0.3797  0.2549 -0.0700
  275loPI   C2A 4392   1.818   8.216   9.572 -0.0639  0.0029  0.4379
  275loPI   C3A 4393   2.041   8.220   9.251 -0.1448  0.2445 -0.0868
  275loPI   C4A 4394   2.107   8.175   8.772  0.1765 -0.1130 -0.3884
  275loPI   C5A 4395   2.362   8.238   8.428 -0.1166 -0.0944 -0.1434
  275loPI   C6A 4396   2.741   8.223   8.046 -0.2698 -0.0918 -0.1722
  275loPI   C1B 4397   1.444   7.621   9.662 -0.3238 -0.1644 -0.1771
  275loPI   C2B 4398   1.470   7.742   9.261  0.1279  0.0081 -0.1221
  275loPI   C3B 4399   1.468   7.772   8.760  0.0086 -0.2296 -0.3674
  275loPI   C4B 4400   1.314   7.965   8.475  0.4451  0.0710  0.2159
  276loPI    C1 4401   6.297  13.393  10.484  0.0376 -0.0052  0.2225
  276loPI    C2 4402   6.141  13.089  10.692 -0.1593 -0.0041  0.0791
  276loPI    C3 4403   6.010  13.462  10.754 -0.3140 -0.0206 -0.1388
  276loPI   PO4 4404   6.358  13.293  10.279 -0.0398  0.0767  0.0407
  276loPI   GL1 4405   6.503  13.405   9.927  0.0769  0.0976 -0.2532
  276loPI   GL2 4406   6.716  13.126   9.965  0.0612 -0.0716 -0.3599
  276loPI   C1A 4407   6.338  13.566   9.553 -0.1637 -0.1927 -0.0071
  276loPI   C2A 4408   6.352  13.683   9.181  0.0012 -0.0200  0.3707
  276loPI   C3A 4409   6.427  13.962   8.864  0.1422  0.1993 -0.0511
  276loPI   C4A 4410   6.351  13.933   8.461  0.1796  0.0340 -0.4166
  276loPI   C5A 4411   6.211  13.881   8.039 -0.0875  0.2482  0.1266
  276loPI   C6A 4412   6.228  13.626   7.684  0.3778 -0.5168 -0.0479
  276loPI   C1B 4413   6.664  13.133   9.550 -0.2537 -0.0505 -0.0137
  276loPI   C2B 4414   6.593  13.227   9.153 -0.0459  0.1896  0.1854
  276loPI   C3B 4415   6.418  13.358   8.775 -0.0613  0.0301  0.0970
  276loPI   C4B 4416   6.310  13.229   8.332 -0.0295  0.2410 -0.0219
  277loPI    C1 4417  14.768   1.929  10.440 -0.0531 -0.1853  0.0711
  277loPI    C2 4418  14.449   2.084  10.254  0.1475  0.0335 -0.0964
  277loPI    C3 4419  14.728   2.326  10.409  0.1134 -0.1516  0.2649
  277loPI   PO4 4420  14.783   1.689  10.296  0.1188  0.1838  0.0784
  277loPI   GL1 4421  14.600   1.359   9.983 -0.0522 -0.0980  0.2604
  277loPI   GL2 4422  14.336   1.588  10.055 -0.1964  0.1815  0.3563
  277loPI   C1A 4423  14.566   1.496   9.637  0.0755 -0.3222 -0.0602
  277loPI   C2A 4424  14.412   1.433   9.200 -0.0427 -0.2660  0.2805
  277loPI   C3A 4425  14.355   1.332   8.833 -0.0149 -0.0734 -0.0039
  277loPI   C4A 4426  14.254   1.513   8.417 -0.0728  0.2499  0.0746
  277loPI   C5A 4427  13.828   1.454   8.199 -0.1351 -0.0299  0.1266
  277loPI   C6A 4428  13.793   1.337   7.781  0.2305  0.0896 -0.0978
  277loPI   C1B 4429  14.307   1.915   9.724  0.2831 -0.0273 -0.3925
  277loPI   C2B 4430  14.256   2.015   9.328 -0.0318  0.2898  0.0714
  277loPI   C3B 4431  14.243   1.924   8.849  0.2855  0.2495  0.0922
  277loPI   C4B 4432  13.891   1.883   8.586  0.2094  0.0725 -0.0734
  278loPI    C1 4433   1.129  14.112  10.953 -0.2355  0.2006  0.0203
  278loPI    C2 4434   0.995  14.455  10.797 -0.3419  0.3036  0.3310
  278loPI    C3 4435   0.811  14.294  11.113 -0.2046  0.0337  0.2765
  278loPI   PO4 4436   1.384  14.114  10.855  0.2357 -0.0339 -0.1262
  278loPI   GL1 4437   1.517  14.247  10.581 -0.0598  0.0866 -0.1512
  278loPI   GL2 4438   1.870  14.257  10.392 -0.1231  0.1816 -0.1388
  278loPI   C1A 4439   1.434  14.627  10.315 -0.0002  0.4828  0.1388
  278loPI   C2A 4440   1.441  14.620   9.770 -0.0159 -0.0202 -0.0713
  278loPI   C3A 4441   1.502  14.727   9.429 -0.0061  0.2485  0.1724
  278loPI   C4A 4442   1.569  14.763   9.007 -0.1319 -0.1528 -0.0269
  278loPI   C5A 4443   1.711  14.926   8.608  0.3634  0.0158 -0.3870
  278loPI   C6A 4444   1.467  15.180   8.348  0.1654 -0.0591 -0.4387
  278loPI   C1B 4445   1.957  14.274   9.971 -0.0980  0.1314  0.0227
  278loPI   C2B 4446   1.941  14.328   9.588  0.2248 -0.3035 -0.1546
  278loPI   C3B 4447   1.814  14.396   9.247 -0.0837  0.1732 -0.0657
  278loPI   C4B 4448   2.004  14.527   8.918 -0.4810  0.3021  0.1668
  279loPI    C1 4449  11.575  13.612  10.472 -0.0265 -0.0333  0.0068
  279loPI    C2 4450  11.939  13.641  10.308  0.0006  0.1012  0.0893
  279loPI    C3 4451  11.856  13.837  10.647 -0.1763  0.1435  0.0229
  279loPI   PO4 4452  11.446  13.718  10.212  0.1762 -0.0050  0.1952
  279loPI   GL1 4453  11.588  13.562   9.922  0.0035 -0.1537 -0.2242
  279loPI   GL2 4454  11.403  13.184   9.925 -0.1027  0.0281  0.0422
  279loPI   C1A 4455  11.648  13.450   9.409  0.0741 -0.1805  0.0168
  279loPI   C2A 4456  11.701  13.185   9.062  0.0676  0.1275 -0.1576
  279loPI   C3A 4457  11.719  12.976   8.630  0.2333 -0.1395  0.0222
  279loPI   C4A 4458  11.859  13.098   8.201  0.0102 -0.1324 -0.1423
  279loPI   C5A 4459  12.349  13.044   7.998 -0.0335 -0.1887  0.0541
  279loPI   C6A 4460  12.703  12.709   8.008 -0.1107  0.0004 -0.1262
  279loPI   C1B 4461  11.294  13.158   9.509 -0.2550 -0.0571 -0.3546
  279loPI   C2B 4462  11.222  13.030   9.091 -0.0004 -0.0790 -0.2463
  279loPI   C3B 4463  11.156  13.078   8.651  0.0552  0.2189  0.1528
  279loPI   C4B 4464  10.900  13.028   8.217 -0.1022  0.1168 -0.0624
  280loPI    C1 4465  16.164   3.017  10.496  0.0755  0.1352 -0.2378
  280loPI    C2 4466  16.473   3.027  10.242  0.1487  0.1481 -0.1486
  280loPI    C3 4467  16.510   3.180  10.610  0.1000 -0.0312 -0.0680
  280loPI   PO4 4468  16.047   2.764  10.435  0.0616 -0.2371 -0.0424
  280loPI   GL1 4469  15.958   2.797   9.949  0.0754  0.1149 -0.2147
  280loPI   GL2 4470  16.191   2.523  10.006 -0.0700  0.1361 -0.1701
  280loPI   C1A 4471  16.136   2.617   9.533  0.1490  0.0620  0.1428
  280loPI   C2A 4472  16.001   2.570   9.088 -0.1217  0.4967  0.2641
  280loPI   C3A 4473  15.971   2.498   8.599  0.0062 -0.0343  0.2405
  280loPI   C4A 4474  16.054   2.372   8.145 -0.1440 -0.2319 -0.0862
  280loPI   C5A 4475  15.825   2.229   7.885 -0.0892  0.3038  0.1872
  280loPI   C6A 4476  15.719   1.871   7.645  0.1613  0.5458 -0.1355
  280loPI   C1B 4477  15.861   2.215   9.764  0.2037 -0.0768 -0.1474
  280loPI   C2B 4478  15.711   2.131   9.350  0.2541  0.0020 -0.0704
  280loPI   C3B 4479  15.737   2.125   8.902 -0.2684 -0.2124  0.1341
  280loPI   C4B 4480  15.602   2.138   8.468 -0.2985  0.2416 -0.2542
  281loPI    C1 4481   3.827  14.159  10.944 -0.2419 -0.1717  0.2380
  281loPI    C2 4482   3.811  13.860  11.209 -0.2072 -0.1639  0.2490
  281loPI    C3 4483   4.077  14.155  11.256 -0.1616 -0.1927  0.1738
  281loPI   PO4 4484   3.470  14.123  10.876 -0.2141  0.0033  0.0834
  281loPI   GL1 4485   3.249  14.285  10.553 -0.2093  0.2849  0.2497
  281loPI   GL2 4486   3.114  13.971  10.505  0.0074  0.0076  0.2021
  281loPI   C1A 4487   3.234  14.575  10.330  0.3280  0.0111  0.1054
  281loPI   C2A 4488   3.245  14.637   9.822  0.1844  0.0762  0.0329
  281loPI   C3A 4489   3.259  14.630   9.450 -0.0342 -0.1166  0.0340
  281loPI   C4A 4490   3.304  14.639   9.059 -0.1264 -0.1305  0.2355
  281loPI   C5A 4491   3.576  14.789   8.774 -0.0515 -0.2477 -0.0788
  281loPI   C6A 4492   3.915  14.968   8.698 -0.2095  0.2761  0.1107
  281loPI   C1B 4493   3.228  14.032  10.143 -0.0982  0.1838 -0.3141
  281loPI   C2B 4494   3.189  14.140   9.691  0.1388  0.0123 -0.0059
  281loPI   C3B 4495   3.284  14.158   9.196  0.0979  0.0697  0.4068
  281loPI   C4B 4496   3.295  14.183   8.798 -0.0858 -0.0926  0.2229
  282loPI    C1 4497  14.935   5.090  10.302 -0.0925 -0.1572  0.0106
  282loPI    C2 4498  14.792   5.031  10.671  0.3281 -0.0570  0.1959
  282loPI    C3 4499  15.065   5.316  10.606  0.3141 -0.1250 -0.1805
  282loPI   PO4 4500  14.931   4.833  10.213 -0.1627  0.0047 -0.0168
  282loPI   GL1 4501  15.079   4.812   9.855 -0.1269 -0.1975  0.2613
  282loPI   GL2 4502  15.463   4.763   9.783  0.2644  0.0657 -0.0837
  282loPI   C1A 4503  15.088   4.943   9.542 -0.0055  0.0954 -0.3928
  282loPI   C2A 4504  15.157   5.029   9.194  0.1545  0.1275  0.0042
  282loPI   C3A 4505  15.108   4.989   8.776 -0.1732  0.3200  0.1255
  282loPI   C4A 4506  15.361   4.801   8.407  0.2409  0.4610 -0.1561
  282loPI   C5A 4507  15.396   4.876   7.944 -0.0833  0.0372 -0.1371
  282loPI   C6A 4508  15.289   5.232   7.755  0.0059  0.2179 -0.0380
  282loPI   C1B 4509  15.621   4.806   9.421 -0.2321 -0.0362 -0.1903
  282loPI   C2B 4510  15.606   4.803   8.992 -0.1204 -0.0972 -0.1336
  282loPI   C3B 4511  15.871   4.759   8.646  0.3526  0.0155  0.0763
  282loPI   C4B 4512  15.818   4.762   8.190 -0.2039  0.1055 -0.1223
  283loPI    C1 4513   7.037  11.689  11.013  0.2463 -0.0069 -0.0389
  283loPI    C2 4514   7.084  11.996  11.264  0.0406 -0.1932  0.2346
  283loPI    C3 4515   6.882  11.672  11.381  0.0092 -0.3169 -0.1484
  283loPI   PO4 4516   7.218  11.628  10.891  0.2262 -0.2837 -0.1039
  283loPI   GL1 4517   7.110  11.446  10.508 -0.5215 -0.1370  0.1249
  283loPI   GL2 4518   6.963  11.199  10.388 -0.0696 -0.1644  0.1001
  283loPI   C1A 4519   7.429  11.538  10.161  0.2235 -0.3569  0.0187
  283loPI   C2A 4520   7.466  11.530   9.744 -0.2600 -0.1804  0.0412
  283loPI   C3A 4521   7.368  11.548   9.286  0.0134 -0.1209 -0.0142
  283loPI   C4A 4522   7.445  11.627   8.826  0.3498  0.0058 -0.0889
  283loPI   C5A 4523   7.343  11.531   8.406 -0.0340  0.1211  0.3791
  283loPI   C6A 4524   7.101  11.219   8.243  0.3626 -0.1066  0.3749
  283loPI   C1B 4525   6.953  11.256   9.988  0.1368 -0.1734 -0.0825
  283loPI   C2B 4526   7.031  11.294   9.524 -0.2968  0.0604 -0.0031
  283loPI   C3B 4527   6.961  11.417   9.038 -0.3033  0.0554  0.2792
  283loPI   C4B 4528   6.841  11.462   8.643 -0.1864  0.2918 -0.0799
  284loPI    C1 4529   3.521  14.543  11.171  0.0585 -0.0609  0.2265
  284loPI    C2 4530   3.754  14.442  11.480  0.0853 -0.1940  0.1633
  284loPI    C3 4531   3.428  14.226  11.396  0.0517 -0.1294  0.1276
  284loPI   PO4 4532   3.419  14.925  10.986 -0.2606 -0.0027  0.1255
  284loPI   GL1 4533   3.227  14.982  10.595  0.1777 -0.1116 -0.2458
  284loPI   GL2 4534   2.924  15.053  10.874 -0.0897  0.1114  0.1505
  284loPI   C1A 4535   3.374  15.063  10.206  0.2634 -0.2798 -0.0278
  284loPI   C2A 4536   3.310  15.158   9.772 -0.2882  0.1195 -0.1047
  284loPI   C3A 4537   3.352  15.194   9.418  0.2890  0.0740 -0.1993
  284loPI   C4A 4538   3.308  15.168   9.003  0.1124 -0.1371 -0.4116
  284loPI   C5A 4539   3.076  14.939   8.746 -0.0069  0.1015 -0.1603
  284loPI   C6A 4540   3.098  14.639   8.516 -0.0477 -0.0024 -0.0482
  284loPI   C1B 4541   2.767  14.840  10.459  0.1083 -0.0054  0.3050
  284loPI   C2B 4542   2.739  14.846   9.955  0.0521  0.1681  0.0090
  284loPI   C3B 4543   2.781  14.887   9.533 -0.0758  0.1993 -0.0938
  284loPI   C4B 4544   2.876  14.985   9.179 -0.2909  0.1970 -0.0810
  285loPI    C1 4545  16.252   7.631  10.749  0.1973  0.3813  0.0124
  285loPI    C2 4546  16.063   7.685  11.098 -0.1953 -0.0293 -0.1271
  285loPI    C3 4547  16.425   7.515  11.089 -0.0503  0.2597  0.0994
  285loPI   PO4 4548  16.095   7.462  10.565 -0.0115 -0.0940 -0.1049
  285loPI   GL1 4549  16.362   7.310  10.214 -0.1252  0.0991 -0.0589
  285loPI   GL2 4550  16.129   7.091  10.235  0.1519  0.0832 -0.0794
  285loPI   C1A 4551  16.336   7.318   9.776  0.3344 -0.1684 -0.1840
  285loPI   C2A 4552  16.376   7.386   9.378  0.1826  0.2213  0.2209
  285loPI   C3A 4553  16.510   7.397   9.018  0.1788 -0.1304 -0.2245
  285loPI   C4A 4554  16.415   7.227   8.672  0.0588  0.0221 -0.0400
  285loPI   C5A 4555  16.416   7.180   8.245  0.1939 -0.5332  0.3428
  285loPI   C6A 4556  16.369   7.088   7.834  0.2426 -0.4636  0.3281
  285loPI   C1B 4557  15.916   7.090   9.789 -0.0266  0.3158 -0.1029
  285loPI   C2B 4558  15.928   7.036   9.378  0.1123 -0.1740 -0.0444
  285loPI   C3B 4559  15.892   7.178   8.907  0.1398 -0.2474 -0.1447
  285loPI   C4B 4560  15.961   7.085   8.514 -0.1717 -0.1218  0.4731
  286loPI    C1 4561   2.526  16.097  11.264  0.1176 -0.1678 -0.1019
  286loPI    C2 4562   2.739  16.189  11.590 -0.3526 -0.1005  0.1970
  286loPI    C3 4563   2.449  16.434  11.465 -0.1489 -0.1037 -0.3065
  286loPI   PO4 4564   2.720  15.953  11.135 -0.1785 -0.0638  0.1821
  286loPI   GL1 4565   2.860  15.987  10.692  0.3495 -0.0356  0.0883
  286loPI   GL2 4566   3.122  15.880  10.564  0.1470 -0.1544 -0.1096
  286loPI   C1A 4567   2.846  15.960  10.167 -0.0205  0.1725  0.1955
  286loPI   C2A 4568   2.818  15.908   9.708 -0.2499  0.1551 -0.2889
  286loPI   C3A 4569   2.937  15.983   9.343  0.3324  0.0230 -0.0010
  286loPI   C4A 4570   2.863  16.050   9.012 -0.0567 -0.0175 -0.0604
  286loPI   C5A 4571   2.702  15.750   8.710 -0.0172 -0.0772  0.2511
  286loPI   C6A 4572   2.399  15.488   8.892 -0.2221 -0.1366 -0.0549
  286loPI   C1B 4573   3.303  15.625  10.217  0.0686  0.1860  0.0358
  286loPI   C2B 4574   3.395  15.712   9.718  0.3534 -0.1204 -0.1309
  286loPI   C3B 4575   3.426  15.716   9.335  0.1854 -0.0207  0.0607
  286loPI   C4B 4576   3.275  15.718   8.816  0.0995 -0.0300 -0.2042
  287loPI    C1 4577   5.905   1.901  10.741  0.2990 -0.0160  0.0326
  287loPI    C2 4578   6.166   2.059  10.483  0.1200  0.1267 -0.0632
  287loPI    C3 4579   6.149   2.194  10.859  0.2774  0.0222 -0.0176
  287loPI   PO4 4580   5.730   1.849  10.454  0.2845  0.0675  0.0686
  287loPI   GL1 4581   5.896   1.916  10.053 -0.2566 -0.1873  0.2022
  287loPI   GL2 4582   5.886   1.511  10.053  0.1252  0.1213 -0.0693
  287loPI   C1A 4583   5.692   1.805   9.678 -0.3185 -0.1367 -0.0883
  287loPI   C2A 4584   5.543   1.823   9.161  0.1588 -0.1095 -0.0978
  287loPI   C3A 4585   5.649   1.828   8.739 -0.1078 -0.3709 -0.1843
  287loPI   C4A 4586   5.511   1.746   8.447 -0.2587 -0.0198 -0.0341
  287loPI   C5A 4587   5.357   1.838   8.043 -0.1087 -0.1027 -0.1127
  287loPI   C6A 4588   5.172   2.109   7.772 -0.0559  0.2944  0.0698
  287loPI   C1B 4589   5.636   1.295   9.722  0.1848  0.1162 -0.1800
  287loPI   C2B 4590   5.622   1.171   9.278 -0.0906 -0.1594  0.1519
  287loPI   C3B 4591   5.561   1.311   8.814  0.5062 -0.2600  0.0842
  287loPI   C4B 4592   5.616   1.222   8.400  0.0030  0.0528  0.2262
  288loPI    C1 4593   6.738   7.765  10.984  0.0155 -0.0378 -0.0797
  288loPI    C2 4594   7.098   7.610  10.902  0.0320  0.0064 -0.0909
  288loPI    C3 4595   6.993   7.682  11.281  0.0559  0.0437 -0.0913
  288loPI   PO4 4596   6.613   7.726  10.704 -0.0800 -0.0647  0.0895
  288loPI   GL1 4597   6.574   7.772  10.295  0.0119  0.1884  0.3442
  288loPI   GL2 4598   6.521   7.395  10.170 -0.1436  0.0440  0.1132
  288loPI   C1A 4599   6.603   8.085   9.956 -0.0467  0.1527 -0.0279
  288loPI   C2A 4600   6.529   8.043   9.473 -0.0932  0.0878 -0.0422
  288loPI   C3A 4601   6.619   8.000   9.006  0.1177  0.0208  0.0252
  288loPI   C4A 4602   6.734   7.915   8.607  0.4704 -0.2645 -0.0004
  288loPI   C5A 4603   6.723   7.642   8.204 -0.0374  0.0480 -0.1904
  288loPI   C6A 4604   6.940   7.362   8.065  0.0775  0.1009  0.3869
  288loPI   C1B 4605   6.500   7.564   9.744  0.0062 -0.1888 -0.1528
  288loPI   C2B 4606   6.580   7.561   9.232  0.5179  0.1183 -0.0115
  288loPI   C3B 4607   6.558   7.429   8.836  0.2931 -0.1574 -0.3018
  288loPI   C4B 4608   6.677   7.188   8.474 -0.1010  0.0930 -0.1059
  289loPI    C1 4609  14.443   4.595  10.684  0.0585 -0.1351  0.3043
  289loPI    C2 4610  14.592   4.741  11.025 -0.0534  0.4329  0.1205
  289loPI    C3 4611  14.288   4.927  10.844 -0.0173  0.1208 -0.2753
  289loPI   PO4 4612  14.525   4.613  10.470 -0.2846 -0.3045  0.0563
  289loPI   GL1 4613  14.371   4.448  10.089  0.1112  0.1125 -0.1360
  289loPI   GL2 4614  14.561   4.596   9.913  0.1612 -0.0378  0.2399
  289loPI   C1A 4615  14.100   4.424   9.807  0.1408  0.0179 -0.2017
  289loPI   C2A 4616  14.144   4.545   9.395  0.0396 -0.1463 -0.0900
  289loPI   C3A 4617  14.018   4.577   8.964 -0.1287 -0.2875  0.2744
  289loPI   C4A 4618  14.150   4.498   8.490  0.2517  0.1588  0.0031
  289loPI   C5A 4619  14.359   4.496   8.172 -0.0682  0.2028  0.1090
  289loPI   C6A 4620  14.512   4.564   7.882 -0.1543  0.2004  0.0945
  289loPI   C1B 4621  14.604   4.695   9.560 -0.2441 -0.1054 -0.1670
  289loPI   C2B 4622  14.681   4.762   9.158 -0.1803 -0.0600 -0.0560
  289loPI   C3B 4623  14.670   4.752   8.656  0.3950 -0.1043 -0.2430
  289loPI   C4B 4624  14.851   4.633   8.290 -0.1815  0.3099 -0.0589
  290loPI    C1 4625   8.391  15.264  10.989  0.0098 -0.1180 -0.4211
  290loPI    C2 4626   8.536  14.893  11.028  0.1380 -0.0641 -0.3792
  290loPI    C3 4627   8.729  15.201  11.195 -0.0893 -0.0053 -0.2206
  290loPI   PO4 4628   8.296  15.231  10.766 -0.1119 -0.0816 -0.0687
  290loPI   GL1 4629   8.301  15.275  10.324  0.0708  0.1687  0.2028
  290loPI   GL2 4630   8.147  15.085  10.310 -0.1616 -0.1736 -0.0363
  290loPI   C1A 4631   8.286  15.348   9.852 -0.0735  0.0845 -0.2130
  290loPI   C2A 4632   8.333  15.415   9.491  0.0107 -0.4060 -0.1229
  290loPI   C3A 4633   8.217  15.522   9.005 -0.2098 -0.2598  0.2183
  290loPI   C4A 4634   8.304  15.429   8.524 -0.0707 -0.1312 -0.0416
  290loPI   C5A 4635   8.146  15.452   8.169  0.0911  0.1360 -0.1660
  290loPI   C6A 4636   7.860  15.708   7.888 -0.1041  0.0942 -0.0374
  290loPI   C1B 4637   8.227  14.881   9.868  0.1050 -0.1241 -0.3258
  290loPI   C2B 4638   8.301  14.815   9.466 -0.0302  0.0526 -0.0145
  290loPI   C3B 4639   8.297  15.048   9.180 -0.0012 -0.0729 -0.3014
  290loPI   C4B 4640   8.297  15.083   8.835 -0.0599 -0.0197 -0.2209
  291loPI    C1 4641   1.575  15.719  11.606 -0.2019  0.0996 -0.0420
  291loPI    C2 4642   1.186  15.666  11.681 -0.1604  0.1132  0.1909
  291loPI    C3 4643   1.456  15.425  11.850 -0.0876 -0.1439 -0.2742
  291loPI   PO4 4644   1.744  15.677  11.367  0.0077  0.1912  0.0705
  291loPI   GL1 4645   1.695  15.898  11.076 -0.1985  0.0924 -0.0893
  291loPI   GL2 4646   1.682  16.275  10.916  0.0418 -0.1065 -0.2946
  291loPI   C1A 4647   1.480  15.769  10.604  0.4604 -0.1396 -0.1390
  291loPI   C2A 4648   1.436  15.607  10.203  0.1443 -0.2833  0.2583
  291loPI   C3A 4649   1.406  15.565   9.762 -0.0858 -0.3940 -0.1362
  291loPI   C4A 4650   1.473  15.759   9.320  0.0263 -0.1540 -0.0262
  291loPI   C5A 4651   1.366  15.784   8.876  0.1847 -0.0114 -0.0316
  291loPI   C6A 4652   1.513  15.683   8.572 -0.1066 -0.1628  0.3544
  291loPI   C1B 4653   1.446  16.323  10.542  0.0458 -0.1532 -0.1161
  291loPI   C2B 4654   1.412  16.116  10.195 -0.1526 -0.0146 -0.0834
  291loPI   C3B 4655   1.443  16.192   9.698  0.1721 -0.1133 -0.0700
  291loPI   C4B 4656   1.454  16.241   9.276  0.0233 -0.2111 -0.2866
  292loPI    C1 4657   2.505   6.144  10.813 -0.0498  0.0093 -0.1362
  292loPI    C2 4658   2.723   6.456  10.690  0.1443 -0.0976 -0.0670
  292loPI    C3 4659   2.746   6.334  11.070 -0.2572  0.0705  0.0157
  292loPI   PO4 4660   2.599   5.930  10.581 -0.0273 -0.1140 -0.2900
  292loPI   GL1 4661   2.471   5.744  10.064  0.0300 -0.1168 -0.0563
  292loPI   GL2 4662   2.713   5.496  10.057 -0.0409  0.0703 -0.0701
  292loPI   C1A 4663   2.441   5.605   9.607 -0.1587 -0.1662 -0.1585
  292loPI   C2A 4664   2.253   5.631   9.124  0.2257 -0.2912 -0.0245
  292loPI   C3A 4665   2.350   5.600   8.791 -0.0862 -0.3632  0.0303
  292loPI   C4A 4666   2.351   5.612   8.305 -0.0047 -0.1562 -0.0077
  292loPI   C5A 4667   2.497   5.391   7.815  0.2072 -0.2432 -0.1282
  292loPI   C6A 4668   2.523   5.001   7.838 -0.3812 -0.0643 -0.1163
  292loPI   C1B 4669   2.866   5.395   9.581 -0.1356 -0.4218  0.0597
  292loPI   C2B 4670   2.720   5.378   9.176 -0.1428 -0.1423  0.0341
  292loPI   C3B 4671   2.798   5.308   8.760  0.0290 -0.0321 -0.0883
  292loPI   C4B 4672   2.693   5.292   8.310 -0.0328 -0.0746 -0.2301
  293loPI    C1 4673  13.371   1.370  10.772  0.2750 -0.0428  0.1361
  293loPI    C2 4674  13.717   1.227  10.915  0.2305 -0.0425  0.2445
  293loPI    C3 4675  13.647   1.621  10.915  0.3580 -0.0176 -0.0659
  293loPI   PO4 4676  13.333   1.290  10.579 -0.1202  0.1686 -0.0492
  293loPI   GL1 4677  13.204   1.427  10.154 -0.0050  0.1677 -0.0184
  293loPI   GL2 4678  13.486   1.221  10.093 -0.0391  0.0010  0.2984
  293loPI   C1A 4679  13.289   1.595   9.749  0.0765  0.1001  0.1088
  293loPI   C2A 4680  13.522   1.614   9.306 -0.4516  0.0119 -0.2822
  293loPI   C3A 4681  13.426   1.411   8.887  0.1830 -0.2166  0.1088
  293loPI   C4A 4682  13.181   1.224   8.626 -0.2599  0.1420  0.3256
  293loPI   C5A 4683  13.116   0.821   8.457 -0.1326 -0.1960 -0.2785
  293loPI   C6A 4684  13.440   0.525   8.605 -0.3381 -0.3651 -0.0650
  293loPI   C1B 4685  13.689   1.157   9.616 -0.0262 -0.0680  0.0230
  293loPI   C2B 4686  13.669   0.902   9.241  0.1176  0.1884  0.0219
  293loPI   C3B 4687  13.688   0.965   8.775  0.2115  0.1601 -0.0481
  293loPI   C4B 4688  13.989   1.063   8.436 -0.1572  0.2252  0.0947
  294loPI    C1 4689  16.384   4.138  10.425  0.2488 -0.0689  0.0428
  294loPI    C2 4690  16.653   4.419  10.331  0.0114  0.1495  0.0039
  294loPI    C3 4691  16.272   4.521  10.400 -0.0487 -0.1470  0.1285
  294loPI   PO4 4692  16.379   3.964  10.221 -0.1161 -0.1537 -0.1666
  294loPI   GL1 4693  16.264   3.719   9.875 -0.0918 -0.0239  0.1492
  294loPI   GL2 4694  16.044   3.911   9.780 -0.0631 -0.1399  0.0969
  294loPI   C1A 4695  16.341   3.560   9.499 -0.0475 -0.1092  0.3075
  294loPI   C2A 4696  16.082   3.458   9.229 -0.2615  0.1095  0.0175
  294loPI   C3A 4697  16.169   3.399   8.886 -0.1750 -0.0938  0.1178
  294loPI   C4A 4698  16.178   3.432   8.430  0.3055 -0.3895 -0.0329
  294loPI   C5A 4699  16.389   3.380   7.972  0.1828 -0.0458 -0.1404
  294loPI   C6A 4700  16.300   2.920   7.964 -0.1495  0.0030  0.2036
  294loPI   C1B 4701  16.087   3.970   9.454  0.1598  0.2273  0.0073
  294loPI   C2B 4702  16.041   3.934   9.000  0.2864 -0.3961  0.0385
  294loPI   C3B 4703  15.819   3.930   8.615 -0.0433  0.1394 -0.1040
  294loPI   C4B 4704  15.707   3.938   8.197  0.2135 -0.1271 -0.2159
  295loPI    C1 4705  15.305   2.867  10.574  0.0991  0.1574  0.1910
  295loPI    C2 4706  15.627   3.055  10.720  0.1072  0.2022  0.1162
  295loPI    C3 4707  15.584   2.660  10.772  0.1970  0.1883  0.0863
  295loPI   PO4 4708  15.299   3.035  10.331  0.2727  0.0879  0.3189
  295loPI   GL1 4709  15.329   2.818   9.889 -0.3576  0.0624  0.1710
  295loPI   GL2 4710  15.480   2.523   9.801 -0.0825  0.1565 -0.3929
  295loPI   C1A 4711  15.335   3.055   9.403  0.1388 -0.1567  0.0838
  295loPI   C2A 4712  15.355   3.069   8.957  0.1109  0.1857  0.1565
  295loPI   C3A 4713  15.421   3.115   8.499  0.1037  0.3184 -0.2436
  295loPI   C4A 4714  15.218   3.046   8.213  0.1608 -0.0166  0.2685
  295loPI   C5A 4715  14.920   2.865   7.853 -0.0389  0.1140 -0.3141
  295loPI   C6A 4716  14.518   2.679   7.859 -0.1169  0.3086  0.0588
  295loPI   C1B 4717  15.624   2.639   9.454  0.2905 -0.2097  0.0519
  295loPI   C2B 4718  15.403   2.526   9.094  0.2041  0.0833 -0.1147
  295loPI   C3B 4719  15.484   2.629   8.688  0.1512 -0.0441 -0.0211
  295loPI   C4B 4720  15.588   2.634   8.209 -0.0811  0.0558 -0.3154
  296loPI    C1 4721   2.217  12.820  10.798  0.0366 -0.0109  0.1265
  296loPI    C2 4722   2.436  13.155  10.790  0.0023  0.0159  0.2831
  296loPI    C3 4723   2.466  12.903  11.099 -0.1138 -0.0302  0.2575
  296loPI   PO4 4724   2.039  12.919  10.646  0.0254 -0.3209 -0.0495
  296loPI   GL1 4725   1.677  13.043  10.341  0.1819  0.0210  0.1188
  296loPI   GL2 4726   1.348  13.229  10.384 -0.0462  0.0707 -0.0560
  296loPI   C1A 4727   1.911  13.256  10.030  0.0608 -0.3901 -0.1406
  296loPI   C2A 4728   1.894  13.349   9.537 -0.0511 -0.1446  0.1171
  296loPI   C3A 4729   1.923  13.407   9.098  0.2069 -0.1686  0.1033
  296loPI   C4A 4730   2.041  13.444   8.664  0.0833  0.2205 -0.1514
  296loPI   C5A 4731   1.737  13.340   8.283  0.1024 -0.2452 -0.0654
  296loPI   C6A 4732   1.645  13.612   7.902  0.1642  0.0362 -0.3981
  296loPI   C1B 4733   1.378  13.368   9.965  0.0969  0.2931  0.1327
  296loPI   C2B 4734   1.466  13.542   9.536 -0.4602 -0.1157  0.3156
  296loPI   C3B 4735   1.470  13.649   9.091  0.2688  0.1310  0.0791
  296loPI   C4B 4736   1.591  13.642   8.669  0.0636  0.0256 -0.0453
  297loPI    C1 4737  16.437   0.436  11.025 -0.2211  0.0355  0.0301
  297loPI    C2 4738  16.258   0.593  11.346 -0.0486 -0.0279  0.1589
  297loPI    C3 4739  16.644   0.489  11.363 -0.0502 -0.0735 -0.0559
  297loPI   PO4 4740  16.268   0.582  10.718  0.1171 -0.2032 -0.1170
  297loPI   GL1 4741  16.159   0.481  10.339 -0.1308  0.0062  0.1779
  297loPI   GL2 4742  15.912   0.339  10.241  0.1079  0.3326  0.0221
  297loPI   C1A 4743  16.298   0.259   9.973  0.2261  0.1311  0.3489
  297loPI   C2A 4744  16.516   0.021   9.694  0.1919 -0.1535  0.1219
  297loPI   C3A 4745  16.802   0.081   9.428  0.2169 -0.0978 -0.1168
  297loPI   C4A 4746  16.929   0.275   9.016 -0.0893 -0.3560  0.1860
  297loPI   C5A 4747  17.032   0.373   8.649  0.0945 -0.0391 -0.3032
  297loPI   C6A 4748  16.881   0.675   8.265  0.0966 -0.0058 -0.1481
  297loPI   C1B 4749  15.808   0.350   9.816 -0.1996  0.1978 -0.1860
  297loPI   C2B 4750  16.141   0.382   9.485 -0.2088 -0.1086 -0.1932
  297loPI   C3B 4751  16.415   0.312   9.046 -0.0418  0.1052 -0.1248
  297loPI   C4B 4752  16.490   0.552   8.726  0.0522  0.1341 -0.1234
  298loPI    C1 4753  17.777  10.911  10.969 -0.1707 -0.0772 -0.0808
  298loPI    C2 4754  17.629  10.554  10.867 -0.0097 -0.1857  0.0585
  298loPI    C3 4755  18.021  10.595  10.935 -0.0053  0.0509 -0.0993
  298loPI   PO4 4756  17.616  11.065  10.747 -0.0198 -0.2011  0.1276
  298loPI   GL1 4757  17.463  11.276  10.358  0.1010  0.0723 -0.1842
  298loPI   GL2 4758  17.111  11.192  10.205  0.2473  0.2034 -0.0986
  298loPI   C1A 4759  17.567  11.496  10.019 -0.2390 -0.0682 -0.3279
  298loPI   C2A 4760  17.501  11.537   9.710  0.0798  0.1067  0.4678
  298loPI   C3A 4761  17.529  11.634   9.194 -0.1331  0.0665  0.0421
  298loPI   C4A 4762  17.339  11.568   8.850  0.0299 -0.1471  0.2834
  298loPI   C5A 4763  17.271  11.913   8.702  0.1984  0.2505 -0.0901
  298loPI   C6A 4764  17.138  12.356   8.499 -0.0181 -0.2052 -0.0769
  298loPI   C1B 4765  16.983  11.209   9.767 -0.1497  0.1679 -0.1522
  298loPI   C2B 4766  16.810  11.283   9.387 -0.0405  0.2393 -0.1949
  298loPI   C3B 4767  16.547  11.435   9.117 -0.2000  0.0114  0.0032
  298loPI   C4B 4768  16.315  11.551   8.786 -0.2644  0.0483  0.0283
  299loPI    C1 4769   6.885   6.784  10.764  0.2786 -0.1455 -0.0033
  299loPI    C2 4770   6.934   6.446  10.971 -0.0403 -0.0957  0.1598
  299loPI    C3 4771   6.819   6.780  11.158  0.1336  0.0692 -0.0238
  299loPI   PO4 4772   7.054   6.772  10.627  0.1004  0.2013 -0.0420
  299loPI   GL1 4773   7.196   6.765  10.278 -0.0345 -0.1882 -0.1351
  299loPI   GL2 4774   7.271   6.514  10.178  0.2414 -0.0508 -0.2622
  299loPI   C1A 4775   7.080   7.095   9.987  0.0138  0.1124  0.2349
  299loPI   C2A 4776   7.141   7.096   9.564  0.3051  0.0599  0.0621
  299loPI   C3A 4777   7.026   7.201   9.154  0.0207 -0.1976  0.2449
  299loPI   C4A 4778   7.146   7.247   8.754  0.0010  0.0289 -0.0275
  299loPI   C5A 4779   7.091   7.540   8.492 -0.2302 -0.1079  0.5119
  299loPI   C6A 4780   7.288   7.797   8.200  0.1128  0.2930 -0.1720
  299loPI   C1B 4781   7.345   6.362   9.750  0.2681  0.1607  0.0416
  299loPI   C2B 4782   7.476   6.385   9.343  0.0359 -0.2748  0.0146
  299loPI   C3B 4783   7.443   6.543   8.919  0.0436  0.1962 -0.1321
  299loPI   C4B 4784   7.496   6.506   8.461  0.3858  0.0486  0.0678
  300loPI    C1 4785   0.265  16.490  11.502  0.2314  0.0244 -0.0284
  300loPI    C2 4786   0.653  16.576  11.548  0.2555  0.0241 -0.2274
  300loPI    C3 4787   0.381  16.869  11.560  0.2426  0.0013  0.1026
  300loPI   PO4 4788   0.299  16.270  11.344 -0.0108  0.1374 -0.0073
  300loPI   GL1 4789   0.201  16.122  10.936  0.4731  0.1407 -0.1273
  300loPI   GL2 4790  -0.006  15.797  10.806  0.0037 -0.0363  0.0704
  300loPI   C1A 4791   0.507  16.153  10.553 -0.1211  0.3423 -0.2589
  300loPI   C2A 4792   0.522  16.221  10.213 -0.1869  0.4512 -0.2155
  300loPI   C3A 4793   0.578  16.218   9.831  0.2070  0.2863 -0.0430
  300loPI   C4A 4794   0.553  16.209   9.351  0.1113 -0.1198  0.2414
  300loPI   C5A 4795   0.599  15.980   8.967  0.0823 -0.0323  0.2210
  300loPI   C6A 4796   0.896  15.668   8.851  0.0798 -0.0542  0.6755
  300loPI   C1B 4797   0.033  16.176  10.422  0.0557  0.1822 -0.3076
  300loPI   C2B 4798   0.027  16.115  10.029 -0.1905  0.1901 -0.1963
  300loPI   C3B 4799   0.147  16.042   9.606  0.0858 -0.1316 -0.0902
  300loPI   C4B 4800   0.116  16.045   9.167 -0.0697 -0.1124  0.0313
  301loPI    C1 4801  10.964  14.941  10.778  0.1564  0.1624 -0.1792
  301loPI    C2 4802  10.919  15.267  11.007 -0.2088 -0.0919  0.1242
  301loPI    C3 4803  11.222  15.014  11.075 -0.1813 -0.0450  0.1760
  301loPI   PO4 4804  11.028  15.080  10.422  0.2547  0.0489  0.0436
  301loPI   GL1 4805  11.245  14.944  10.065 -0.0880  0.0008 -0.2917
  301loPI   GL2 4806  11.081  14.640   9.964 -0.0817 -0.0192 -0.4148
  301loPI   C1A 4807  11.332  15.216   9.789  0.2543 -0.1415  0.0589
  301loPI   C2A 4808  11.347  15.164   9.325 -0.2013 -0.0897 -0.0744
  301loPI   C3A 4809  11.405  15.156   8.861 -0.2355 -0.0482 -0.2162
  301loPI   C4A 4810  11.471  15.082   8.427 -0.0901  0.0259 -0.3182
  301loPI   C5A 4811  11.113  14.992   8.252 -0.0211 -0.1223  0.1009
  301loPI   C6A 4812  10.647  14.826   8.112  0.0369 -0.0681  0.6105
  301loPI   C1B 4813  11.228  14.707   9.590 -0.2381 -0.1271  0.0700
  301loPI   C2B 4814  11.181  14.691   9.150 -0.1672  0.2622  0.4373
  301loPI   C3B 4815  11.277  14.522   8.732 -0.2408  0.1037 -0.0083
  301loPI   C4B 4816  11.593  14.496   8.444 -0.1746 -0.1240 -0.0129
  302loPI    C1 4817  14.885  11.097  10.653  0.1552 -0.1526  0.0319
  302loPI    C2 4818  14.787  11.392  10.905  0.2481  0.0748 -0.1942
  302loPI    C3 4819  15.009  11.085  11.034 -0.0799 -0.0396  0.1137
  302loPI   PO4 4820  14.848  11.238  10.431 -0.0781  0.1915  0.0764
  302loPI   GL1 4821  14.877  11.638  10.184  0.1291  0.3008  0.0396
  302loPI   GL2 4822  14.741  11.401   9.927  0.1360  0.1419  0.0923
  302loPI   C1A 4823  15.121  11.736   9.771 -0.1226  0.0319 -0.3856
  302loPI   C2A 4824  15.158  11.768   9.455 -0.0531 -0.2338  0.2851
  302loPI   C3A 4825  15.356  12.063   9.234 -0.1529  0.1062  0.2159
  302loPI   C4A 4826  15.568  12.098   8.832 -0.0390  0.1532 -0.0452
  302loPI   C5A 4827  15.414  11.919   8.395 -0.1109 -0.3475  0.1573
  302loPI   C6A 4828  15.500  11.758   7.924 -0.0385 -0.0082  0.0077
  302loPI   C1B 4829  14.603  11.434   9.563  0.1344  0.0628 -0.2399
  302loPI   C2B 4830  14.559  11.490   9.095  0.0137 -0.0027  0.2097
  302loPI   C3B 4831  14.685  11.477   8.600  0.1401 -0.1027  0.0012
  302loPI   C4B 4832  14.858  11.210   8.230  0.0151 -0.1511 -0.2599
  303loPI    C1 4833  12.946   2.922  10.580 -0.0517 -0.0739 -0.0095
  303loPI    C2 4834  12.784   3.205  10.811  0.0853 -0.1396  0.1696
  303loPI    C3 4835  12.563   2.895  10.690 -0.1247  0.1467 -0.2025
  303loPI   PO4 4836  13.032   2.958  10.359  0.2273 -0.2033  0.0753
  303loPI   GL1 4837  12.923   3.020   9.917  0.0275  0.1467 -0.0012
  303loPI   GL2 4838  13.035   2.715   9.811 -0.1509 -0.2134 -0.0927
  303loPI   C1A 4839  12.869   3.162   9.581 -0.0476 -0.2991  0.2726
  303loPI   C2A 4840  12.826   3.306   9.162 -0.1063 -0.1895  0.0097
  303loPI   C3A 4841  12.789   3.452   8.823 -0.0288 -0.0988  0.1508
  303loPI   C4A 4842  12.873   3.475   8.434  0.1605  0.0053  0.1986
  303loPI   C5A 4843  12.798   3.619   7.972  0.3622 -0.1396 -0.1798
  303loPI   C6A 4844  12.510   3.869   7.758  0.1511 -0.1013  0.0492
  303loPI   C1B 4845  13.004   2.763   9.348  0.0022 -0.1662  0.1284
  303loPI   C2B 4846  13.038   2.862   9.007 -0.1261  0.1216 -0.0687
  303loPI   C3B 4847  12.990   2.982   8.564 -0.0839  0.1397 -0.1103
  303loPI   C4B 4848  13.252   3.189   8.277 -0.1706 -0.3973 -0.0387
  304loPI    C1 4849   1.594   1.913  11.261 -0.0561 -0.2231 -0.0489
  304loPI    C2 4850   1.835   2.150  11.474 -0.0989 -0.2653  0.0472
  304loPI    C3 4851   1.496   2.296  11.320 -0.0517 -0.2263 -0.0205
  304loPI   PO4 4852   1.609   1.878  11.008  0.2191 -0.0691 -0.0294
  304loPI   GL1 4853   1.557   1.995  10.537 -0.0452 -0.1497 -0.2189
  304loPI   GL2 4854   1.297   2.080  10.430  0.2120 -0.1766 -0.2487
  304loPI   C1A 4855   1.821   1.909  10.226 -0.1871  0.2118  0.0431
  304loPI   C2A 4856   1.953   1.845   9.830 -0.0895 -0.3101  0.2057
  304loPI   C3A 4857   1.951   1.718   9.487  0.0314 -0.1073  0.1713
  304loPI   C4A 4858   1.834   1.656   9.058 -0.1199  0.0361 -0.0252
  304loPI   C5A 4859   1.840   1.654   8.601  0.5432  0.0729 -0.1149
  304loPI   C6A 4860   1.673   1.650   8.218  0.2192  0.1935  0.4271
  304loPI   C1B 4861   1.384   2.089   9.963 -0.2224 -0.1050  0.0603
  304loPI   C2B 4862   1.457   2.023   9.642 -0.2068  0.0398 -0.0119
  304loPI   C3B 4863   1.516   1.951   9.256 -0.1599 -0.1412 -0.0897
  304loPI   C4B 4864   1.478   1.939   8.800  0.4142 -0.2190 -0.2946
  305loPI    C1 4865  15.322   4.521  10.479  0.2881  0.0392  0.2021
  305loPI    C2 4866  15.150   4.225  10.686  0.0937 -0.0314 -0.0554
  305loPI    C3 4867  14.966   4.578  10.653  0.0742 -0.0538 -0.1931
  305loPI   PO4 4868  15.404   4.464  10.134  0.1393 -0.1139 -0.0781
  305loPI   GL1 4869  15.683   4.346   9.744 -0.0902 -0.0409  0.1226
  305loPI   GL2 4870  15.890   4.428   9.501  0.1151 -0.3177 -0.5652
  305loPI   C1A 4871  15.469   4.197   9.423 -0.1516  0.0042 -0.2150
  305loPI   C2A 4872  15.546   4.247   9.026 -0.0133 -0.0046 -0.0130
  305loPI   C3A 4873  15.549   4.390   8.613 -0.1149  0.2289  0.0497
  305loPI   C4A 4874  15.500   4.375   8.174  0.0851  0.0251  0.1451
  305loPI   C5A 4875  15.485   4.420   7.790  0.0901 -0.1275 -0.0644
  305loPI   C6A 4876  15.369   4.768   7.464  0.2416  0.1944  0.2432
  305loPI   C1B 4877  15.979   4.465   9.119  0.1338  0.1284 -0.0337
  305loPI   C2B 4878  16.090   4.312   8.728 -0.2246  0.5516 -0.0591
  305loPI   C3B 4879  16.000   4.341   8.390 -0.1873 -0.0066  0.2933
  305loPI   C4B 4880  15.995   4.216   7.920  0.0956 -0.0500 -0.1226
  306loPI    C1 4881   6.984   3.064  10.298  0.0495 -0.1865  0.1904
  306loPI    C2 4882   7.113   2.744  10.500  0.0936 -0.1383  0.2390
  306loPI    C3 4883   6.999   3.073  10.698 -0.2766 -0.2425  0.2063
  306loPI   PO4 4884   6.842   2.876  10.068 -0.0452 -0.4889 -0.0530
  306loPI   GL1 4885   6.899   2.633   9.716  0.0362  0.2899  0.0891
  306loPI   GL2 4886   6.514   2.574   9.802  0.1770 -0.0429  0.1361
  306loPI   C1A 4887   6.898   2.637   9.234  0.2187  0.3023 -0.0520
  306loPI   C2A 4888   6.969   2.613   8.841 -0.0592 -0.0315  0.1142
  306loPI   C3A 4889   6.913   2.687   8.385 -0.1600 -0.1766  0.0715
  306loPI   C4A 4890   7.002   2.640   7.907  0.0094  0.0081 -0.1729
  306loPI   C5A 4891   7.066   2.847   7.469  0.0711 -0.0885 -0.0024
  306loPI   C6A 4892   7.025   3.307   7.433  0.2377 -0.1081  0.5195
  306loPI   C1B 4893   6.482   2.458   9.387 -0.2884  0.0950 -0.0445
  306loPI   C2B 4894   6.538   2.407   8.932  0.0157 -0.0271  0.1088
  306loPI   C3B 4895   6.495   2.468   8.536  0.1787 -0.1585  0.0869
  306loPI   C4B 4896   6.550   2.423   8.027  0.0458  0.1406  0.2607
  307loPI    C1 4897  11.272   8.891  11.042  0.0161  0.0074 -0.1695
  307loPI    C2 4898  11.586   8.689  11.185 -0.0432 -0.0610 -0.1347
  307loPI    C3 4899  11.528   9.070  11.292 -0.0278 -0.0790 -0.0617
  307loPI   PO4 4900  11.262   8.764  10.740  0.2425 -0.2531  0.1179
  307loPI   GL1 4901  11.033   8.674  10.417  0.0960  0.1282 -0.0787
  307loPI   GL2 4902  10.774   8.960  10.357 -0.2005  0.0434  0.2212
  307loPI   C1A 4903  11.117   8.541  10.056  0.1717  0.0221 -0.3075
  307loPI   C2A 4904  11.097   8.540   9.748 -0.1536  0.0816  0.1243
  307loPI   C3A 4905  11.204   8.645   9.357  0.1750 -0.2408  0.4921
  307loPI   C4A 4906  11.330   8.511   9.133  0.2784 -0.1188 -0.1420
  307loPI   C5A 4907  11.637   8.588   8.780 -0.0941  0.1580 -0.0286
  307loPI   C6A 4908  11.645   8.423   8.331  0.0209 -0.0177 -0.3607
  307loPI   C1B 4909  10.727   8.870  10.007 -0.0211 -0.1527 -0.2245
  307loPI   C2B 4910  10.741   8.914   9.583 -0.0263  0.0806 -0.0818
  307loPI   C3B 4911  10.703   8.907   9.159 -0.2448  0.5392  0.3227
  307loPI   C4B 4912  10.597   8.836   8.655  0.1802  0.2027  0.2405
  308loPI    C1 4913   4.248  15.070  11.392  0.0532 -0.0546 -0.1189
  308loPI    C2 4914   4.632  15.021  11.493  0.0751  0.1908 -0.0790
  308loPI    C3 4915   4.371  15.161  11.762 -0.0493 -0.0020 -0.0977
  308loPI   PO4 4916   4.176  15.251  11.122 -0.0459  0.0535  0.0646
  308loPI   GL1 4917   3.926  15.127  10.706 -0.2471  0.1713  0.0735
  308loPI   GL2 4918   4.179  14.892  10.649 -0.3221  0.1977 -0.1934
  308loPI   C1A 4919   3.740  15.361  10.353  0.2447  0.2262  0.1694
  308loPI   C2A 4920   3.731  15.396  10.016  0.2174  0.1857  0.1557
  308loPI   C3A 4921   3.735  15.369   9.637 -0.1431  0.2962  0.0457
  308loPI   C4A 4922   3.845  15.459   9.257 -0.1137 -0.0599  0.1882
  308loPI   C5A 4923   3.712  15.460   8.789 -0.0482 -0.1448 -0.1479
  308loPI   C6A 4924   3.534  15.210   8.513  0.0030 -0.1092  0.5617
  308loPI   C1B 4925   4.165  15.134  10.242  0.1561 -0.0073 -0.1766
  308loPI   C2B 4926   4.213  15.210   9.840  0.1956  0.1067 -0.0146
  308loPI   C3B 4927   4.204  15.078   9.438  0.0213  0.0757  0.0238
  308loPI   C4B 4928   4.259  15.197   9.072  0.0003  0.0965  0.1697
  309loPI    C1 4929  12.270   7.194  10.780  0.0031  0.0341 -0.0040
  309loPI    C2 4930  12.213   6.890  11.033 -0.0353  0.0129 -0.0380
  309loPI    C3 4931  12.134   7.265  11.149 -0.2575 -0.0171 -0.0881
  309loPI   PO4 4932  12.460   7.091  10.566 -0.2811  0.1004  0.3169
  309loPI   GL1 4933  12.417   6.963  10.115 -0.1717  0.0901 -0.1040
  309loPI   GL2 4934  12.142   6.923   9.958  0.1990 -0.2513  0.0522
  309loPI   C1A 4935  12.654   7.125   9.838  0.2696  0.1767 -0.1742
  309loPI   C2A 4936  12.711   7.285   9.423  0.0209 -0.1158  0.2702
  309loPI   C3A 4937  12.782   7.460   8.932 -0.1656 -0.2036  0.1215
  309loPI   C4A 4938  12.573   7.806   8.703  0.2366  0.0772  0.0640
  309loPI   C5A 4939  12.346   8.056   8.508 -0.1173  0.0758 -0.2608
  309loPI   C6A 4940  12.064   8.171   8.173 -0.2505 -0.3043 -0.0269
  309loPI   C1B 4941  12.237   6.914   9.523  0.4101 -0.0845 -0.0829
  309loPI   C2B 4942  12.413   7.001   9.139 -0.1852  0.0435  0.0870
  309loPI   C3B 4943  12.564   7.005   8.596  0.0418  0.0216  0.1276
  309loPI   C4B 4944  12.489   6.801   8.187 -0.1702 -0.0785  0.0822
  310loPI    C1 4945   0.161   8.677  10.866 -0.0695  0.1610 -0.2531
  310loPI    C2 4946  -0.046   9.011  10.942  0.0220  0.1554  0.0296
  310loPI    C3 4947  -0.087   8.692  11.179  0.1930  0.0818 -0.0379
  310loPI   PO4 4948   0.068   8.559  10.588 -0.1342  0.2187  0.0553
  310loPI   GL1 4949   0.271   8.528  10.179 -0.1071  0.1805 -0.1623
  310loPI   GL2 4950   0.148   8.788  10.093 -0.1405 -0.1145 -0.3380
  310loPI   C1A 4951   0.280   8.279   9.807 -0.0924 -0.1744 -0.2507
  310loPI   C2A 4952   0.256   8.345   9.388  0.0849 -0.1168 -0.2175
  310loPI   C3A 4953   0.223   8.235   8.907 -0.2352  0.0413  0.0861
  310loPI   C4A 4954   0.016   8.010   8.633 -0.4033  0.0719 -0.1885
  310loPI   C5A 4955  -0.129   7.935   8.213 -0.3018 -0.0123 -0.0393
  310loPI   C6A 4956  -0.537   8.016   8.093  0.0149 -0.2564 -0.3472
  310loPI   C1B 4957   0.070   8.795   9.709 -0.1006 -0.4085  0.2881
  310loPI   C2B 4958   0.204   8.869   9.396  0.0448 -0.0932  0.0063
  310loPI   C3B 4959   0.051   9.015   9.035 -0.0049  0.2495  0.0866
  310loPI   C4B 4960   0.036   9.088   8.600  0.3310  0.1847  0.0010
  311loPI    C1 4961  17.783   2.155  10.547  0.1836 -0.0266 -0.1055
  311loPI    C2 4962  17.900   2.074  10.921 -0.2055  0.0133  0.0288
  311loPI    C3 4963  18.159   2.038  10.618  0.1241  0.0177  0.3049
  311loPI   PO4 4964  17.700   2.404  10.501 -0.0454 -0.2951 -0.0126
  311loPI   GL1 4965  17.453   2.328  10.135  0.1073  0.0728 -0.1352
  311loPI   GL2 4966  17.577   2.573  10.057 -0.3780  0.0084  0.0089
  311loPI   C1A 4967  17.489   2.052   9.910  0.4587  0.0731  0.0995
  311loPI   C2A 4968  17.480   1.626   9.622  0.0931 -0.0840 -0.0790
  311loPI   C3A 4969  17.418   1.776   9.252  0.0910  0.0504  0.0697
  311loPI   C4A 4970  17.507   1.899   8.831  0.0300 -0.0179 -0.0699
  311loPI   C5A 4971  17.365   2.075   8.435 -0.1174  0.2658 -0.0181
  311loPI   C6A 4972  17.583   2.366   8.188  0.2911  0.1867  0.0064
  311loPI   C1B 4973  17.438   2.412   9.627  0.2205 -0.0756  0.0500
  311loPI   C2B 4974  17.433   2.263   9.268 -0.0621  0.2389 -0.2238
  311loPI   C3B 4975  17.493   2.393   8.876  0.3055  0.0843 -0.1043
  311loPI   C4B 4976  17.307   2.604   8.575 -0.1735  0.4657 -0.2077
  312loPI    C1 4977   7.856  10.820  11.048  0.2510  0.0664 -0.1393
  312loPI    C2 4978   7.814  11.140  11.284 -0.0839  0.0973 -0.2354
  312loPI    C3 4979   8.133  10.902  11.324  0.0167  0.2739  0.0387
  312loPI   PO4 4980   7.831  10.897  10.742 -0.1632 -0.0921  0.1936
  312loPI   GL1 4981   7.688  11.195  10.391 -0.0586  0.0203  0.0779
  312loPI   GL2 4982   7.415  11.036  10.500 -0.0430 -0.1469 -0.0380
  312loPI   C1A 4983   7.942  11.382  10.069  0.1664 -0.1020  0.1792
  312loPI   C2A 4984   7.983  11.362   9.608 -0.0353 -0.2757 -0.2523
  312loPI   C3A 4985   7.895  11.332   9.203  0.1284  0.0417 -0.2631
  312loPI   C4A 4986   7.819  11.206   8.812 -0.0007 -0.0694 -0.1158
  312loPI   C5A 4987   7.675  11.103   8.342 -0.0074  0.0873 -0.0203
  312loPI   C6A 4988   7.420  10.880   8.106 -0.1587 -0.3091 -0.0979
  312loPI   C1B 4989   7.389  10.990  10.079 -0.0447 -0.0755 -0.2506
  312loPI   C2B 4990   7.468  11.046   9.616 -0.0915  0.0664 -0.2365
  312loPI   C3B 4991   7.465  11.000   9.173  0.0526  0.1091  0.2158
  312loPI   C4B 4992   7.337  11.153   8.914 -0.1288 -0.1476 -0.0848
  313loPI    C1 4993  17.143  12.443  10.919 -0.0190 -0.0656 -0.0475
  313loPI    C2 4994  17.263  12.758  11.134  0.3074  0.0087 -0.3295
  313loPI    C3 4995  17.289  12.390  11.288 -0.2069  0.1224  0.0558
  313loPI   PO4 4996  17.237  12.451  10.754 -0.0816 -0.1829  0.1657
  313loPI   GL1 4997  17.153  12.553  10.367  0.0816 -0.0454  0.2306
  313loPI   GL2 4998  16.925  12.692  10.318  0.1011 -0.1018  0.0715
  313loPI   C1A 4999  17.263  12.537   9.970 -0.3417  0.2377 -0.1278
  313loPI   C2A 5000  17.345  12.580   9.468  0.2172  0.1491  0.0025
  313loPI   C3A 5001  17.458  12.774   9.060  0.2613  0.2443 -0.0154
  313loPI   C4A 5002  17.400  12.781   8.619  0.1446  0.3227 -0.1834
  313loPI   C5A 5003  17.259  13.143   8.374 -0.0307 -0.0804  0.1441
  313loPI   C6A 5004  17.108  13.493   8.464 -0.3532  0.0883  0.1759
  313loPI   C1B 5005  16.765  12.709   9.905 -0.1019 -0.0007  0.0482
  313loPI   C2B 5006  16.888  12.851   9.611  0.0121 -0.1772 -0.1133
  313loPI   C3B 5007  16.986  12.921   9.277 -0.1000  0.0260 -0.2607
  313loPI   C4B 5008  17.073  13.091   8.790  0.0864 -0.2187  0.1259
  314loPI    C1 5009   6.770  17.865  10.854 -0.0168 -0.1678  0.2666
  314loPI    C2 5010   6.842  18.238  10.980 -0.2433 -0.0785  0.1377
  314loPI    C3 5011   6.898  17.929  11.227 -0.0272  0.0373  0.2364
  314loPI   PO4 5012   6.920  17.939  10.544 -0.2237  0.1174  0.0643
  314loPI   GL1 5013   6.836  17.980  10.175 -0.0887  0.1023 -0.3792
  314loPI   GL2 5014   7.136  17.833  10.053 -0.0560 -0.1206 -0.0490
  314loPI   C1A 5015   6.560  18.022   9.754 -0.0850  0.1593 -0.0777
  314loPI   C2A 5016   6.443  18.034   9.316  0.0044 -0.0904  0.2088
  314loPI   C3A 5017   6.464  18.069   8.873  0.2120 -0.0364 -0.0331
  314loPI   C4A 5018   6.435  18.135   8.481 -0.1935  0.1156  0.0681
  314loPI   C5A 5019   6.547  18.368   8.078 -0.1188 -0.1859 -0.1887
  314loPI   C6A 5020   6.485  18.392   7.719  0.0061 -0.0579  0.1523
  314loPI   C1B 5021   7.024  17.750   9.685 -0.1465 -0.1687 -0.1699
  314loPI   C2B 5022   6.984  17.857   9.273 -0.0175  0.0455 -0.0419
  314loPI   C3B 5023   6.998  17.855   8.968 -0.1625 -0.1099  0.0396
  314loPI   C4B 5024   6.888  17.896   8.531 -0.1864  0.4473  0.2466
  315loPI    C1 5025   6.879  14.099  10.958  0.2475 -0.0461 -0.0481
  315loPI    C2 5026   6.575  14.332  11.075  0.2664  0.0495 -0.1862
  315loPI    C3 5027   6.605  13.958  11.214  0.2351  0.1278  0.0362
  315loPI   PO4 5028   6.854  14.142  10.662 -0.1677 -0.2736 -0.3511
  315loPI   GL1 5029   7.119  14.402  10.281  0.2508  0.1315  0.0184
  315loPI   GL2 5030   7.013  14.597  10.173 -0.1465 -0.1303  0.1999
  315loPI   C1A 5031   7.031  14.173   9.925 -0.1462 -0.1591  0.1146
  315loPI   C2A 5032   7.074  14.103   9.587 -0.1745  0.2814  0.0011
  315loPI   C3A 5033   7.317  14.000   9.185 -0.2354  0.1992 -0.2788
  315loPI   C4A 5034   7.230  14.004   8.720  0.4690  0.3015  0.1441
  315loPI   C5A 5035   7.346  14.191   8.384  0.0204  0.0251 -0.0694
  315loPI   C6A 5036   7.787  14.380   8.295 -0.0597 -0.3315 -0.0569
  315loPI   C1B 5037   7.021  14.605   9.716  0.1748  0.2403  0.1954
  315loPI   C2B 5038   7.022  14.522   9.324 -0.1276 -0.0101 -0.2024
  315loPI   C3B 5039   6.998  14.695   8.858  0.0422 -0.1492 -0.3741
  315loPI   C4B 5040   6.898  14.811   8.407 -0.0183  0.1764 -0.1309
  316loPI    C1 5041   8.168  10.383  11.031 -0.1286 -0.2558 -0.1011
  316loPI    C2 5042   8.483  10.371  10.785 -0.0573  0.1826 -0.0393
  316loPI    C3 5043   8.511  10.218  11.153 -0.0295 -0.0907 -0.1528
  316loPI   PO4 5044   7.921  10.268  10.834 -0.2621  0.2507 -0.0161
  316loPI   GL1 5045   8.050  10.198  10.450 -0.2843 -0.0524  0.2068
  316loPI   GL2 5046   8.213  10.490  10.435 -0.3969  0.2932 -0.3169
  316loPI   C1A 5047   7.891  10.345  10.071  0.1719  0.0559  0.0279
  316loPI   C2A 5048   7.844  10.270   9.615 -0.2319 -0.0114  0.1172
  316loPI   C3A 5049   7.967  10.245   9.122 -0.0236 -0.4678 -0.0714
  316loPI   C4A 5050   7.986  10.375   8.740  0.1401  0.3027  0.0839
  316loPI   C5A 5051   8.066  10.789   8.525 -0.0452  0.3188  0.0823
  316loPI   C6A 5052   8.208  11.106   8.339  0.0151  0.2180 -0.1782
  316loPI   C1B 5053   8.394  10.448  10.094 -0.0883 -0.2635 -0.4454
  316loPI   C2B 5054   8.436  10.547   9.696 -0.2475 -0.2086 -0.3045
  316loPI   C3B 5055   8.387  10.519   9.339 -0.1793  0.0539 -0.2018
  316loPI   C4B 5056   8.407  10.577   8.905  0.0230  0.0472  0.2563
  317loPI    C1 5057   4.642   1.942  10.876  0.0250 -0.1953 -0.0874
  317loPI    C2 5058   4.641   1.718  11.207  0.0082 -0.1920 -0.0852
  317loPI    C3 5059   4.597   2.114  11.234 -0.2282 -0.2154 -0.1079
  317loPI   PO4 5060   4.463   1.822  10.707  0.1825  0.0894  0.0355
  317loPI   GL1 5061   4.213   1.680  10.333 -0.2857 -0.2228 -0.3837
  317loPI   GL2 5062   3.888   1.712  10.161 -0.0678  0.0783  0.2202
  317loPI   C1A 5063   4.284   1.435   9.974 -0.1441  0.1522  0.0268
  317loPI   C2A 5064   4.283   1.339   9.477  0.0124  0.0483 -0.5424
  317loPI   C3A 5065   4.207   1.362   9.013 -0.1633 -0.0579  0.0804
  317loPI   C4A 5066   4.166   1.421   8.514  0.2190 -0.4158 -0.0339
  317loPI   C5A 5067   4.417   1.566   8.051 -0.0873  0.0732 -0.1902
  317loPI   C6A 5068   4.515   1.447   7.584 -0.0061 -0.2112 -0.0576
  317loPI   C1B 5069   3.697   1.720   9.832 -0.0996 -0.1997 -0.0183
  317loPI   C2B 5070   3.676   1.676   9.412  0.0953  0.1847  0.5509
  317loPI   C3B 5071   3.762   1.608   9.040 -0.1474 -0.1368  0.0850
  317loPI   C4B 5072   3.679   1.476   8.671 -0.0051  0.2721  0.2938
  318loPI    C1 5073   9.491  16.050  10.814  0.2640  0.1399  0.1941
  318loPI    C2 5074   9.345  16.422  10.809 -0.1914 -0.0340 -0.0876
  318loPI    C3 5075   9.329  16.206  11.145  0.2870  0.2720  0.1436
  318loPI   PO4 5076   9.669  16.161  10.606 -0.3361  0.2408  0.1375
  318loPI   GL1 5077   9.977  16.007  10.275 -0.0242  0.2411 -0.1356
  318loPI   GL2 5078  10.226  16.022  10.081 -0.1649  0.0898  0.1184
  318loPI   C1A 5079   9.727  16.042   9.969 -0.2189 -0.1517  0.0716
  318loPI   C2A 5080   9.538  16.131   9.590 -0.0539 -0.2091  0.1254
  318loPI   C3A 5081   9.649  16.170   9.259  0.0920  0.0441  0.0340
  318loPI   C4A 5082   9.601  16.192   8.845 -0.2349 -0.0286  0.2986
  318loPI   C5A 5083   9.736  16.188   8.445  0.0808 -0.1489  0.1667
  318loPI   C6A 5084  10.143  16.316   8.255 -0.1759 -0.0294 -0.0227
  318loPI   C1B 5085  10.130  15.813   9.713 -0.0464 -0.2277  0.2704
  318loPI   C2B 5086  10.128  15.875   9.405  0.3465 -0.0675  0.0971
  318loPI   C3B 5087  10.050  15.902   9.042 -0.2136 -0.2891 -0.1697
  318loPI   C4B 5088  10.204  15.979   8.696  0.3835 -0.1137  0.2561
  319loPI    C1 5089   5.561   7.581  11.037  0.1935 -0.0509 -0.0020
  319loPI    C2 5090   5.729   7.653  11.393  0.0334  0.2980  0.0075
  319loPI    C3 5091   5.337   7.716  11.340  0.0260  0.0998 -0.1898
  319loPI   PO4 5092   5.723   7.716  10.796 -0.0125  0.0597 -0.0431
  319loPI   GL1 5093   5.688   7.683  10.351  0.3948 -0.1107 -0.0157
  319loPI   GL2 5094   5.604   7.958  10.221 -0.0380  0.2985 -0.0827
  319loPI   C1A 5095   5.731   7.484   9.888 -0.0559  0.0007 -0.1516
  319loPI   C2A 5096   5.713   7.555   9.402  0.1251  0.1943  0.4049
  319loPI   C3A 5097   5.558   7.546   8.923  0.0116  0.2086  0.3459
  319loPI   C4A 5098   5.414   7.685   8.443  0.0738  0.0373 -0.1300
  319loPI   C5A 5099   5.068   7.441   8.212  0.1074 -0.2682 -0.5618
  319loPI   C6A 5100   4.872   7.025   8.193 -0.3206 -0.1984 -0.2409
  319loPI   C1B 5101   5.671   7.985   9.773 -0.0144  0.0780 -0.1068
  319loPI   C2B 5102   5.691   8.072   9.293 -0.1197  0.2934  0.1669
  319loPI   C3B 5103   5.821   8.021   8.835 -0.2025  0.0167  0.0553
  319loPI   C4B 5104   5.873   7.972   8.449 -0.0089  0.1570  0.1166
  320loPI    C1 5105  15.985   2.125  10.549 -0.2016 -0.0420 -0.0288
  320loPI    C2 5106  16.052   1.904  10.876 -0.0551  0.0275 -0.0110
  320loPI    C3 5107  15.781   2.198  10.886  0.1062  0.1741  0.1154
  320loPI   PO4 5108  16.189   2.198  10.436 -0.2842  0.0966 -0.1068
  320loPI   GL1 5109  16.371   2.048  10.136  0.1369  0.0448  0.0025
  320loPI   GL2 5110  16.517   1.696   9.965 -0.0313 -0.2896 -0.1984
  320loPI   C1A 5111  16.479   2.179   9.665  0.1454 -0.0345 -0.0548
  320loPI   C2A 5112  16.218   2.132   9.352 -0.1440 -0.2541 -0.0337
  320loPI   C3A 5113  16.201   2.043   8.882  0.1936 -0.2410  0.0882
  320loPI   C4A 5114  16.153   1.958   8.459  0.0497 -0.2208 -0.0550
  320loPI   C5A 5115  15.801   1.810   8.229 -0.0500  0.0445 -0.1696
  320loPI   C6A 5116  15.374   1.643   8.403  0.0479 -0.1111  0.3386
  320loPI   C1B 5117  16.513   1.677   9.586 -0.4631 -0.0390  0.5381
  320loPI   C2B 5118  16.604   1.809   9.197  0.2985  0.0719  0.2106
  320loPI   C3B 5119  16.627   1.920   8.683  0.1333  0.2926 -0.0294
  320loPI   C4B 5120  16.670   2.168   8.228 -0.4503 -0.2453  0.0182
  321loPI    C1 5121  10.069   1.741  10.204 -0.0445  0.0485  0.0579
  321loPI    C2 5122  10.051   1.494  10.517 -0.1848 -0.0097  0.0045
  321loPI    C3 5123   9.968   1.882  10.564 -0.0855  0.0045  0.0638
  321loPI   PO4 5124  10.081   1.541  10.017 -0.4309 -0.0984  0.2077
  321loPI   GL1 5125   9.968   1.430   9.633 -0.0187  0.1251  0.2271
  321loPI   GL2 5126   9.737   1.682   9.528  0.1969 -0.0126 -0.0504
  321loPI   C1A 5127  10.134   1.547   9.248 -0.1239 -0.2873 -0.0137
  321loPI   C2A 5128  10.159   1.599   8.867  0.1750  0.1369 -0.1049
  321loPI   C3A 5129  10.204   1.535   8.486  0.0109 -0.1182 -0.2379
  321loPI   C4A 5130  10.075   1.569   8.159 -0.1871 -0.1547  0.1224
  321loPI   C5A 5131   9.740   1.309   7.894  0.0297 -0.1897 -0.1264
  321loPI   C6A 5132   9.638   0.962   7.651 -0.2650 -0.0392 -0.1811
  321loPI   C1B 5133   9.592   1.629   9.141  0.2652 -0.2409  0.0533
  321loPI   C2B 5134   9.641   1.690   8.782  0.0644 -0.5253  0.0605
  321loPI   C3B 5135   9.693   1.670   8.394 -0.0662  0.0608  0.1481
  321loPI   C4B 5136   9.743   1.967   8.029  0.0907 -0.1325 -0.2663
  322loPI    C1 5137   8.841  16.560  10.647  0.0743  0.0140 -0.0070
  322loPI    C2 5138   8.860  16.837  10.935  0.0263  0.0326 -0.0217
  322loPI    C3 5139   8.924  16.452  11.024  0.1475  0.0543 -0.0112
  322loPI   PO4 5140   8.958  16.638  10.515  0.2883  0.3468  0.0773
  322loPI   GL1 5141   9.064  16.766  10.110  0.0204 -0.0407 -0.0120
  322loPI   GL2 5142   9.108  17.150  10.029  0.0897  0.0543  0.0489
  322loPI   C1A 5143   9.117  16.391   9.786 -0.1715  0.0493  0.2100
  322loPI   C2A 5144   9.150  16.381   9.292  0.1013 -0.3135 -0.1197
  322loPI   C3A 5145   9.174  16.465   8.820  0.2457 -0.0424  0.2916
  322loPI   C4A 5146   9.261  16.405   8.417 -0.1128  0.0961  0.0423
  322loPI   C5A 5147   9.583  16.572   8.148  0.2131  0.2727 -0.4184
  322loPI   C6A 5148   9.909  16.873   8.193  0.3251 -0.2322  0.0407
  322loPI   C1B 5149   9.040  16.892   9.553  0.3453  0.1566 -0.4040
  322loPI   C2B 5150   9.155  16.840   9.128 -0.0951 -0.0755 -0.1781
  322loPI   C3B 5151   9.206  16.883   8.589  0.0394  0.0531 -0.2417
  322loPI   C4B 5152   9.321  17.045   8.179  0.0992  0.0876 -0.0315
  323loPI    C1 5153   4.448   0.121  11.168 -0.1039 -0.1185  0.0549
  323loPI    C2 5154   4.442   0.516  11.108 -0.0206 -0.1618 -0.2513
  323loPI    C3 5155   4.541   0.371  11.467 -0.2512  0.0991 -0.0780
  323loPI   PO4 5156   4.529   0.033  10.897  0.0000  0.1275  0.1004
  323loPI   GL1 5157   4.295   0.032  10.571 -0.3030  0.0478  0.1705
  323loPI   GL2 5158   4.386  -0.248  10.422 -0.1201 -0.1073 -0.2494
  323loPI   C1A 5159   3.999   0.163  10.352 -0.0523 -0.0780 -0.0615
  323loPI   C2A 5160   3.833   0.137   9.932 -0.1148 -0.0189  0.3223
  323loPI   C3A 5161   3.719   0.124   9.453 -0.0870 -0.0355 -0.0955
  323loPI   C4A 5162   3.703   0.106   9.107  0.0381  0.1822  0.1988
  323loPI   C5A 5163   3.709   0.078   8.625 -0.0217  0.0844  0.0396
  323loPI   C6A 5164   3.987   0.139   8.321 -0.1263 -0.0880  0.2361
  323loPI   C1B 5165   4.273  -0.092  10.050 -0.0876  0.0544  0.1956
  323loPI   C2B 5166   4.165  -0.058   9.535  0.0778 -0.1102 -0.0946
  323loPI   C3B 5167   4.206  -0.099   9.165  0.2072  0.2328  0.2774
  323loPI   C4B 5168   4.210  -0.053   8.753 -0.3511  0.1840  0.2211
  324loPI    C1 5169   9.141  15.033  10.950 -0.0496 -0.0045 -0.0144
  324loPI    C2 5170   9.408  14.746  11.029  0.0220  0.1616  0.3665
  324loPI    C3 5171   9.020  14.685  11.106 -0.0608 -0.0832 -0.1954
  324loPI   PO4 5172   9.196  15.148  10.662  0.0906 -0.0811  0.0240
  324loPI   GL1 5173   9.143  15.589  10.443 -0.0957  0.0529  0.3611
  324loPI   GL2 5174   9.387  15.818  10.348 -0.2820 -0.0927  0.1503
  324loPI   C1A 5175   9.281  15.441  10.050 -0.0033 -0.1040 -0.0535
  324loPI   C2A 5176   9.207  15.404   9.597 -0.1778 -0.1583 -0.0478
  324loPI   C3A 5177   9.184  15.409   9.173 -0.3134 -0.0799  0.2282
  324loPI   C4A 5178   9.159  15.385   8.736 -0.1172  0.2384  0.0266
  324loPI   C5A 5179   9.294  15.435   8.349  0.0407  0.2409  0.4364
  324loPI   C6A 5180   9.457  15.698   8.053  0.1786  0.2238  0.0967
  324loPI   C1B 5181   9.213  15.950   9.965  0.1926 -0.0557  0.0858
  324loPI   C2B 5182   9.139  15.916   9.532  0.2725 -0.1469 -0.1086
  324loPI   C3B 5183   9.231  15.854   9.011  0.0483 -0.0102 -0.0639
  324loPI   C4B 5184   9.217  15.895   8.547 -0.2075  0.0595 -0.0207
  325loPI    C1 5185   8.788  15.581  10.862 -0.0688  0.0028  0.1203
  325loPI    C2 5186   8.610  15.688  11.204  0.0737 -0.0059  0.1978
  325loPI    C3 5187   8.923  15.897  11.068  0.1057 -0.0870  0.1458
  325loPI   PO4 5188   8.652  15.654  10.646 -0.2917  0.0426 -0.0689
  325loPI   GL1 5189   8.529  15.689  10.224  0.0353 -0.2783 -0.1195
  325loPI   GL2 5190   8.741  15.536  10.084 -0.1639 -0.0279  0.0832
  325loPI   C1A 5191   8.241  15.823   9.966  0.1548 -0.0888  0.1871
  325loPI   C2A 5192   8.229  15.905   9.577  0.4143 -0.0678  0.0275
  325loPI   C3A 5193   8.358  15.969   9.198  0.2042  0.1305 -0.1247
  325loPI   C4A 5194   8.316  16.061   8.825 -0.0461 -0.0906 -0.0906
  325loPI   C5A 5195   8.363  15.985   8.431  0.2089  0.0652 -0.0536
  325loPI   C6A 5196   8.592  16.267   8.195 -0.3608  0.1389  0.5083
  325loPI   C1B 5197   8.763  15.566   9.704  0.0314 -0.3598 -0.0080
  325loPI   C2B 5198   8.809  15.734   9.235  0.0685 -0.1726  0.1425
  325loPI   C3B 5199   8.689  15.622   8.853 -0.3413 -0.0687 -0.1409
  325loPI   C4B 5200   8.816  15.589   8.468  0.1710 -0.1304  0.1151
  326loPI    C1 5201  10.493   2.296  10.395 -0.1553  0.0162  0.0193
  326loPI    C2 5202  10.356   2.151  10.742  0.0545  0.1704  0.1690
  326loPI    C3 5203  10.352   2.545  10.675  0.0669  0.1454  0.0182
  326loPI   PO4 5204  10.425   2.119  10.245  0.2116 -0.2984  0.1056
  326loPI   GL1 5205  10.563   1.738  10.038  0.0303  0.2736 -0.0701
  326loPI   GL2 5206  10.879   1.843  10.056  0.4680  0.1250 -0.1687
  326loPI   C1A 5207  10.632   1.957   9.640 -0.0756 -0.1525 -0.0711
  326loPI   C2A 5208  10.452   1.955   9.266  0.1028 -0.1515 -0.2480
  326loPI   C3A 5209  10.424   1.995   8.897  0.1480  0.0975  0.2876
  326loPI   C4A 5210  10.615   1.806   8.535 -0.1420 -0.1043 -0.0564
  326loPI   C5A 5211  10.555   1.441   8.185 -0.2078 -0.1165  0.3803
  326loPI   C6A 5212  10.682   0.977   8.202  0.1501  0.4369 -0.1366
  326loPI   C1B 5213  11.142   1.669   9.684  0.0645 -0.0735  0.0204
  326loPI   C2B 5214  11.278   1.486   9.230 -0.2067  0.2623  0.1590
  326loPI   C3B 5215  11.294   1.526   8.753 -0.0881  0.0765 -0.3266
  326loPI   C4B 5216  11.513   1.290   8.464 -0.1308  0.0748 -0.2250
  327loPI    C1 5217   0.127   3.318  10.668 -0.1569 -0.0716  0.0877
  327loPI    C2 5218   0.175   2.994  10.897  0.0231  0.0663  0.2485
  327loPI    C3 5219   0.086   3.347  11.065 -0.1110  0.1139  0.0801
  327loPI   PO4 5220   0.360   3.367  10.548  0.0596 -0.0031 -0.1782
  327loPI   GL1 5221   0.530   3.485  10.103  0.1357  0.3277 -0.3700
  327loPI   GL2 5222   0.532   3.114  10.092 -0.2028 -0.1075  0.1937
  327loPI   C1A 5223   0.449   3.530   9.713  0.1974  0.0526 -0.1730
  327loPI   C2A 5224   0.313   3.633   9.369  0.2375 -0.1961  0.1536
  327loPI   C3A 5225   0.181   3.702   8.936  0.0860  0.1012  0.1957
  327loPI   C4A 5226   0.082   3.825   8.531  0.1096 -0.2859  0.0235
  327loPI   C5A 5227  -0.029   3.914   8.157  0.0977 -0.0936  0.1058
  327loPI   C6A 5228  -0.214   3.905   7.785  0.2890  0.2500  0.1107
  327loPI   C1B 5229   0.524   3.046   9.716  0.2015 -0.0836 -0.3704
  327loPI   C2B 5230   0.391   3.137   9.325  0.1166 -0.0822 -0.1684
  327loPI   C3B 5231   0.338   3.049   8.928  0.0009  0.1679  0.1062
  327loPI   C4B 5232   0.372   2.959   8.490 -0.2683  0.1471  0.4309
  328loPI    C1 5233   3.905   3.912  10.550  0.0967  0.1075  0.0856
  328loPI    C2 5234   4.134   3.979  10.871  0.3521 -0.2071 -0.0256
  328loPI    C3 5235   3.740   3.926  10.914  0.2935  0.3293  0.1687
  328loPI   PO4 5236   3.880   4.130  10.377  0.2466  0.0047  0.0238
  328loPI   GL1 5237   3.942   4.347   9.996  0.4964 -0.0228  0.1134
  328loPI   GL2 5238   4.096   4.103   9.881 -0.1484 -0.4933  0.1033
  328loPI   C1A 5239   3.714   4.343   9.632 -0.1999 -0.0861  0.0684
  328loPI   C2A 5240   3.619   4.378   9.256  0.1201  0.1205 -0.0061
  328loPI   C3A 5241   3.605   4.328   8.737  0.2259  0.2449 -0.1767
  328loPI   C4A 5242   3.746   4.336   8.291  0.0640 -0.1295 -0.0119
  328loPI   C5A 5243   3.977   4.138   8.013  0.0238 -0.3005  0.0629
  328loPI   C6A 5244   3.984   3.980   7.590  0.1123 -0.1866 -0.0181
  328loPI   C1B 5245   4.076   4.088   9.478 -0.3302  0.0311  0.0139
  328loPI   C2B 5246   4.037   4.102   8.994 -0.1797 -0.0987 -0.1972
  328loPI   C3B 5247   4.024   3.985   8.576  0.0150  0.0634 -0.0138
  328loPI   C4B 5248   4.244   3.742   8.260  0.1780  0.1540  0.0524
  329loPI    C1 5249   1.837   6.994  10.505 -0.0217 -0.0551 -0.0019
  329loPI    C2 5250   1.697   6.656  10.666 -0.1286  0.0485  0.1258
  329loPI    C3 5251   1.867   6.933  10.899  0.0178  0.0554  0.0127
  329loPI   PO4 5252   1.686   6.984  10.227  0.2874  0.0821  0.2865
  329loPI   GL1 5253   1.643   6.785   9.923  0.0957  0.2686  0.0097
  329loPI   GL2 5254   1.991   6.858   9.754  0.0204  0.2273  0.1973
  329loPI   C1A 5255   1.472   6.940   9.395  0.1323  0.0523  0.0609
  329loPI   C2A 5256   1.494   6.993   8.925  0.1690  0.2410  0.4778
  329loPI   C3A 5257   1.388   6.872   8.578 -0.2194  0.1440  0.2445
  329loPI   C4A 5258   1.181   6.953   8.233  0.2311  0.2211  0.1450
  329loPI   C5A 5259   1.089   6.627   7.881  0.3280 -0.1596  0.0074
  329loPI   C6A 5260   0.936   6.235   7.968 -0.0697 -0.2443 -0.1686
  329loPI   C1B 5261   1.909   6.887   9.223 -0.0010 -0.0907 -0.0953
  329loPI   C2B 5262   1.891   6.840   8.751 -0.2547  0.0717 -0.1477
  329loPI   C3B 5263   1.893   6.848   8.351  0.2350  0.0637  0.4504
  329loPI   C4B 5264   1.577   6.748   7.937 -0.1747 -0.1893  0.3733
  330loPI    C1 5265   3.493   1.940  11.062 -0.0578 -0.0884  0.0791
  330loPI    C2 5266   3.288   1.629  11.209  0.0918 -0.0290  0.4247
  330loPI    C3 5267   3.219   1.997  11.348  0.0682  0.0649  0.1709
  330loPI   PO4 5268   3.504   1.888  10.757  0.0820 -0.1618 -0.4547
  330loPI   GL1 5269   3.304   1.739  10.367 -0.1724  0.1380  0.0138
  330loPI   GL2 5270   3.461   1.443  10.292  0.2335 -0.1728  0.1946
  330loPI   C1A 5271   3.329   2.001   9.978  0.1942 -0.1158 -0.2004
  330loPI   C2A 5272   3.243   1.947   9.611 -0.1139 -0.2170  0.0196
  330loPI   C3A 5273   3.228   1.976   9.114 -0.1078 -0.1305 -0.0797
  330loPI   C4A 5274   3.199   1.794   8.721  0.2016  0.0004 -0.3818
  330loPI   C5A 5275   3.227   1.705   8.370  0.3701  0.3253 -0.4392
  330loPI   C6A 5276   3.451   1.381   8.111  0.0043  0.0867  0.0955
  330loPI   C1B 5277   3.274   1.487   9.937 -0.1875 -0.0199 -0.1701
  330loPI   C2B 5278   3.259   1.405   9.474  0.1018 -0.2269  0.0388
  330loPI   C3B 5279   3.242   1.343   9.025 -0.0393  0.0652 -0.0898
  330loPI   C4B 5280   3.113   1.260   8.571  0.0509  0.2685  0.2396
  331loPI    C1 5281  10.399   8.881  10.981 -0.0359  0.1460  0.0941
  331loPI    C2 5282  10.675   8.963  11.259  0.1776  0.1302 -0.1103
  331loPI    C3 5283  10.421   8.658  11.312  0.0275  0.3045  0.1976
  331loPI   PO4 5284  10.393   9.052  10.799 -0.1368 -0.0595 -0.1389
  331loPI   GL1 5285  10.176   9.234  10.516  0.2219 -0.1159  0.2205
  331loPI   GL2 5286  10.366   9.248  10.275  0.4018  0.1721 -0.0842
  331loPI   C1A 5287   9.889   9.244  10.202 -0.1103  0.3749 -0.0911
  331loPI   C2A 5288   9.862   9.325   9.740  0.3490  0.1993  0.1583
  331loPI   C3A 5289   9.848   9.316   9.288  0.0344 -0.0015 -0.1049
  331loPI   C4A 5290   9.859   9.376   8.926  0.1374  0.0742  0.2389
  331loPI   C5A 5291   9.757   9.283   8.452 -0.3208  0.0064 -0.1511
  331loPI   C6A 5292   9.805   9.338   8.064 -0.1866  0.2613 -0.2112
  331loPI   C1B 5293  10.335   9.080   9.822  0.0756 -0.1402  0.0794
  331loPI   C2B 5294  10.286   9.089   9.418 -0.2505 -0.3544 -0.1170
  331loPI   C3B 5295  10.293   9.061   8.970 -0.2675 -0.2656 -0.0115
  331loPI   C4B 5296  10.216   9.151   8.565  0.0341  0.1759  0.2111
  332loPI    C1 5297  11.307   2.164  10.463 -0.2396 -0.1553  0.0101
  332loPI    C2 5298  11.315   1.854  10.211 -0.2563 -0.0182 -0.1612
  332loPI    C3 5299  11.346   1.792  10.605 -0.3164 -0.2412 -0.1900
  332loPI   PO4 5300  11.428   2.335  10.278  0.1079 -0.0598  0.1801
  332loPI   GL1 5301  11.293   2.459   9.830  0.2048 -0.0686 -0.0590
  332loPI   GL2 5302  11.157   2.163   9.813  0.1416  0.0055 -0.0031
  332loPI   C1A 5303  11.229   2.465   9.332 -0.0510 -0.0244  0.1701
  332loPI   C2A 5304  11.285   2.403   8.869  0.0789 -0.2607  0.0163
  332loPI   C3A 5305  11.375   2.501   8.343  0.0798 -0.0549 -0.1850
  332loPI   C4A 5306  11.077   2.581   8.079  0.0748 -0.2056  0.0526
  332loPI   C5A 5307  10.782   2.806   7.800  0.0386  0.2020 -0.1982
  332loPI   C6A 5308  10.595   2.596   7.390 -0.1060  0.1452 -0.2454
  332loPI   C1B 5309  11.003   2.016   9.344 -0.3532 -0.0710  0.1770
  332loPI   C2B 5310  10.968   1.964   8.886  0.1681  0.0574  0.1218
  332loPI   C3B 5311  11.160   1.976   8.415 -0.0342  0.1792  0.0110
  332loPI   C4B 5312  11.251   1.804   8.066 -0.2293  0.0535 -0.1582
  333loPI    C1 5313   2.389   9.782  10.592  0.0763  0.1129 -0.3687
  333loPI    C2 5314   2.408   9.439  10.387 -0.1976 -0.0335 -0.1574
  333loPI    C3 5315   2.411   9.433  10.787 -0.1768  0.2141 -0.1522
  333loPI   PO4 5316   2.198   9.869  10.412 -0.3661  0.0861 -0.0545
  333loPI   GL1 5317   2.382  10.052  10.112  0.2355 -0.0830  0.0188
  333loPI   GL2 5318   2.347  10.280   9.783 -0.0164 -0.0010 -0.2433
  333loPI   C1A 5319   2.275   9.765   9.774 -0.0364  0.1449 -0.3769
  333loPI   C2A 5320   2.337   9.647   9.461 -0.0618  0.4389 -0.1230
  333loPI   C3A 5321   2.310   9.495   9.112  0.3138 -0.0457  0.0913
  333loPI   C4A 5322   2.317   9.579   8.658 -0.0356  0.1404 -0.1774
  333loPI   C5A 5323   2.238   9.452   8.262 -0.0042 -0.2237  0.0709
  333loPI   C6A 5324   2.155   9.073   7.931  0.1849 -0.0707  0.1317
  333loPI   C1B 5325   2.279  10.195   9.400  0.0003 -0.3044  0.1960
  333loPI   C2B 5326   2.237   9.993   9.000  0.0294  0.1907 -0.1244
  333loPI   C3B 5327   2.314  10.108   8.589  0.2639  0.2692  0.0205
  333loPI   C4B 5328   2.141  10.454   8.395  0.0173  0.0256  0.0569
  334loPI    C1 5329   9.333   6.253  10.897  0.2423 -0.1320  0.0805
  334loPI    C2 5330   9.324   5.907  11.097 -0.2128 -0.0212  0.2627
  334loPI    C3 5331   9.422   6.245  11.287  0.2912 -0.0523  0.0713
  334loPI   PO4 5332   9.099   6.130  10.617 -0.0705  0.0445 -0.3526
  334loPI   GL1 5333   9.078   6.259  10.204  0.3136  0.0211 -0.2224
  334loPI   GL2 5334   8.993   6.526  10.153  0.2320 -0.0453  0.1101
  334loPI   C1A 5335   9.135   5.976   9.882 -0.3277  0.1604 -0.0168
  334loPI   C2A 5336   9.555   5.952   9.623  0.0482 -0.0195 -0.3534
  334loPI   C3A 5337   9.712   6.044   9.226  0.1879 -0.1131 -0.0608
  334loPI   C4A 5338   9.808   6.308   8.828 -0.1614  0.0192 -0.1143
  334loPI   C5A 5339   9.860   6.511   8.434  0.0786  0.2954 -0.2444
  334loPI   C6A 5340   9.732   6.581   8.045 -0.0752  0.1842  0.2616
  334loPI   C1B 5341   8.949   6.575   9.710 -0.1382 -0.0396 -0.1343
  334loPI   C2B 5342   8.763   6.572   9.272  0.1036 -0.3382  0.0127
  334loPI   C3B 5343   8.798   6.505   8.874 -0.0436  0.4258 -0.2214
  334loPI   C4B 5344   8.927   6.545   8.495  0.0937  0.2203 -0.0365
  335loPI    C1 5345   8.487  16.088  10.805  0.0257  0.0665  0.2011
  335loPI    C2 5346   8.428  16.457  10.945  0.2562  0.0984  0.2173
  335loPI    C3 5347   8.490  16.154  11.199 -0.3037 -0.0231  0.2220
  335loPI   PO4 5348   8.490  16.171  10.568 -0.0984  0.1080 -0.0341
  335loPI   GL1 5349   8.497  16.418  10.264  0.0474  0.0120 -0.0982
  335loPI   GL2 5350   8.788  16.309  10.190  0.0608  0.1538  0.1016
  335loPI   C1A 5351   8.282  16.337   9.925 -0.0753 -0.0575 -0.2315
  335loPI   C2A 5352   8.306  16.370   9.513 -0.3949  0.2799  0.0212
  335loPI   C3A 5353   8.303  16.531   9.063 -0.2275 -0.2330  0.2723
  335loPI   C4A 5354   8.282  16.481   8.554 -0.0192  0.1419  0.0558
  335loPI   C5A 5355   8.001  16.561   8.206  0.0294  0.1617  0.2091
  335loPI   C6A 5356   7.986  16.587   7.834 -0.0368  0.1552  0.2842
  335loPI   C1B 5357   8.699  16.016   9.891 -0.4366  0.1721 -0.1544
  335loPI   C2B 5358   8.738  16.151   9.507 -0.2366 -0.2951  0.1380
  335loPI   C3B 5359   8.764  16.273   9.019  0.3973 -0.0932  0.2277
  335loPI   C4B 5360   8.781  16.162   8.656 -0.2732 -0.0674  0.1057
  336loPI    C1 5361   2.190  12.042  10.790  0.1185 -0.1397 -0.1649
  336loPI    C2 5362   2.119  11.657  10.875  0.0540 -0.0474  0.2171
  336loPI    C3 5363   2.332  11.882  11.128 -0.1561  0.2436  0.1407
  336loPI   PO4 5364   2.220  11.973  10.440 -0.3626 -0.0013 -0.0219
  336loPI   GL1 5365   2.093  12.214  10.064  0.0988 -0.0959  0.1454
  336loPI   GL2 5366   1.921  11.882  10.013 -0.0630 -0.0511 -0.0109
  336loPI   C1A 5367   2.016  12.314   9.605  0.1425  0.1359  0.2499
  336loPI   C2A 5368   1.886  12.401   9.191  0.0425 -0.2634  0.1868
  336loPI   C3A 5369   1.681  12.575   8.847  0.1922 -0.0987  0.0401
  336loPI   C4A 5370   1.635  12.532   8.399  0.0581 -0.0412  0.2948
  336loPI   C5A 5371   1.574  12.447   7.923 -0.0949 -0.0766  0.1598
  336loPI   C6A 5372   1.674  12.714   7.615  0.0738  0.0233  0.1649
  336loPI   C1B 5373   1.840  11.803   9.595  0.0846 -0.2142  0.0716
  336loPI   C2B 5374   1.809  11.907   9.104 -0.4031  0.1096  0.3245
  336loPI   C3B 5375   1.737  12.063   8.742 -0.0953 -0.0992 -0.0554
  336loPI   C4B 5376   1.751  11.931   8.321 -0.2929  0.3632 -0.0505
  337loPI    C1 5377  13.278  10.511  10.837  0.0100 -0.0698  0.1386
  337loPI    C2 5378  13.114  10.431  11.193 -0.2798 -0.0100  0.0213
  337loPI    C3 5379  13.502  10.525  11.168 -0.2469 -0.0586  0.3148
  337loPI   PO4 5380  13.000  10.601  10.720 -0.0721 -0.2272  0.1702
  337loPI   GL1 5381  12.939  10.708  10.284 -0.0565 -0.0922  0.2392
  337loPI   GL2 5382  12.978  10.491  10.114  0.2102  0.0077 -0.0346
  337loPI   C1A 5383  12.730  10.837   9.866  0.2684  0.2759 -0.0885
  337loPI   C2A 5384  12.674  11.017   9.499 -0.0123 -0.1551  0.2205
  337loPI   C3A 5385  12.758  11.009   9.068 -0.2628  0.0308  0.1996
  337loPI   C4A 5386  12.811  11.108   8.614 -0.0984 -0.3377 -0.0137
  337loPI   C5A 5387  12.828  10.893   8.196 -0.0709 -0.0662  0.0098
  337loPI   C6A 5388  12.804  11.060   7.822 -0.2752 -0.0215 -0.2767
  337loPI   C1B 5389  13.092  10.502   9.648  0.1998 -0.2991 -0.0835
  337loPI   C2B 5390  13.169  10.661   9.255 -0.1680 -0.1469  0.1470
  337loPI   C3B 5391  13.191  10.759   8.847  0.1652  0.2119 -0.1156
  337loPI   C4B 5392  13.260  10.896   8.473 -0.0184 -0.1078  0.0147
  338loPI    C1 5393   8.181   1.846  10.136  0.4429 -0.2323 -0.1207
  338loPI    C2 5394   8.027   1.481  10.084 -0.1779 -0.0449  0.2901
  338loPI    C3 5395   8.305   1.543  10.365 -0.0345 -0.2068  0.1858
  338loPI   PO4 5396   8.149   1.948   9.825 -0.3362 -0.0659 -0.2161
  338loPI   GL1 5397   7.837   1.978   9.627  0.1706  0.0552 -0.1483
  338loPI   GL2 5398   7.615   1.871   9.551 -0.0106 -0.1380  0.2812
  338loPI   C1A 5399   7.927   2.114   9.242  0.0552 -0.2330 -0.0995
  338loPI   C2A 5400   7.837   2.049   8.848  0.0221 -0.3679  0.0565
  338loPI   C3A 5401   7.808   1.995   8.498 -0.3533  0.1875 -0.3321
  338loPI   C4A 5402   7.719   1.908   8.124  0.1766 -0.1763 -0.1033
  338loPI   C5A 5403   7.754   1.754   7.717 -0.1982 -0.0456  0.0439
  338loPI   C6A 5404   7.615   1.680   7.391  0.0209  0.0771 -0.1224
  338loPI   C1B 5405   7.480   1.777   9.160 -0.0090 -0.1394  0.0124
  338loPI   C2B 5406   7.350   1.816   8.695  0.1114 -0.0877 -0.1584
  338loPI   C3B 5407   7.280   1.779   8.339 -0.1613 -0.1572  0.3051
  338loPI   C4B 5408   7.291   1.736   7.806 -0.0722  0.1350 -0.1838
  339POPI    C1 5409   1.814   8.648  10.745  0.0576  0.0799  0.0459
  339POPI    C2 5410   1.519   8.674  11.014 -0.1329  0.1502 -0.1668
  339POPI    C3 5411   1.667   9.006  10.846 -0.0358  0.1046 -0.1726
  339POPI   PO4 5412   1.789   8.567  10.550 -0.2108  0.3696  0.4388
  339POPI   GL1 5413   1.801   8.557  10.184  0.1743 -0.1284  0.0136
  339POPI   GL2 5414   1.426   8.623  10.162 -0.1906  0.1753  0.2968
  339POPI   C1A 5415   2.061   8.596   9.826  0.1152 -0.0116 -0.2933
  339POPI   D2A 5416   2.332   8.528   9.447  0.2128  0.1020 -0.0666
  339POPI   C3A 5417   2.519   8.335   9.105  0.1711  0.1085  0.1876
  339POPI   C4A 5418   2.540   8.611   8.804 -0.4799 -0.3153  0.0180
  339POPI   C1B 5419   1.555   8.698   9.706 -0.1399  0.2195 -0.1673
  339POPI   C2B 5420   1.862   8.660   9.385 -0.0396 -0.0133 -0.1275
  339POPI   C3B 5421   2.068   8.690   8.998 -0.0202  0.1614  0.0995
  339POPI   C4B 5422   2.090   8.653   8.550  0.1423  0.0003 -0.3446
  340POPI    C1 5423   7.470   4.128  10.110  0.1860  0.0161 -0.3012
  340POPI    C2 5424   7.482   3.781   9.911  0.0262 -0.1439 -0.0384
  340POPI    C3 5425   7.402   3.784  10.303 -0.0552  0.1976 -0.0540
  340POPI   PO4 5426   7.697   4.257  10.043 -0.1230  0.3472  0.1291
  340POPI   GL1 5427   7.856   4.314   9.728  0.3499 -0.1127 -0.0529
  340POPI   GL2 5428   7.845   4.057   9.615  0.1590  0.1416  0.0592
  340POPI   C1A 5429   7.649   4.611   9.430  0.3602 -0.0204 -0.0160
  340POPI   D2A 5430   7.643   4.657   9.001 -0.0786 -0.4609 -0.2450
  340POPI   C3A 5431   7.838   4.879   8.691  0.0882 -0.0055 -0.2501
  340POPI   C4A 5432   7.936   5.020   8.298 -0.0218  0.2585 -0.1757
  340POPI   C1B 5433   7.747   3.734   9.296 -0.2048  0.0872 -0.2197
  340POPI   C2B 5434   7.740   3.679   8.920  0.0824 -0.1484 -0.1862
  340POPI   C3B 5435   7.791   3.771   8.520 -0.2966 -0.0912 -0.1039
  340POPI   C4B 5436   8.104   4.059   8.346  0.1595  0.1369  0.3063
  341POPI    C1 5437   2.425   8.568  10.834  0.0667 -0.0382 -0.1864
  341POPI    C2 5438   2.591   8.224  10.954  0.2045  0.0452 -0.1357
  341POPI    C3 5439   2.446   8.481  11.224 -0.0007 -0.0227 -0.1792
  341POPI   PO4 5440   2.306   8.556  10.650  0.0321  0.2082 -0.1696
  341POPI   GL1 5441   2.273   8.452  10.240  0.0972 -0.1060 -0.2226
  341POPI   GL2 5442   2.184   8.102  10.073 -0.2644  0.2066 -0.0605
  341POPI   C1A 5443   2.522   8.658   9.978  0.1931 -0.0356 -0.0389
  341POPI   D2A 5444   2.881   8.753   9.674  0.0011  0.0390 -0.1221
  341POPI   C3A 5445   2.838   8.670   9.326 -0.4094 -0.1503  0.1023
  341POPI   C4A 5446   2.916   8.966   8.882 -0.0823 -0.1478 -0.0009
  341POPI   C1B 5447   2.332   7.958   9.635 -0.1753 -0.0480  0.1079
  341POPI   C2B 5448   2.420   7.805   9.200  0.2420  0.0341 -0.1243
  341POPI   C3B 5449   2.519   7.783   8.768 -0.4366 -0.3755  0.0952
  341POPI   C4B 5450   2.749   7.825   8.396  0.0737  0.1149 -0.0937
  342POPI    C1 5451   8.934   0.691  10.354  0.0311  0.0953  0.0276
  342POPI    C2 5452   9.288   0.821  10.486 -0.0235  0.0205  0.2540
  342POPI    C3 5453   9.072   0.569  10.709 -0.2242  0.0728  0.1219
  342POPI   PO4 5454   9.000   0.600  10.124  0.0909  0.0767 -0.0616
  342POPI   GL1 5455   8.945   0.680   9.751  0.2150 -0.2602  0.1340
  342POPI   GL2 5456   8.620   0.790   9.726  0.0096 -0.0075 -0.0006
  342POPI   C1A 5457   8.939   0.468   9.349  0.1097 -0.2486 -0.2664
  342POPI   D2A 5458   9.075   0.298   8.950 -0.1322 -0.0951 -0.1884
  342POPI   C3A 5459   8.886   0.472   8.582 -0.1880 -0.0902  0.2942
  342POPI   C4A 5460   8.919   0.529   8.088 -0.1931  0.0673 -0.1252
  342POPI   C1B 5461   8.476   0.696   9.337  0.0147  0.1731 -0.3654
  342POPI   C2B 5462   8.490   0.657   8.867 -0.1468 -0.0951  0.2873
  342POPI   C3B 5463   8.427   0.734   8.435 -0.2537 -0.2546  0.1388
  342POPI   C4B 5464   8.207   0.538   8.066  0.0482 -0.0904 -0.2398
  343POPI    C1 5465  13.470  11.495  10.703 -0.0912  0.1919  0.1974
  343POPI    C2 5466  13.165  11.472  10.960  0.0506 -0.1623  0.3414
  343POPI    C3 5467  13.534  11.376  11.080  0.2148  0.2176  0.1562
  343POPI   PO4 5468  13.358  11.512  10.453  0.0612 -0.4265 -0.3141
  343POPI   GL1 5469  13.507  11.599  10.020 -0.2545 -0.2125 -0.0496
  343POPI   GL2 5470  13.609  11.852   9.895 -0.0360 -0.1572  0.1758
  343POPI   C1A 5471  13.521  11.488   9.618 -0.3296 -0.0817  0.1185
  343POPI   D2A 5472  13.594  11.504   9.175 -0.1118  0.2565 -0.0619
  343POPI   C3A 5473  13.726  11.558   8.891  0.0720 -0.0050  0.2847
  343POPI   C4A 5474  13.848  11.480   8.586  0.2912  0.2576  0.0633
  343POPI   C1B 5475  13.584  11.929   9.444  0.3185  0.0431  0.0436
  343POPI   C2B 5476  13.693  12.009   9.056 -0.1580  0.0770 -0.0643
  343POPI   C3B 5477  13.754  11.973   8.641 -0.1343  0.1802  0.2642
  343POPI   C4B 5478  13.609  12.076   8.167 -0.2900 -0.0724 -0.1238
  344POPI    C1 5479  10.740  14.593  10.380  0.2362 -0.0391 -0.0303
  344POPI    C2 5480  10.835  14.248  10.557  0.0664 -0.1529 -0.1579
  344POPI    C3 5481  11.115  14.528  10.503  0.1863 -0.2363  0.0202
  344POPI   PO4 5482  10.535  14.549  10.232  0.0764 -0.0879 -0.0126
  344POPI   GL1 5483  10.578  14.480   9.804 -0.4085 -0.2930  0.3246
  344POPI   GL2 5484  10.496  14.201   9.781  0.1125  0.0711 -0.3182
  344POPI   C1A 5485  10.701  14.565   9.372  0.0702 -0.1874 -0.1333
  344POPI   D2A 5486  10.719  14.550   8.984  0.0408 -0.2767  0.2022
  344POPI   C3A 5487  10.882  14.862   8.659  0.2159 -0.0190  0.0539
  344POPI   C4A 5488  10.832  14.530   8.427  0.0241 -0.1860  0.2329
  344POPI   C1B 5489  10.320  14.204   9.429 -0.0412 -0.2283  0.4738
  344POPI   C2B 5490  10.378  14.224   8.968 -0.0951  0.0099 -0.1081
  344POPI   C3B 5491  10.397  14.429   8.606  0.0833 -0.1055 -0.3396
  344POPI   C4B 5492  10.281  14.435   8.241  0.2137 -0.2654  0.1814
  345POPI    C1 5493  16.822   8.732  11.057  0.3443  0.0967  0.0956
  345POPI    C2 5494  16.595   8.996  11.255 -0.0239 -0.1131 -0.0353
  345POPI    C3 5495  16.720   8.663  11.438  0.0284 -0.0845 -0.0183
  345POPI   PO4 5496  16.873   8.997  10.796 -0.1431  0.0061 -0.0678
  345POPI   GL1 5497  17.107   8.926  10.376  0.2232  0.0162 -0.2414
  345POPI   GL2 5498  17.134   8.550  10.332  0.2867  0.0554  0.0632
  345POPI   C1A 5499  16.876   9.115  10.003  0.2444 -0.2476  0.0949
  345POPI   D2A 5500  16.765   8.812   9.685 -0.3444  0.3073 -0.1901
  345POPI   C3A 5501  16.939   8.845   9.235 -0.2154 -0.1434  0.3373
  345POPI   C4A 5502  16.916   9.146   8.844 -0.0036  0.2278 -0.0780
  345POPI   C1B 5503  17.127   8.469   9.825 -0.1283 -0.0829 -0.0234
  345POPI   C2B 5504  17.175   8.445   9.398  0.1979  0.0365  0.1569
  345POPI   C3B 5505  17.301   8.582   9.026  0.2315 -0.0453 -0.0772
  345POPI   C4B 5506  17.288   8.574   8.547 -0.0096  0.2875 -0.0752
  346POPI    C1 5507  13.539  14.985  10.569 -0.1033 -0.0776 -0.0037
  346POPI    C2 5508  13.623  14.605  10.479  0.0236 -0.0714  0.0855
  346POPI    C3 5509  13.775  14.770  10.810  0.0348  0.0815  0.0050
  346POPI   PO4 5510  13.530  15.136  10.302 -0.0171  0.0870 -0.1731
  346POPI   GL1 5511  13.260  15.033   9.935  0.0503 -0.1661 -0.1224
  346POPI   GL2 5512  13.327  15.293   9.903 -0.0745  0.3644  0.4841
  346POPI   C1A 5513  13.220  14.971   9.467  0.0570 -0.3329  0.0483
  346POPI   D2A 5514  13.331  14.772   9.116 -0.0672 -0.3636 -0.0346
  346POPI   C3A 5515  13.415  15.059   8.807 -0.2887 -0.3379 -0.1389
  346POPI   C4A 5516  13.513  15.191   8.381 -0.2466  0.1272 -0.0319
  346POPI   C1B 5517  13.275  15.476   9.454 -0.0962  0.0600 -0.0723
  346POPI   C2B 5518  13.320  15.555   8.995 -0.1674  0.0832 -0.0949
  346POPI   C3B 5519  13.132  15.483   8.622  0.1618 -0.1835  0.2979
  346POPI   C4B 5520  12.842  15.338   8.348  0.0978  0.2139 -0.1988
  347POPI    C1 5521   5.023  14.061  11.013 -0.2196  0.1768 -0.0364
  347POPI    C2 5522   5.384  14.045  11.185 -0.1535 -0.1335 -0.1972
  347POPI    C3 5523   5.054  14.026  11.410 -0.0703  0.0254 -0.0599
  347POPI   PO4 5524   5.027  13.911  10.789  0.2046 -0.0699  0.0671
  347POPI   GL1 5525   4.833  13.849  10.411 -0.0037  0.4161  0.1646
  347POPI   GL2 5526   4.737  13.611  10.356  0.0700  0.1738 -0.1148
  347POPI   C1A 5527   5.102  13.989  10.018 -0.1795  0.1667 -0.2201
  347POPI   D2A 5528   5.227  14.121   9.632 -0.1701 -0.2393  0.2948
  347POPI   C3A 5529   5.071  14.038   9.243  0.2407 -0.3035  0.2034
  347POPI   C4A 5530   5.175  14.230   8.893  0.1442 -0.1078  0.2855
  347POPI   C1B 5531   4.719  13.671   9.963 -0.3372  0.1651 -0.2132
  347POPI   C2B 5532   4.684  13.766   9.539  0.1692  0.0068 -0.3497
  347POPI   C3B 5533   4.644  13.828   9.075 -0.1527 -0.0501 -0.1114
  347POPI   C4B 5534   4.766  13.987   8.695  0.1676 -0.2816  0.3090
  348POPI    C1 5535   6.972   9.416  10.881 -0.0302 -0.0698  0.1341
  348POPI    C2 5536   6.804   9.735  11.056 -0.0598 -0.0206  0.0166
  348POPI    C3 5537   7.197   9.670  11.094 -0.0553  0.0251  0.0480
  348POPI   PO4 5538   6.863   9.386  10.606 -0.1759  0.0693  0.0311
  348POPI   GL1 5539   7.013   9.418  10.176  0.0181 -0.0478 -0.1111
  348POPI   GL2 5540   6.975   9.797  10.154  0.1235  0.0435 -0.1597
  348POPI   C1A 5541   7.011   9.233   9.755 -0.0973 -0.3221  0.3679
  348POPI   D2A 5542   7.039   9.254   9.324  0.0591 -0.0181 -0.2968
  348POPI   C3A 5543   7.059   9.242   8.965 -0.0553  0.3679  0.1734
  348POPI   C4A 5544   6.960   9.433   8.486 -0.1848  0.2915  0.0635
  348POPI   C1B 5545   6.984   9.700   9.749 -0.0416 -0.1289 -0.1251
  348POPI   C2B 5546   7.062   9.760   9.313  0.0232  0.0156 -0.0819
  348POPI   C3B 5547   7.095   9.770   8.991 -0.0090  0.1099 -0.0541
  348POPI   C4B 5548   7.002   9.924   8.526 -0.3192 -0.0545 -0.0007
  349POPI    C1 5549  16.041  16.556  10.954 -0.0067 -0.1431 -0.0066
  349POPI    C2 5550  15.710  16.374  10.824  0.0410 -0.2509  0.0212
  349POPI    C3 5551  15.686  16.650  11.112 -0.0588 -0.0509 -0.1758
  349POPI   PO4 5552  16.120  16.663  10.785  0.0305 -0.0695  0.1716
  349POPI   GL1 5553  16.253  16.966  10.483  0.1205 -0.0877 -0.0296
  349POPI   GL2 5554  16.555  16.803  10.407 -0.4952  0.1870  0.1127
  349POPI   C1A 5555  16.227  17.075  10.017  0.0037 -0.0705 -0.0386
  349POPI   D2A 5556  16.196  17.116   9.692  0.3749  0.1406  0.3138
  349POPI   C3A 5557  16.461  17.414   9.494  0.0060  0.0431 -0.1596
  349POPI   C4A 5558  16.446  17.669   9.230 -0.0553 -0.0293 -0.1722
  349POPI   C1B 5559  16.704  16.895   9.986 -0.0388  0.0290  0.1258
  349POPI   C2B 5560  16.645  16.944   9.616 -0.1455 -0.1005 -0.2428
  349POPI   C3B 5561  16.385  17.014   9.197 -0.0733  0.0126  0.3720
  349POPI   C4B 5562  16.550  17.230   8.819 -0.0787 -0.1186  0.0113
  350POPI    C1 5563   5.710   3.390  10.195  0.2572 -0.2378  0.0260
  350POPI    C2 5564   5.779   3.469  10.581  0.1476  0.1174 -0.0240
  350POPI    C3 5565   5.408   3.497  10.434  0.2221  0.1928 -0.2014
  350POPI   PO4 5566   5.896   3.168  10.178 -0.0534 -0.2309 -0.0889
  350POPI   GL1 5567   6.054   3.054   9.782 -0.1903  0.0353  0.2543
  350POPI   GL2 5568   6.176   3.303   9.818 -0.1266 -0.1579  0.0976
  350POPI   C1A 5569   5.818   3.187   9.432 -0.2885 -0.0903 -0.0059
  350POPI   D2A 5570   5.862   3.198   8.985  0.0860 -0.0148  0.1919
  350POPI   C3A 5571   5.982   3.119   8.580  0.0872  0.3251  0.3802
  350POPI   C4A 5572   6.207   3.345   8.354 -0.1316  0.0100  0.4970
  350POPI   C1B 5573   6.210   3.517   9.406 -0.0528 -0.4690  0.0406
  350POPI   C2B 5574   6.195   3.634   9.006  0.1713  0.3957  0.3237
  350POPI   C3B 5575   6.016   3.677   8.648  0.0296 -0.0836 -0.2607
  350POPI   C4B 5576   5.790   3.631   8.238  0.2701  0.1926 -0.3209
  351POPI    C1 5577  15.678  15.833  11.075  0.0644 -0.3163 -0.0052
  351POPI    C2 5578  16.031  15.933  10.914 -0.0619  0.0465 -0.0647
  351POPI    C3 5579  15.895  16.129  11.236 -0.1595 -0.1665  0.0255
  351POPI   PO4 5580  15.541  15.800  10.780  0.2774  0.2601  0.0613
  351POPI   GL1 5581  15.611  15.899  10.332 -0.0100  0.1186 -0.1132
  351POPI   GL2 5582  15.869  16.092  10.431  0.1290 -0.0359  0.0011
  351POPI   C1A 5583  15.641  15.899   9.906 -0.1605 -0.1378  0.1145
  351POPI   D2A 5584  15.854  15.795   9.601  0.1424  0.2437  0.0790
  351POPI   C3A 5585  15.924  15.633   9.186 -0.3710 -0.0739 -0.2191
  351POPI   C4A 5586  15.768  15.611   8.762 -0.1286 -0.1450  0.1118
  351POPI   C1B 5587  16.117  16.072   9.936 -0.0747 -0.2883 -0.1521
  351POPI   C2B 5588  16.281  16.001   9.507 -0.1845  0.0706  0.1090
  351POPI   C3B 5589  16.382  15.748   9.091  0.3556 -0.4058  0.0613
  351POPI   C4B 5590  16.596  15.809   8.655 -0.0451 -0.1366 -0.1899
  352POPI    C1 5591   4.853   5.905  10.816 -0.0213  0.2483 -0.1638
  352POPI    C2 5592   4.540   5.819  10.581 -0.0514 -0.1740  0.0218
  352POPI    C3 5593   4.480   5.945  10.956 -0.0017 -0.3601  0.0935
  352POPI   PO4 5594   5.033   6.043  10.583  0.0215 -0.0396  0.1737
  352POPI   GL1 5595   4.993   6.177  10.149 -0.2343  0.2061  0.1430
  352POPI   GL2 5596   5.314   6.118  10.180  0.0200  0.1166 -0.2045
  352POPI   C1A 5597   5.155   6.104   9.695  0.6483 -0.0556 -0.1362
  352POPI   D2A 5598   5.230   6.171   9.198  0.1844  0.1358  0.0061
  352POPI   C3A 5599   5.100   6.126   8.880 -0.0073  0.0811 -0.1912
  352POPI   C4A 5600   5.028   5.982   8.448 -0.1181 -0.0533 -0.3477
  352POPI   C1B 5601   5.375   5.756   9.935  0.2593 -0.3995 -0.0966
  352POPI   C2B 5602   5.396   5.770   9.408 -0.1842 -0.1472  0.1113
  352POPI   C3B 5603   5.411   5.695   8.987  0.0022  0.0615  0.0712
  352POPI   C4B 5604   5.518   5.942   8.727  0.1387 -0.1231 -0.2936
  353POPI    C1 5605  13.619   7.728  10.593  0.2282 -0.0830 -0.0131
  353POPI    C2 5606  13.460   7.738  10.960  0.1315  0.0195 -0.0573
  353POPI    C3 5607  13.639   7.405  10.829  0.1785 -0.0130  0.0876
  353POPI   PO4 5608  13.384   7.921  10.493  0.1260 -0.1736 -0.1980
  353POPI   GL1 5609  13.282   8.222  10.123  0.0468  0.2301  0.2280
  353POPI   GL2 5610  13.223   7.960  10.011  0.2020 -0.3291  0.1155
  353POPI   C1A 5611  13.362   8.290   9.678 -0.1966  0.0034 -0.1454
  353POPI   D2A 5612  13.442   8.413   9.202  0.2153 -0.1768 -0.1452
  353POPI   C3A 5613  13.571   8.371   8.719 -0.0682 -0.1782 -0.0276
  353POPI   C4A 5614  13.765   8.308   8.315 -0.4851 -0.0367  0.0638
  353POPI   C1B 5615  13.144   7.845   9.562 -0.4446  0.1766  0.1895
  353POPI   C2B 5616  13.170   7.535   9.325 -0.1318 -0.2273 -0.2014
  353POPI   C3B 5617  13.174   7.189   9.002 -0.1046 -0.1089  0.2553
  353POPI   C4B 5618  13.041   7.071   8.640 -0.2440 -0.1469 -0.1929
  354POPI    C1 5619   8.163   9.505  10.997  0.0074  0.2732 -0.0101
  354POPI    C2 5620   8.518   9.639  11.122  0.1411 -0.0182 -0.0676
  354POPI    C3 5621   8.256   9.492  11.386 -0.0606  0.4668  0.0137
  354POPI   PO4 5622   8.249   9.414  10.694  0.2286 -0.3157 -0.3255
  354POPI   GL1 5623   8.264   9.549  10.303  0.0321 -0.0944  0.5997
  354POPI   GL2 5624   8.293   9.742  10.269 -0.1076  0.0835 -0.1897
  354POPI   C1A 5625   8.457   9.369   9.943  0.0347  0.0043  0.1156
  354POPI   D2A 5626   8.427   9.247   9.607  0.0911  0.1707  0.1282
  354POPI   C3A 5627   8.499   9.505   9.271 -0.1873  0.1386  0.0066
  354POPI   C4A 5628   8.404   9.576   8.848 -0.1105 -0.2143 -0.1185
  354POPI   C1B 5629   8.358  10.031   9.889 -0.1395  0.2299 -0.2988
  354POPI   C2B 5630   8.421  10.067   9.479 -0.1630 -0.0160  0.0328
  354POPI   C3B 5631   8.417  10.078   9.093 -0.2003  0.0645 -0.0194
  354POPI   C4B 5632   8.477  10.194   8.616  0.2892 -0.0370  0.3045
  355POPI    C1 5633   6.762   3.892  10.176 -0.0812 -0.0777  0.1474
  355POPI    C2 5634   6.385   4.024  10.193 -0.1036 -0.1263  0.0382
  355POPI    C3 5635   6.581   3.934  10.530 -0.1595 -0.0177  0.1005
  355POPI   PO4 5636   6.987   4.029   9.983  0.1964 -0.1717 -0.0836
  355POPI   GL1 5637   7.034   4.295   9.638  0.1065  0.1674  0.0459
  355POPI   GL2 5638   7.369   4.237   9.562 -0.1602 -0.1742  0.1141
  355POPI   C1A 5639   6.963   4.176   9.269  0.0188 -0.0309  0.0055
  355POPI   D2A 5640   6.723   3.934   8.951  0.3112 -0.1843  0.0692
  355POPI   C3A 5641   6.525   3.911   8.490  0.0491 -0.1564  0.2255
  355POPI   C4A 5642   6.457   3.891   8.116  0.1316 -0.1968  0.2402
  355POPI   C1B 5643   7.543   4.185   9.151 -0.0788 -0.1644  0.1941
  355POPI   C2B 5644   7.658   4.192   8.699  0.0546 -0.1048  0.0080
  355POPI   C3B 5645   7.694   4.444   8.364  0.0147 -0.0645  0.0723
  355POPI   C4B 5646   7.623   4.556   7.932 -0.1526  0.0352  0.0723
  356POPI    C1 5647   3.951   2.060  10.705  0.0433 -0.1051 -0.2198
  356POPI    C2 5648   4.103   2.311  10.977 -0.3691  0.1380 -0.2049
  356POPI    C3 5649   4.026   1.931  11.077  0.2756 -0.0122 -0.2326
  356POPI   PO4 5650   4.055   2.078  10.513 -0.1557  0.0732  0.1084
  356POPI   GL1 5651   4.123   2.205  10.219 -0.1185  0.1948  0.6016
  356POPI   GL2 5652   4.208   2.438  10.071 -0.0561 -0.1204  0.0648
  356POPI   C1A 5653   4.165   1.960   9.772 -0.1041 -0.1315  0.0255
  356POPI   D2A 5654   4.198   1.839   9.306  0.0013  0.2496  0.1932
  356POPI   C3A 5655   4.136   1.866   8.803 -0.2443  0.0654 -0.3183
  356POPI   C4A 5656   4.217   1.943   8.387 -0.0195  0.0028  0.1966
  356POPI   C1B 5657   4.138   2.571   9.737  0.1512  0.3227 -0.2483
  356POPI   C2B 5658   4.167   2.542   9.257  0.0235  0.0651  0.0030
  356POPI   C3B 5659   4.121   2.490   8.882  0.4585 -0.0724  0.2428
  356POPI   C4B 5660   4.127   2.368   8.541  0.4399 -0.0638 -0.1614
  357POPI    C1 5661  17.475   6.715  10.542  0.1428 -0.0812  0.0462
  357POPI    C2 5662  17.146   6.511  10.643  0.0155  0.1460  0.0994
  357POPI    C3 5663  17.494   6.432  10.823 -0.1020  0.1988  0.3536
  357POPI   PO4 5664  17.382   6.804  10.279 -0.1066  0.2945  0.0488
  357POPI   GL1 5665  17.536   7.050   9.948  0.3774  0.1004  0.1270
  357POPI   GL2 5666  17.216   7.161   9.853  0.2214 -0.0062  0.1666
  357POPI   C1A 5667  17.741   6.827   9.579 -0.2540 -0.0896 -0.1275
  357POPI   D2A 5668  17.874   6.705   9.256 -0.0213  0.1946 -0.2812
  357POPI   C3A 5669  17.755   6.884   8.810 -0.0239  0.1079  0.0622
  357POPI   C4A 5670  17.730   6.930   8.403 -0.2243  0.1848 -0.1926
  357POPI   C1B 5671  17.401   7.082   9.390  0.5096 -0.3578 -0.1146
  357POPI   C2B 5672  17.355   7.162   8.984  0.1834  0.0228  0.2561
  357POPI   C3B 5673  17.421   7.206   8.650  0.0256 -0.0562  0.3186
  357POPI   C4B 5674  17.291   7.077   8.238  0.1854  0.0391 -0.0976
  358POPI    C1 5675  11.772   5.056  10.535 -0.0287  0.1972 -0.0514
  358POPI    C2 5676  11.507   5.282  10.731 -0.1959  0.1099 -0.1748
  358POPI    C3 5677  11.383   4.966  10.519  0.0233 -0.0235 -0.1070
  358POPI   PO4 5678  12.034   5.263  10.537 -0.2032 -0.2309  0.1228
  358POPI   GL1 5679  12.146   5.306  10.184 -0.0952 -0.1068 -0.2377
  358POPI   GL2 5680  12.331   5.422  10.010 -0.0964 -0.1130 -0.1094
  358POPI   C1A 5681  11.949   5.583   9.790  0.1503  0.0898 -0.1824
  358POPI   D2A 5682  11.959   5.771   9.498 -0.0519  0.2976  0.0450
  358POPI   C3A 5683  12.132   6.112   9.275 -0.2347  0.1368  0.1029
  358POPI   C4A 5684  12.299   6.473   9.304 -0.0076  0.0327  0.1169
  358POPI   C1B 5685  12.402   5.606   9.571  0.3994 -0.1210 -0.0423
  358POPI   C2B 5686  12.322   5.650   9.169 -0.0341  0.0357 -0.0706
  358POPI   C3B 5687  12.544   5.486   8.775 -0.0259 -0.0468  0.1364
  358POPI   C4B 5688  12.697   5.610   8.382  0.0436 -0.1229  0.2730
  359POPI    C1 5689  14.614   9.073  10.504  0.2042 -0.0950 -0.1326
  359POPI    C2 5690  14.408   9.326  10.735 -0.0504 -0.2340 -0.2041
  359POPI    C3 5691  14.798   9.268  10.801 -0.0334  0.0263 -0.0629
  359POPI   PO4 5692  14.426   8.904  10.360 -0.1194  0.0335 -0.0371
  359POPI   GL1 5693  14.438   8.656  10.168 -0.0063 -0.0689 -0.1399
  359POPI   GL2 5694  14.782   8.673  10.128  0.0191 -0.2436  0.0599
  359POPI   C1A 5695  14.282   8.492   9.848 -0.1111 -0.0236  0.2930
  359POPI   D2A 5696  14.406   8.489   9.379 -0.1099  0.1237 -0.0737
  359POPI   C3A 5697  14.366   8.390   8.946 -0.0165 -0.1089 -0.2671
  359POPI   C4A 5698  14.061   8.589   8.715 -0.0814  0.0096 -0.1798
  359POPI   C1B 5699  14.727   8.793   9.666 -0.2549 -0.1529  0.4122
  359POPI   C2B 5700  14.832   8.691   9.296  0.1500  0.0606  0.1284
  359POPI   C3B 5701  14.844   8.619   8.842 -0.2189 -0.2857 -0.1621
  359POPI   C4B 5702  14.798   8.556   8.434  0.1547  0.1549  0.0813
  360POPI    C1 5703  16.453   8.013  11.116  0.2514 -0.0253  0.0319
  360POPI    C2 5704  16.796   8.214  11.159  0.1700  0.0714  0.2463
  360POPI    C3 5705  16.734   7.878  11.366  0.1019  0.0986  0.2703
  360POPI   PO4 5706  16.402   8.089  10.811 -0.0215  0.1655  0.1679
  360POPI   GL1 5707  16.498   8.157  10.323  0.0398  0.0589 -0.0905
  360POPI   GL2 5708  16.478   7.858  10.200 -0.0637 -0.1399  0.1318
  360POPI   C1A 5709  16.533   8.427   9.987 -0.3303  0.0783  0.0480
  360POPI   D2A 5710  16.269   8.788   9.860  0.0914  0.0732  0.1332
  360POPI   C3A 5711  16.404   8.763   9.310  0.1408 -0.1973 -0.2016
  360POPI   C4A 5712  16.462   8.908   8.885  0.0120 -0.0679  0.1809
  360POPI   C1B 5713  16.420   7.840   9.683  0.0838  0.0469  0.0629
  360POPI   C2B 5714  16.602   7.842   9.335 -0.3772  0.0253  0.0528
  360POPI   C3B 5715  16.417   7.986   8.992 -0.0205  0.2352  0.3098
  360POPI   C4B 5716  16.117   8.062   8.634 -0.0592 -0.2055 -0.1380
  361POPI    C1 5717   9.575  17.379  10.623 -0.0848 -0.1660  0.0531
  361POPI    C2 5718   9.670  17.757  10.532 -0.1532 -0.0876  0.2994
  361POPI    C3 5719   9.920  17.535  10.751  0.0067 -0.2719 -0.0608
  361POPI   PO4 5720   9.493  17.327  10.386 -0.0931  0.0013  0.1380
  361POPI   GL1 5721   9.596  17.048  10.140  0.3148  0.2895 -0.1550
  361POPI   GL2 5722   9.656  17.270   9.876 -0.2093  0.2036 -0.0135
  361POPI   C1A 5723   9.495  16.784   9.798  0.2506 -0.1245 -0.1810
  361POPI   D2A 5724   9.515  16.678   9.442  0.0020  0.0537  0.0327
  361POPI   C3A 5725   9.622  16.635   9.052  0.1726 -0.1899 -0.3276
  361POPI   C4A 5726   9.620  16.671   8.594 -0.0381 -0.0412  0.2496
  361POPI   C1B 5727   9.384  17.356   9.631 -0.0966 -0.1319  0.0830
  361POPI   C2B 5728   9.477  17.161   9.321  0.2356 -0.3037  0.1533
  361POPI   C3B 5729   9.542  17.089   8.867  0.1595 -0.3075  0.2059
  361POPI   C4B 5730   9.672  17.163   8.525 -0.1771 -0.0110 -0.0909
  362POPI    C1 5731  14.940  13.415  10.730 -0.1893  0.1571  0.0193
  362POPI    C2 5732  14.909  13.701  10.452  0.1656  0.0330 -0.1541
  362POPI    C3 5733  14.943  13.800  10.839 -0.0633  0.2132 -0.1779
  362POPI   PO4 5734  15.060  13.235  10.599 -0.2648  0.0441  0.0278
  362POPI   GL1 5735  15.175  12.922  10.323 -0.2301  0.3554  0.0285
  362POPI   GL2 5736  15.206  12.557  10.371 -0.0886  0.1863 -0.0829
  362POPI   C1A 5737  15.152  12.696   9.922  0.0542 -0.0172 -0.2551
  362POPI   D2A 5738  15.245  12.853   9.516 -0.0723  0.2354 -0.0583
  362POPI   C3A 5739  15.009  12.866   9.199 -0.1068 -0.2178 -0.1150
  362POPI   C4A 5740  14.762  12.834   8.934 -0.0228  0.0697 -0.1676
  362POPI   C1B 5741  15.556  12.367  10.110 -0.1000 -0.1174 -0.0311
  362POPI   C2B 5742  15.662  11.983   9.866  0.3149 -0.3718 -0.0625
  362POPI   C3B 5743  15.765  11.945   9.458  0.1225 -0.2349 -0.0094
  362POPI   C4B 5744  15.958  11.847   9.041  0.3142 -0.0848 -0.2704
  363POPI    C1 5745   0.827   0.606  11.136 -0.0237  0.0114  0.1102
  363POPI    C2 5746   1.216   0.581  11.224  0.0247  0.0305 -0.0933
  363POPI    C3 5747   0.955   0.699  11.503  0.1860  0.1790 -0.0031
  363POPI   PO4 5748   0.791   0.770  10.913 -0.0752 -0.2971 -0.3203
  363POPI   GL1 5749   0.700   0.619  10.528 -0.3100 -0.0903 -0.1050
  363POPI   GL2 5750   0.535   0.362  10.666 -0.0573 -0.0065  0.1273
  363POPI   C1A 5751   0.986   0.635  10.177 -0.1534  0.0126 -0.4115
  363POPI   D2A 5752   1.125   0.644   9.749  0.2718 -0.1573 -0.0589
  363POPI   C3A 5753   0.959   0.646   9.317 -0.1514 -0.0383  0.1799
  363POPI   C4A 5754   0.791   0.434   8.898 -0.0704  0.0866 -0.0357
  363POPI   C1B 5755   0.711   0.168  10.240  0.1093  0.3155 -0.0221
  363POPI   C2B 5756   0.811   0.197   9.898 -0.1818  0.1768  0.0122
  363POPI   C3B 5757   0.977   0.169   9.477 -0.1019 -0.0085 -0.0682
  363POPI   C4B 5758   1.023   0.051   9.092 -0.2358  0.2263  0.2804
  364POPI    C1 5759   7.167   5.411  10.678  0.1431 -0.0961  0.2596
  364POPI    C2 5760   7.540   5.266  10.678  0.1218 -0.1585 -0.0870
  364POPI    C3 5761   7.457   5.605  10.874  0.2706 -0.3614  0.3380
  364POPI   PO4 5762   7.045   5.299  10.494  0.1450  0.0186 -0.0566
  364POPI   GL1 5763   6.840   5.410  10.168 -0.1641 -0.0698  0.1294
  364POPI   GL2 5764   7.061   5.617   9.949 -0.1059 -0.1055 -0.1063
  364POPI   C1A 5765   6.551   5.592   9.886  0.0763  0.2327 -0.0478
  364POPI   D2A 5766   6.496   5.589   9.497 -0.2739 -0.2357 -0.3142
  364POPI   C3A 5767   6.429   5.757   9.097  0.4935  0.2705 -0.4020
  364POPI   C4A 5768   6.313   5.732   8.713 -0.1539  0.1369  0.0659
  364POPI   C1B 5769   7.042   5.608   9.516  0.3685  0.2506 -0.0175
  364POPI   C2B 5770   6.859   5.547   9.088  0.0143 -0.3244  0.1340
  364POPI   C3B 5771   6.953   5.339   8.707 -0.1555 -0.3221  0.1063
  364POPI   C4B 5772   7.330   5.357   8.462 -0.0047  0.0304 -0.0503
  365POPI    C1 5773  16.203  16.943  11.210  0.1201  0.0423 -0.1511
  365POPI    C2 5774  16.505  16.774  11.411 -0.0804 -0.0506  0.0784
  365POPI    C3 5775  16.189  16.918  11.609 -0.1206  0.1814 -0.1487
  365POPI   PO4 5776  16.427  17.089  10.987  0.1354 -0.1561 -0.0031
  365POPI   GL1 5777  16.809  17.183  10.684  0.0683 -0.0589 -0.1354
  365POPI   GL2 5778  17.079  17.111  10.703  0.1953  0.1110 -0.0400
  365POPI   C1A 5779  16.826  17.425  10.293 -0.3456  0.1023 -0.0551
  365POPI   D2A 5780  16.706  17.365   9.913 -0.1595 -0.1279 -0.0849
  365POPI   C3A 5781  16.912  17.503   9.625 -0.1040  0.0901  0.1345
  365POPI   C4A 5782  16.845  17.425   9.158 -0.1798 -0.0360  0.1072
  365POPI   C1B 5783  17.105  16.993  10.261 -0.0392  0.0740  0.0327
  365POPI   C2B 5784  17.156  17.036   9.823 -0.1791 -0.0563 -0.1168
  365POPI   C3B 5785  17.022  16.964   9.370  0.1625  0.0855  0.0370
  365POPI   C4B 5786  17.012  16.945   8.897  0.1553  0.2187  0.3035
  366POPI    C1 5787  15.777   6.092  10.681 -0.2212 -0.0127 -0.0323
  366POPI    C2 5788  16.133   6.258  10.607 -0.2161 -0.1221 -0.2635
  366POPI    C3 5789  16.106   5.943  10.853 -0.1575 -0.0963 -0.2239
  366POPI   PO4 5790  15.686   6.142  10.463 -0.0712 -0.1598  0.0075
  366POPI   GL1 5791  15.578   5.928  10.117 -0.0143 -0.0210  0.2907
  366POPI   GL2 5792  15.227   6.144  10.147  0.0349 -0.2792  0.1292
  366POPI   C1A 5793  15.513   6.452   9.832  0.1052  0.0120 -0.1883
  366POPI   D2A 5794  15.553   6.768   9.690 -0.1570 -0.0129  0.2237
  366POPI   C3A 5795  15.433   6.768   9.309  0.1375  0.0064  0.0833
  366POPI   C4A 5796  15.428   6.881   8.854  0.1260  0.1595  0.2107
  366POPI   C1B 5797  15.221   6.034   9.678 -0.4048  0.1398 -0.1532
  366POPI   C2B 5798  15.061   6.011   9.282  0.1953  0.1557 -0.1699
  366POPI   C3B 5799  15.037   6.013   8.804  0.2736 -0.0358 -0.4251
  366POPI   C4B 5800  14.987   5.838   8.405 -0.3450  0.1574 -0.0995
  367POPI    C1 5801  15.488   1.268  10.961 -0.0596 -0.1424  0.0592
  367POPI    C2 5802  15.710   1.584  11.067  0.0372 -0.1774 -0.0377
  367POPI    C3 5803  15.752   1.236  11.261 -0.1344 -0.1065  0.1291
  367POPI   PO4 5804  15.505   1.240  10.680  0.5165 -0.2058  0.2587
  367POPI   GL1 5805  15.537   1.158  10.293  0.2660 -0.1036  0.0591
  367POPI   GL2 5806  15.782   0.991  10.116 -0.1188  0.2891  0.0895
  367POPI   C1A 5807  15.579   1.350   9.904  0.0884  0.0076 -0.1759
  367POPI   D2A 5808  15.608   1.647   9.540  0.0169  0.0507  0.2884
  367POPI   C3A 5809  15.583   1.667   9.035  0.0138  0.0464  0.1222
  367POPI   C4A 5810  15.831   1.688   8.682  0.0391 -0.0624  0.2333
  367POPI   C1B 5811  16.080   0.777   9.986  0.3720 -0.0754  0.0166
  367POPI   C2B 5812  16.312   0.833   9.691 -0.1290 -0.0305 -0.0567
  367POPI   C3B 5813  16.281   0.842   9.230 -0.2150 -0.0276 -0.3787
  367POPI   C4B 5814  16.348   1.043   8.867 -0.1501  0.0057 -0.1092
  368POPI    C1 5815   6.550   3.348  10.462 -0.0833 -0.0357 -0.1196
  368POPI    C2 5816   6.222   3.157  10.589  0.1247 -0.2204  0.1505
  368POPI    C3 5817   6.305   3.525  10.723 -0.0983 -0.0721 -0.1091
  368POPI   PO4 5818   6.560   3.336  10.136 -0.1062  0.0033 -0.1557
  368POPI   GL1 5819   6.482   3.721   9.765  0.1293 -0.1954  0.2354
  368POPI   GL2 5820   6.718   3.540   9.588 -0.1336 -0.2316  0.0595
  368POPI   C1A 5821   6.475   4.069   9.495  0.0176 -0.2542 -0.2125
  368POPI   D2A 5822   6.180   4.160   9.173  0.3542  0.1756  0.2933
  368POPI   C3A 5823   6.053   4.182   8.793  0.2933  0.0052 -0.0492
  368POPI   C4A 5824   5.645   4.325   8.589 -0.2056  0.1307  0.0932
  368POPI   C1B 5825   6.710   3.487   9.190 -0.2210  0.0567 -0.1561
  368POPI   C2B 5826   6.524   3.459   8.745 -0.0129  0.0552  0.3202
  368POPI   C3B 5827   6.673   3.499   8.278  0.0152 -0.0351  0.0545
  368POPI   C4B 5828   6.746   3.637   7.786  0.0517 -0.1071  0.1925
  369POPI    C1 5829   2.674   4.659  10.526 -0.0292  0.1055 -0.0952
  369POPI    C2 5830   2.517   4.696  10.892 -0.3620 -0.0574 -0.2172
  369POPI    C3 5831   2.406   4.947  10.601 -0.1259  0.0486 -0.2184
  369POPI   PO4 5832   3.021   4.637  10.568  0.1870  0.0439  0.2636
  369POPI   GL1 5833   3.314   4.664  10.183 -0.0560  0.1876 -0.1410
  369POPI   GL2 5834   3.540   4.849  10.228 -0.0873 -0.1583 -0.0048
  369POPI   C1A 5835   3.291   4.643   9.750 -0.0144  0.0376  0.0808
  369POPI   D2A 5836   3.220   4.702   9.329 -0.2002 -0.0511 -0.2000
  369POPI   C3A 5837   3.164   4.588   8.897  0.1633 -0.0032 -0.1693
  369POPI   C4A 5838   3.178   4.506   8.478 -0.1472 -0.2332 -0.0063
  369POPI   C1B 5839   3.793   4.826   9.846  0.1770  0.2323 -0.2886
  369POPI   C2B 5840   3.681   4.862   9.420 -0.0959  0.0597  0.0965
  369POPI   C3B 5841   3.666   4.781   8.999  0.1521 -0.0837 -0.1594
  369POPI   C4B 5842   3.595   4.790   8.525  0.2382  0.0952 -0.0369
  370POPI    C1 5843  10.965   7.249  10.767  0.0234  0.0191  0.0146
  370POPI    C2 5844  10.970   6.995  11.076  0.2422  0.1080  0.0863
  370POPI    C3 5845  11.227   6.946  10.774  0.0742  0.0614 -0.0508
  370POPI   PO4 5846  10.796   7.290  10.656 -0.0720 -0.5267  0.0025
  370POPI   GL1 5847  10.723   7.101  10.238  0.3971 -0.0393 -0.1068
  370POPI   GL2 5848  11.001   6.977  10.319 -0.2335  0.2700  0.1041
  370POPI   C1A 5849  10.687   7.240   9.833 -0.2063 -0.2692  0.3312
  370POPI   D2A 5850  10.742   7.253   9.419 -0.0854  0.1100 -0.2586
  370POPI   C3A 5851  10.727   7.544   9.210  0.0384 -0.1174 -0.0669
  370POPI   C4A 5852  10.840   7.893   9.091  0.2014  0.1799 -0.0228
  370POPI   C1B 5853  11.139   7.132   9.925  0.1837  0.0600 -0.0362
  370POPI   C2B 5854  11.202   7.121   9.474  0.0034  0.2501 -0.1998
  370POPI   C3B 5855  11.387   7.083   8.994 -0.3263  0.2108 -0.1360
  370POPI   C4B 5856  11.510   6.754   8.706  0.2974 -0.5291  0.0365
  371POPI    C1 5857   4.966   3.823  10.661  0.0918 -0.0328 -0.0656
  371POPI    C2 5858   5.018   3.447  10.788 -0.3413 -0.0666  0.0265
  371POPI    C3 5859   5.269   3.735  10.908  0.0287 -0.3323 -0.0911
  371POPI   PO4 5860   4.889   3.740  10.410  0.1366 -0.1204 -0.0422
  371POPI   GL1 5861   4.871   3.914   9.998  0.0805 -0.1035 -0.2431
  371POPI   GL2 5862   4.570   3.980   9.934 -0.1074  0.1715  0.1225
  371POPI   C1A 5863   4.992   3.704   9.640 -0.2280  0.0825  0.0590
  371POPI   D2A 5864   5.320   3.377   9.522 -0.0158  0.3450  0.1907
  371POPI   C3A 5865   5.370   3.328   9.046  0.2530 -0.2849  0.2388
  371POPI   C4A 5866   5.508   3.344   8.577  0.3163 -0.2200 -0.1078
  371POPI   C1B 5867   4.559   3.953   9.579 -0.2773 -0.0958  0.1903
  371POPI   C2B 5868   4.469   3.934   9.211 -0.0872 -0.0441  0.0552
  371POPI   C3B 5869   4.449   3.915   8.775  0.2328  0.2283  0.0406
  371POPI   C4B 5870   4.739   3.848   8.482 -0.0962 -0.1639  0.0579
  372POPI    C1 5871  16.228  12.144  10.818 -0.1446 -0.0187 -0.1412
  372POPI    C2 5872  16.218  11.834  10.565  0.0037  0.0197 -0.1952
  372POPI    C3 5873  16.003  11.824  10.902 -0.0781 -0.0951 -0.2499
  372POPI   PO4 5874  16.202  12.358  10.641 -0.1177  0.1063 -0.1180
  372POPI   GL1 5875  16.065  12.523  10.157  0.1854  0.1398  0.0543
  372POPI   GL2 5876  16.381  12.330  10.131 -0.3164  0.0437  0.1219
  372POPI   C1A 5877  15.884  12.395   9.736  0.0039 -0.2677  0.0016
  372POPI   D2A 5878  15.501  12.429   9.466 -0.1975  0.1078  0.1519
  372POPI   C3A 5879  15.414  12.600   9.144 -0.1654 -0.1432  0.3348
  372POPI   C4A 5880  15.297  12.824   8.728 -0.1575 -0.2674  0.1377
  372POPI   C1B 5881  16.342  12.572   9.712  0.0709  0.0773 -0.0460
  372POPI   C2B 5882  16.485  12.699   9.322  0.1110 -0.1389  0.1517
  372POPI   C3B 5883  16.407  12.448   9.014 -0.0786  0.2941 -0.0524
  372POPI   C4B 5884  16.039  12.261   8.774  0.0761  0.0379 -0.1552
  373POPI    C1 5885   5.873   4.297  10.454 -0.0276  0.1249 -0.1973
  373POPI    C2 5886   6.011   3.951  10.600 -0.1798  0.0709 -0.1804
  373POPI    C3 5887   5.634   4.064  10.674 -0.0587  0.3563  0.0195
  373POPI   PO4 5888   5.934   4.339  10.224  0.0699 -0.0855  0.5012
  373POPI   GL1 5889   5.640   4.368   9.907  0.1876 -0.2169  0.2540
  373POPI   GL2 5890   5.442   4.150   9.813  0.1840 -0.2994 -0.0330
  373POPI   C1A 5891   5.765   4.355   9.503  0.4260 -0.2642 -0.1168
  373POPI   D2A 5892   5.670   4.465   9.118  0.0597  0.1789 -0.0978
  373POPI   C3A 5893   5.301   4.280   8.968 -0.1422 -0.0277 -0.3208
  373POPI   C4A 5894   5.133   4.105   8.677  0.1857 -0.1341  0.0042
  373POPI   C1B 5895   5.227   4.100   9.463 -0.4438 -0.2987 -0.0382
  373POPI   C2B 5896   5.015   3.797   9.158  0.0297 -0.0456  0.1138
  373POPI   C3B 5897   5.069   3.574   8.691  0.1354  0.2749 -0.0953
  373POPI   C4B 5898   5.186   3.460   8.223 -0.1002 -0.0020 -0.0504
  374POPI    C1 5899  12.461  11.895  10.739 -0.2458  0.0601  0.0920
  374POPI    C2 5900  12.693  11.812  11.054  0.1530  0.0570 -0.1943
  374POPI    C3 5901  12.393  12.075  11.090  0.0595 -0.0996  0.2368
  374POPI   PO4 5902  12.630  11.942  10.466  0.1187  0.1140  0.0013
  374POPI   GL1 5903  12.556  11.983  10.041  0.0263  0.0689  0.0115
  374POPI   GL2 5904  12.684  12.313  10.061 -0.0728  0.0856  0.0847
  374POPI   C1A 5905  12.713  12.132   9.605  0.3089 -0.2030 -0.1584
  374POPI   D2A 5906  12.855  12.155   9.149 -0.1501 -0.1320 -0.2339
  374POPI   C3A 5907  12.668  12.120   8.761 -0.1842  0.2311  0.1680
  374POPI   C4A 5908  12.471  12.035   8.248 -0.2356  0.1276  0.0711
  374POPI   C1B 5909  12.274  12.371   9.831  0.1208  0.3448 -0.0409
  374POPI   C2B 5910  12.303  12.352   9.406  0.1162  0.1663  0.2975
  374POPI   C3B 5911  12.010  12.290   9.085 -0.3499 -0.0677  0.2157
  374POPI   C4B 5912  11.565  12.149   8.973  0.1057 -0.1718  0.0537
  375POPI    C1 5913  12.046   8.565  11.173  0.1206 -0.0492 -0.0365
  375POPI    C2 5914  11.813   8.243  11.221  0.2052 -0.1581 -0.3316
  375POPI    C3 5915  12.173   8.258  11.395 -0.0859  0.0903  0.2828
  375POPI   PO4 5916  12.091   8.605  10.905 -0.1048 -0.0446  0.1664
  375POPI   GL1 5917  11.982   8.498  10.466 -0.0788  0.0575 -0.0821
  375POPI   GL2 5918  12.101   8.801  10.395  0.2988  0.1890 -0.2148
  375POPI   C1A 5919  11.928   8.256  10.110  0.1830 -0.2079 -0.0950
  375POPI   D2A 5920  11.830   8.168   9.660  0.2760  0.0901 -0.0437
  375POPI   C3A 5921  11.761   8.288   9.205 -0.1112 -0.1694  0.1067
  375POPI   C4A 5922  11.892   8.052   8.768  0.1654 -0.2626  0.0745
  375POPI   C1B 5923  12.139   8.881  10.084 -0.0489  0.1767 -0.1590
  375POPI   C2B 5924  12.184   9.043   9.693  0.3179  0.1261  0.1307
  375POPI   C3B 5925  12.193   9.114   9.320  0.3503  0.0282 -0.0487
  375POPI   C4B 5926  12.115   9.435   9.031 -0.1697 -0.0019  0.0470
  376POPI    C1 5927  15.264   0.810  10.552  0.0143 -0.0790 -0.0175
  376POPI    C2 5928  15.441   0.726  10.901  0.1460  0.0618 -0.0495
  376POPI    C3 5929  15.097   0.930  10.896  0.1099  0.0024  0.0009
  376POPI   PO4 5930  15.359   0.638  10.405  0.1331 -0.3117 -0.0047
  376POPI   GL1 5931  15.457   0.594  10.120  0.0092  0.3871  0.0137
  376POPI   GL2 5932  15.316   0.364   9.987  0.0223  0.1491 -0.2196
  376POPI   C1A 5933  15.585   0.764   9.730 -0.0877 -0.0455 -0.2308
  376POPI   D2A 5934  15.718   0.683   9.317  0.0824  0.2976  0.1465
  376POPI   C3A 5935  15.558   0.804   8.897  0.1961  0.2867 -0.2822
  376POPI   C4A 5936  15.318   0.707   8.508 -0.0216  0.0171 -0.0234
  376POPI   C1B 5937  15.372   0.300   9.588  0.0257  0.1819  0.1696
  376POPI   C2B 5938  15.395   0.271   9.097  0.0444  0.0356 -0.1253
  376POPI   C3B 5939  15.652   0.388   8.747 -0.1173 -0.1344  0.0424
  376POPI   C4B 5940  16.022   0.639   8.833 -0.0595  0.0995  0.0741
  377POPI    C1 5941  16.357  14.709  11.149 -0.1331  0.1088 -0.1173
  377POPI    C2 5942  16.042  14.465  11.172 -0.0254 -0.0107  0.1299
  377POPI    C3 5943  16.205  14.612  11.506  0.2668 -0.0618  0.0123
  377POPI   PO4 5944  16.284  14.785  10.874  0.1593  0.2784 -0.1277
  377POPI   GL1 5945  16.351  14.674  10.410 -0.1681 -0.0403  0.1280
  377POPI   GL2 5946  16.055  14.478  10.260  0.0095  0.0135  0.2467
  377POPI   C1A 5947  16.644  14.626   9.969  0.2322  0.1097  0.3706
  377POPI   D2A 5948  16.618  14.450   9.626  0.1718 -0.2052  0.0301
  377POPI   C3A 5949  16.661  14.365   9.181 -0.4593  0.4181 -0.0201
  377POPI   C4A 5950  16.648  14.443   8.685 -0.0643 -0.0794 -0.0686
  377POPI   C1B 5951  15.870  14.491   9.946  0.0279  0.0196  0.1989
  377POPI   C2B 5952  15.884  14.465   9.588  0.4020  0.2757 -0.2759
  377POPI   C3B 5953  15.768  14.530   9.162  0.2950 -0.1386  0.2076
  377POPI   C4B 5954  15.734  14.499   8.762  0.0021  0.1829  0.2266
  378POPI    C1 5955   3.004   9.165  10.623 -0.1719  0.2917  0.1289
  378POPI    C2 5956   2.837   8.884  10.855  0.1802 -0.0319  0.0009
  378POPI    C3 5957   2.660   8.993  10.513  0.1174 -0.2106 -0.0246
  378POPI   PO4 5958   3.227   9.140  10.569 -0.0927  0.0822  0.1314
  378POPI   GL1 5959   3.561   9.066  10.277  0.0620  0.0267  0.0928
  378POPI   GL2 5960   3.610   9.445  10.077  0.0208  0.3538  0.0559
  378POPI   C1A 5961   3.475   8.914   9.885  0.0860  0.0125  0.1108
  378POPI   D2A 5962   3.278   8.928   9.473  0.0449 -0.0255  0.1704
  378POPI   C3A 5963   3.431   8.682   9.056  0.1327  0.0650 -0.0489
  378POPI   C4A 5964   3.354   8.628   8.621 -0.2606 -0.2383 -0.1783
  378POPI   C1B 5965   3.533   9.489   9.709  0.2907  0.1204 -0.1583
  378POPI   C2B 5966   3.471   9.336   9.340 -0.1748 -0.5778  0.2120
  378POPI   C3B 5967   3.302   9.241   8.966 -0.1092 -0.0979 -0.1178
  378POPI   C4B 5968   3.264   9.102   8.486 -0.3008 -0.1167  0.0592
  379POPI    C1 5969  11.336  11.088  10.866  0.1978 -0.1568  0.0568
  379POPI    C2 5970  11.256  10.836  11.166 -0.0486 -0.0649  0.0703
  379POPI    C3 5971  11.616  10.831  10.992  0.1029 -0.1073  0.3781
  379POPI   PO4 5972  11.132  11.075  10.691  0.1223  0.0758 -0.3513
  379POPI   GL1 5973  11.045  10.970  10.345 -0.0265  0.4637  0.0151
  379POPI   GL2 5974  11.113  10.622  10.160  0.2564  0.2517  0.2823
  379POPI   C1A 5975  10.835  10.915   9.876  0.0258  0.0562 -0.0962
  379POPI   D2A 5976  10.638  11.051   9.448 -0.0663 -0.1012  0.2233
  379POPI   C3A 5977  10.643  10.871   9.130 -0.2460  0.0150 -0.0444
  379POPI   C4A 5978  10.769  10.862   8.692  0.1578  0.1928  0.0185
  379POPI   C1B 5979  10.986  10.501   9.678 -0.1567  0.0298 -0.2925
  379POPI   C2B 5980  10.896  10.467   9.188 -0.0991  0.0179  0.1334
  379POPI   C3B 5981  10.738  10.374   8.771 -0.0661  0.1427 -0.1131
  379POPI   C4B 5982  10.481  10.527   8.397  0.3164  0.1985  0.1127
  380POPI    C1 5983   3.467   7.160  10.680  0.3108  0.0985 -0.1530
  380POPI    C2 5984   3.828   7.167  10.853  0.1149  0.0303  0.2714
  380POPI    C3 5985   3.652   6.817  10.769  0.1690  0.0633  0.0113
  380POPI   PO4 5986   3.488   7.362  10.554 -0.0691  0.2784 -0.1478
  380POPI   GL1 5987   3.576   7.689  10.294  0.1374  0.1521  0.0569
  380POPI   GL2 5988   3.625   7.479  10.114  0.1002  0.2626 -0.0820
  380POPI   C1A 5989   3.601   7.979  10.015 -0.1433 -0.1995 -0.0369
  380POPI   D2A 5990   3.835   8.098   9.782 -0.0555  0.2373  0.0794
  380POPI   C3A 5991   3.632   8.041   9.475  0.0901  0.3773  0.3523
  380POPI   C4A 5992   3.797   7.911   9.199 -0.0160  0.1505  0.1592
  380POPI   C1B 5993   3.671   7.558   9.690 -0.1126  0.1357 -0.1634
  380POPI   C2B 5994   3.711   7.430   9.290  0.1931 -0.2961 -0.3606
  380POPI   C3B 5995   3.750   7.185   8.833  0.0307  0.2815  0.0546
  380POPI   C4B 5996   3.696   6.767   8.621 -0.2747  0.1289 -0.2236
  381POPI    C1 5997  14.736   7.135  10.971  0.1120  0.0070 -0.1189
  381POPI    C2 5998  14.666   7.413  11.250  0.0590 -0.0419 -0.0833
  381POPI    C3 5999  15.041   7.340  11.131  0.0816 -0.0198 -0.0261
  381POPI   PO4 6000  14.558   7.165  10.801  0.1498 -0.1645 -0.2415
  381POPI   GL1 6001  14.628   7.268  10.353 -0.2481 -0.0830  0.2198
  381POPI   GL2 6002  14.551   7.630  10.329 -0.0552  0.1435 -0.2490
  381POPI   C1A 6003  14.622   7.025  10.001  0.2895 -0.0074 -0.0553
  381POPI   D2A 6004  14.595   6.788   9.672  0.1294  0.2439  0.0665
  381POPI   C3A 6005  14.536   6.842   9.216  0.0720 -0.0475  0.0650
  381POPI   C4A 6006  14.497   6.794   8.768  0.0043 -0.1506  0.0514
  381POPI   C1B 6007  14.609   7.534   9.888 -0.0753  0.1582  0.0182
  381POPI   C2B 6008  14.509   7.292   9.431  0.0246  0.0923 -0.0738
  381POPI   C3B 6009  14.525   7.291   8.974  0.2609 -0.2035 -0.1153
  381POPI   C4B 6010  14.343   7.277   8.641 -0.1913  0.2633  0.0388
  382POPI    C1 6011   2.488  10.305  10.576 -0.4268 -0.0051 -0.0024
  382POPI    C2 6012   2.372  10.412  10.943 -0.0504  0.0857  0.0940
  382POPI    C3 6013   2.451  10.692  10.669 -0.2307  0.0203 -0.0263
  382POPI   PO4 6014   2.672  10.160  10.618 -0.3431  0.0384  0.0006
  382POPI   GL1 6015   2.918  10.024  10.306  0.0413  0.0970 -0.0523
  382POPI   GL2 6016   2.785   9.740  10.167  0.1220  0.0929  0.1829
  382POPI   C1A 6017   2.812  10.218   9.853  0.2032 -0.0729  0.2129
  382POPI   D2A 6018   2.775  10.596   9.737  0.1161 -0.0476 -0.0090
  382POPI   C3A 6019   2.620  10.557   9.356  0.0817 -0.0730  0.1016
  382POPI   C4A 6020   2.927  10.576   8.978  0.0870  0.1208  0.0256
  382POPI   C1B 6021   2.746   9.773   9.761  0.1952 -0.0674 -0.0045
  382POPI   C2B 6022   2.701   9.904   9.360  0.0487 -0.1683  0.0662
  382POPI   C3B 6023   2.911  10.096   9.108  0.1493  0.0719  0.1919
  382POPI   C4B 6024   2.813  10.196   8.667  0.0744  0.0685  0.1295
  383POPI    C1 6025  13.273   6.848  10.313 -0.1890 -0.0874 -0.0513
  383POPI    C2 6026  12.934   7.054  10.258 -0.2548 -0.1109  0.2495
  383POPI    C3 6027  12.985   6.701  10.076 -0.2548  0.0412 -0.0523
  383POPI   PO4 6028  13.459   6.966  10.231 -0.0643  0.1186 -0.0560
  383POPI   GL1 6029  13.631   7.353  10.029 -0.3290 -0.0197 -0.1587
  383POPI   GL2 6030  13.689   7.598  10.135  0.0371  0.1865  0.0011
  383POPI   C1A 6031  13.734   7.351   9.568  0.0895  0.0457  0.1811
  383POPI   D2A 6032  13.683   7.290   9.131 -0.2467 -0.1497  0.1325
  383POPI   C3A 6033  13.537   7.260   8.670 -0.1484  0.6261 -0.2457
  383POPI   C4A 6034  13.463   7.048   8.316 -0.0175 -0.0477  0.0069
  383POPI   C1B 6035  13.578   7.817   9.760  0.0837 -0.0424 -0.0877
  383POPI   C2B 6036  13.599   7.764   9.248 -0.2718  0.2895  0.2998
  383POPI   C3B 6037  13.632   7.803   8.731 -0.1565  0.0723 -0.0019
  383POPI   C4B 6038  13.589   7.840   8.277 -0.1953 -0.0210  0.2227
  384POPI    C1 6039  17.554   9.371  10.762 -0.0922 -0.0975  0.1083
  384POPI    C2 6040  17.211   9.299  10.955 -0.0859  0.0720  0.1853
  384POPI    C3 6041  17.556   9.309  11.157 -0.0583  0.0863  0.1378
  384POPI   PO4 6042  17.557   9.208  10.558 -0.0066 -0.0013  0.0947
  384POPI   GL1 6043  17.587   9.242  10.151  0.0703 -0.1576 -0.0583
  384POPI   GL2 6044  17.873   9.279  10.107  0.0981 -0.4265 -0.3187
  384POPI   C1A 6045  17.275   9.389   9.798 -0.1080 -0.1875  0.0072
  384POPI   D2A 6046  17.045   9.340   9.501  0.0728  0.2861 -0.2561
  384POPI   C3A 6047  17.215   9.461   9.140  0.0228 -0.1590  0.0062
  384POPI   C4A 6048  17.250   9.480   8.602 -0.2234 -0.2596 -0.1094
  384POPI   C1B 6049  17.780   9.337   9.575 -0.1077 -0.0092  0.0011
  384POPI   C2B 6050  17.732   9.416   9.148 -0.0927 -0.0529  0.1035
  384POPI   C3B 6051  17.690   9.521   8.692  0.0105 -0.2435 -0.0438
  384POPI   C4B 6052  17.932   9.493   8.342 -0.0376 -0.2723  0.0728
  385POPI    C1 6053   8.687  13.563  10.592  0.0140  0.2487 -0.1953
  385POPI    C2 6054   8.557  13.612  10.967  0.1300  0.2848 -0.1593
  385POPI    C3 6055   8.571  13.924  10.717 -0.1726  0.2153 -0.2683
  385POPI   PO4 6056   8.672  13.415  10.470  0.2883  0.2778 -0.2189
  385POPI   GL1 6057   8.465  13.347  10.095  0.1340 -0.1537 -0.4348
  385POPI   GL2 6058   8.619  13.028  10.105 -0.1694 -0.0098 -0.2493
  385POPI   C1A 6059   8.113  13.450   9.870 -0.1529  0.0890 -0.1420
  385POPI   D2A 6060   7.953  13.429   9.498  0.0094  0.1164 -0.2838
  385POPI   C3A 6061   7.965  13.305   9.103 -0.0016  0.4624  0.2190
  385POPI   C4A 6062   7.867  13.400   8.695  0.1213  0.0716 -0.0227
  385POPI   C1B 6063   8.491  13.093   9.655  0.0455  0.1022  0.0950
  385POPI   C2B 6064   8.395  13.132   9.248 -0.1113  0.0672  0.1128
  385POPI   C3B 6065   8.367  13.209   8.759 -0.1192 -0.2004  0.0593
  385POPI   C4B 6066   8.500  13.461   8.333 -0.1364 -0.1445 -0.0599
  386POPI    C1 6067  13.432   4.781  10.466 -0.0144  0.1601 -0.2194
  386POPI    C2 6068  13.059   4.926  10.477 -0.1281 -0.1330 -0.0763
  386POPI    C3 6069  13.195   4.702  10.779  0.0893 -0.2118 -0.2301
  386POPI   PO4 6070  13.536   4.957  10.283 -0.1984  0.0251 -0.1566
  386POPI   GL1 6071  13.625   4.856   9.801  0.0835 -0.0371 -0.0700
  386POPI   GL2 6072  13.892   4.879   9.886 -0.0348 -0.1479  0.1018
  386POPI   C1A 6073  13.686   4.891   9.451 -0.1503 -0.4198  0.2208
  386POPI   D2A 6074  13.684   4.907   9.048  0.0856 -0.1831  0.0795
  386POPI   C3A 6075  13.761   4.869   8.658 -0.0566 -0.1068 -0.2370
  386POPI   C4A 6076  13.889   5.008   8.308  0.1645  0.0447 -0.1394
  386POPI   C1B 6077  14.185   4.980   9.612  0.1550  0.1002  0.0073
  386POPI   C2B 6078  14.194   5.054   9.175 -0.2272 -0.4152  0.2321
  386POPI   C3B 6079  14.225   4.961   8.706 -0.1857 -0.1236  0.0623
  386POPI   C4B 6080  14.435   4.969   8.280 -0.0678  0.0317  0.0758
  387POPI    C1 6081  13.034   2.064  10.578 -0.0212 -0.1028  0.0278
  387POPI    C2 6082  13.053   1.774  10.853  0.2432  0.1049  0.2346
  387POPI    C3 6083  13.017   2.156  10.967  0.0926  0.1724 -0.0296
  387POPI   PO4 6084  12.845   2.018  10.352 -0.0477 -0.0962 -0.2028
  387POPI   GL1 6085  12.740   2.102   9.885 -0.1902  0.0530 -0.2674
  387POPI   GL2 6086  12.638   2.455   9.827  0.1106  0.1646  0.0492
  387POPI   C1A 6087  12.507   1.914   9.607 -0.1384 -0.0454 -0.1400
  387POPI   D2A 6088  12.489   1.873   9.167 -0.0683  0.0157  0.1910
  387POPI   C3A 6089  12.586   1.515   8.784  0.1749 -0.1322 -0.2212
  387POPI   C4A 6090  12.798   1.402   8.388  0.1044  0.1901 -0.0142
  387POPI   C1B 6091  12.551   2.687   9.569 -0.1052 -0.1567 -0.1414
  387POPI   C2B 6092  12.541   2.861   9.185 -0.3838  0.2434 -0.1275
  387POPI   C3B 6093  12.564   2.907   8.777 -0.1116 -0.0981 -0.2040
  387POPI   C4B 6094  12.541   3.143   8.375  0.2426 -0.3629  0.1781
  388POPI    C1 6095  12.375  14.144  10.500  0.0366  0.2512  0.1833
  388POPI    C2 6096  12.614  13.988  10.780  0.1188 -0.0065 -0.0258
  388POPI    C3 6097  12.260  14.145  10.883  0.0073 -0.3835  0.1868
  388POPI   PO4 6098  12.261  14.023  10.310 -0.0790 -0.1795 -0.0122
  388POPI   GL1 6099  12.410  14.191   9.890 -0.1296 -0.0702 -0.0449
  388POPI   GL2 6100  12.802  14.107   9.737 -0.0788 -0.3371 -0.1533
  388POPI   C1A 6101  12.336  14.139   9.448  0.0717  0.0300 -0.0597
  388POPI   D2A 6102  12.430  14.010   9.002 -0.0064  0.0332 -0.0001
  388POPI   C3A 6103  12.530  14.215   8.696 -0.1110 -0.1128 -0.0174
  388POPI   C4A 6104  12.586  14.239   8.275 -0.3618 -0.0165  0.0777
  388POPI   C1B 6105  12.818  13.991   9.326  0.0606  0.2120  0.0415
  388POPI   C2B 6106  12.988  13.963   8.897 -0.2804 -0.0939  0.1558
  388POPI   C3B 6107  13.342  13.856   8.613 -0.0510  0.0547 -0.0379
  388POPI   C4B 6108  13.424  13.694   8.317  0.1226  0.3732 -0.4613
  389POPI    C1 6109   8.596  14.394  11.187  0.0406 -0.0080 -0.0129
  389POPI    C2 6110   8.740  14.023  11.223  0.0609 -0.0239 -0.2420
  389POPI    C3 6111   8.880  14.315  11.458  0.0266 -0.1653 -0.0430
  389POPI   PO4 6112   8.568  14.406  10.815  0.1411 -0.0257  0.0741
  389POPI   GL1 6113   8.714  14.338  10.374  0.0826 -0.0637  0.0050
  389POPI   GL2 6114   8.580  14.081  10.158 -0.1158 -0.3502  0.0940
  389POPI   C1A 6115   8.708  14.494   9.947 -0.1211  0.1024  0.3768
  389POPI   D2A 6116   8.810  14.553   9.453  0.0139 -0.1292 -0.0262
  389POPI   C3A 6117   8.675  14.557   9.031  0.0554 -0.1588  0.2199
  389POPI   C4A 6118   8.361  14.581   8.658 -0.1257  0.0149 -0.2270
  389POPI   C1B 6119   8.425  13.783   9.837 -0.1643 -0.1445  0.1508
  389POPI   C2B 6120   8.422  13.670   9.448  0.1320 -0.0700  0.0698
  389POPI   C3B 6121   8.374  13.680   9.019  0.0234 -0.0493 -0.0052
  389POPI   C4B 6122   8.252  13.796   8.618 -0.2954  0.1645 -0.1056
  390POPI    C1 6123   9.319   1.945  10.220 -0.0592 -0.0790 -0.0728
  390POPI    C2 6124   9.645   1.860  10.004  0.0120 -0.1001  0.0418
  390POPI    C3 6125   9.562   1.648  10.333 -0.0924 -0.0640  0.0391
  390POPI   PO4 6126   9.093   1.875  10.001 -0.2042  0.0035  0.1150
  390POPI   GL1 6127   9.060   1.754   9.551 -0.1851  0.0181  0.0256
  390POPI   GL2 6128   9.266   2.022   9.577  0.1054  0.0807  0.1603
  390POPI   C1A 6129   9.150   1.771   9.187 -0.1282 -0.0041  0.1664
  390POPI   D2A 6130   9.155   1.722   8.705 -0.0089  0.0765  0.0454
  390POPI   C3A 6131   8.901   1.428   8.482  0.0023  0.0313  0.1066
  390POPI   C4A 6132   8.651   1.393   7.991 -0.1904 -0.0639 -0.3791
  390POPI   C1B 6133   9.469   2.138   9.199  0.2384 -0.1366  0.1443
  390POPI   C2B 6134   9.423   2.130   8.855  0.0177  0.0650  0.0041
  390POPI   C3B 6135   9.338   2.036   8.388 -0.0426 -0.0149 -0.0205
  390POPI   C4B 6136   9.113   2.307   8.092  0.1372  0.1536  0.0878
  391POPI    C1 6137  15.187   7.750  10.847  0.0009 -0.4850  0.2557
  391POPI    C2 6138  15.580   7.815  10.885 -0.0167 -0.3189  0.1645
  391POPI    C3 6139  15.319   8.082  11.026 -0.0937 -0.2994 -0.0127
  391POPI   PO4 6140  15.131   7.784  10.544 -0.0317  0.1412 -0.0811
  391POPI   GL1 6141  15.267   7.969  10.201  0.0985  0.0058 -0.1842
  391POPI   GL2 6142  15.549   7.998  10.087  0.0495  0.0132  0.1259
  391POPI   C1A 6143  14.969   7.864   9.958  0.4160  0.0973 -0.0469
  391POPI   D2A 6144  14.993   7.605   9.535  0.0157  0.1428  0.0859
  391POPI   C3A 6145  14.822   7.679   9.051  0.1280 -0.0067 -0.0696
  391POPI   C4A 6146  14.850   7.561   8.658 -0.0041 -0.1489 -0.0368
  391POPI   C1B 6147  15.430   7.921   9.670 -0.1437  0.1932  0.0311
  391POPI   C2B 6148  15.364   7.854   9.318 -0.2893 -0.3063  0.2152
  391POPI   C3B 6149  15.271   7.898   8.993  0.1948  0.3796 -0.0753
  391POPI   C4B 6150  15.269   7.903   8.480 -0.1099 -0.0479 -0.0158
  392POPI    C1 6151  10.631   5.122  10.395 -0.0878 -0.0184 -0.0790
  392POPI    C2 6152  10.252   5.031  10.487 -0.1088  0.1788  0.0335
  392POPI    C3 6153  10.331   5.259  10.168 -0.0845  0.1381  0.0104
  392POPI   PO4 6154  10.859   4.957  10.327  0.0364  0.0802  0.0235
  392POPI   GL1 6155  10.840   4.844   9.881  0.0221 -0.1838  0.0104
  392POPI   GL2 6156  10.530   4.986   9.795 -0.0549  0.2375  0.0804
  392POPI   C1A 6157  10.966   4.807   9.469 -0.0124 -0.1177  0.1836
  392POPI   D2A 6158  10.872   4.877   9.094 -0.1217  0.0082  0.0224
  392POPI   C3A 6159  11.094   4.860   8.698 -0.1348 -0.1840  0.2247
  392POPI   C4A 6160  11.056   5.000   8.217  0.1478  0.0931  0.0154
  392POPI   C1B 6161  10.496   4.894   9.371  0.1966  0.2485 -0.0256
  392POPI   C2B 6162  10.425   4.980   8.861 -0.3006  0.1157 -0.0342
  392POPI   C3B 6163  10.588   4.841   8.477 -0.1248 -0.1340  0.1798
  392POPI   C4B 6164  10.610   4.764   8.000  0.0001  0.2022 -0.0054
  393POPI    C1 6165  15.197   9.628  10.509 -0.1340  0.0614  0.0766
  393POPI    C2 6166  15.206   9.551  10.901 -0.0847 -0.0225  0.0590
  393POPI    C3 6167  15.517   9.732  10.726 -0.0981 -0.0037  0.0549
  393POPI   PO4 6168  15.072   9.356  10.390 -0.0963 -0.1934  0.0371
  393POPI   GL1 6169  14.949   9.109  10.020 -0.2290 -0.2110 -0.2531
  393POPI   GL2 6170  14.730   9.191   9.995 -0.0795  0.2701  0.1342
  393POPI   C1A 6171  14.998   9.213   9.551 -0.2440 -0.0408  0.0108
  393POPI   D2A 6172  14.993   9.097   9.075  0.2416 -0.0156  0.0670
  393POPI   C3A 6173  15.262   8.835   8.968  0.2524 -0.0354  0.0330
  393POPI   C4A 6174  15.516   8.828   8.575  0.2657  0.2674  0.0357
  393POPI   C1B 6175  14.569   9.460   9.658 -0.2539 -0.1488 -0.0305
  393POPI   C2B 6176  14.617   9.405   9.219 -0.2681  0.1577  0.1820
  393POPI   C3B 6177  14.643   9.481   8.762  0.1196 -0.3461 -0.1645
  393POPI   C4B 6178  14.508   9.482   8.372 -0.0317 -0.1788 -0.1672
  394POPI    C1 6179  14.100  11.889  10.406 -0.1290  0.1694  0.2246
  394POPI    C2 6180  13.877  11.557  10.387 -0.1874  0.2173  0.0570
  394POPI    C3 6181  13.923  11.747  10.736 -0.1187  0.0099  0.1623
  394POPI   PO4 6182  13.988  12.071  10.272  0.1611 -0.0501  0.1920
  394POPI   GL1 6183  14.159  12.242   9.989  0.0571  0.0312  0.0364
  394POPI   GL2 6184  14.245  12.467  10.185 -0.1699 -0.1034 -0.0311
  394POPI   C1A 6185  14.367  12.297   9.631  0.0823 -0.2685  0.0080
  394POPI   D2A 6186  14.372  12.326   9.168 -0.2379  0.0777  0.2815
  394POPI   C3A 6187  14.602  12.373   8.770  0.3228  0.1194  0.0725
  394POPI   C4A 6188  14.813  12.547   8.452 -0.2753  0.1082 -0.3830
  394POPI   C1B 6189  14.056  12.779  10.002 -0.3274 -0.3654 -0.2903
  394POPI   C2B 6190  14.115  12.729   9.596 -0.0255  0.0578  0.1472
  394POPI   C3B 6191  14.180  12.831   9.135  0.0775 -0.2293 -0.2790
  394POPI   C4B 6192  14.267  12.741   8.728 -0.2225 -0.3257  0.1158
  395POPI    C1 6193  12.047  16.344  10.553 -0.0013  0.0644 -0.1155
  395POPI    C2 6194  11.832  16.668  10.645 -0.0888 -0.0626  0.1359
  395POPI    C3 6195  12.227  16.699  10.593 -0.0609  0.0434  0.3959
  395POPI   PO4 6196  11.919  16.225  10.379  0.1402  0.0656 -0.0011
  395POPI   GL1 6197  12.057  16.074   9.968  0.1259 -0.1491  0.0032
  395POPI   GL2 6198  12.112  16.404   9.787 -0.1130 -0.1230 -0.1512
  395POPI   C1A 6199  12.166  15.850   9.588 -0.1359 -0.0713 -0.0852
  395POPI   D2A 6200  12.187  15.771   9.160 -0.0492  0.1837  0.3061
  395POPI   C3A 6201  11.998  15.772   8.809 -0.1152  0.3029 -0.2889
  395POPI   C4A 6202  11.958  15.729   8.359 -0.3051 -0.1682 -0.2673
  395POPI   C1B 6203  12.121  16.313   9.326 -0.0631  0.2162 -0.2100
  395POPI   C2B 6204  11.990  16.250   8.926 -0.1469 -0.0577 -0.0644
  395POPI   C3B 6205  11.742  16.246   8.580 -0.0859 -0.1613 -0.1340
  395POPI   C4B 6206  11.443  16.049   8.298 -0.1486  0.0099 -0.2300
  396POPI    C1 6207  12.399  11.414  10.728 -0.0822 -0.1671 -0.1324
  396POPI    C2 6208  12.056  11.618  10.701  0.0309  0.0483  0.0357
  396POPI    C3 6209  12.243  11.584  11.054  0.1477 -0.1260 -0.0414
  396POPI   PO4 6210  12.326  11.358  10.396  0.1712  0.0230  0.0808
  396POPI   GL1 6211  12.577  11.484  10.185  0.3355 -0.0702  0.0736
  396POPI   GL2 6212  12.744  11.274  10.081  0.2435 -0.3726  0.1221
  396POPI   C1A 6213  12.619  11.623   9.705 -0.0385 -0.0550  0.0383
  396POPI   D2A 6214  12.771  11.457   9.317  0.1916  0.3697  0.0329
  396POPI   C3A 6215  12.662  11.500   8.876  0.1063  0.0826  0.2676
  396POPI   C4A 6216  12.855  11.616   8.535 -0.0869 -0.0595  0.0447
  396POPI   C1B 6217  13.031  11.660   9.968 -0.0356  0.0331 -0.0788
  396POPI   C2B 6218  13.106  11.797   9.551 -0.1948 -0.0370 -0.0329
  396POPI   C3B 6219  13.134  11.724   9.203 -0.0497 -0.0855 -0.1695
  396POPI   C4B 6220  13.249  11.974   8.846  0.1415  0.1118  0.0041
  397POPI    C1 6221  12.440  13.546  10.889 -0.1938 -0.5581  0.0175
  397POPI    C2 6222  12.078  13.652  11.023 -0.1829 -0.2790 -0.1655
  397POPI    C3 6223  12.312  13.418  11.246 -0.3021 -0.1048  0.1489
  397POPI   PO4 6224  12.339  13.559  10.551 -0.4017  0.0024 -0.3430
  397POPI   GL1 6225  12.441  13.315  10.198 -0.1129  0.1051 -0.0780
  397POPI   GL2 6226  12.411  13.631  10.024 -0.0927 -0.0948  0.0584
  397POPI   C1A 6227  12.607  13.180   9.837  0.0445  0.1939 -0.1555
  397POPI   D2A 6228  12.638  13.099   9.405  0.0007  0.1449 -0.1224
  397POPI   C3A 6229  12.777  13.085   8.993 -0.3328  0.0495  0.1525
  397POPI   C4A 6230  12.706  13.023   8.554  0.2240  0.0185  0.3031
  397POPI   C1B 6231  12.489  13.614   9.552  0.0775 -0.0773 -0.2762
  397POPI   C2B 6232  12.513  13.540   9.147 -0.0335 -0.0016 -0.0172
  397POPI   C3B 6233  12.697  13.581   8.759 -0.1123  0.2448 -0.2701
  397POPI   C4B 6234  12.843  13.844   8.430  0.1167  0.4813  0.0203
  398POPI    C1 6235  11.695  12.556  10.651  0.1696 -0.2009 -0.2824
  398POPI    C2 6236  11.740  12.842  10.927  0.1408  0.0982 -0.5800
  398POPI    C3 6237  11.521  12.517  11.009  0.6891 -0.1505 -0.0155
  398POPI   PO4 6238  11.861  12.541  10.511  0.1872  0.1437  0.1878
  398POPI   GL1 6239  11.978  12.670  10.078 -0.0301  0.0738 -0.1118
  398POPI   GL2 6240  12.308  12.800  10.070 -0.0927  0.1208 -0.1514
  398POPI   C1A 6241  11.863  12.497   9.656  0.1979  0.4246  0.0961
  398POPI   D2A 6242  11.618  12.115   9.446 -0.1356  0.1847 -0.0741
  398POPI   C3A 6243  11.868  11.807   9.219 -0.0311 -0.0106  0.0580
  398POPI   C4A 6244  11.780  11.685   8.792 -0.0483  0.1183 -0.1290
  398POPI   C1B 6245  12.215  12.808   9.571  0.3330  0.2443 -0.1976
  398POPI   C2B 6246  12.332  12.773   9.172 -0.1363 -0.1467  0.1002
  398POPI   C3B 6247  12.335  12.623   8.871  0.0231  0.0333 -0.0725
  398POPI   C4B 6248  12.202  12.842   8.478 -0.0115  0.1045 -0.1064
  399POPI    C1 6249  12.090   6.724  10.577  0.0541  0.0242 -0.0122
  399POPI    C2 6250  11.989   7.074  10.412  0.0527  0.1219  0.1929
  399POPI    C3 6251  11.706   6.833  10.560  0.0259 -0.0996 -0.2049
  399POPI   PO4 6252  12.227   6.571  10.385 -0.0320 -0.1760  0.3856
  399POPI   GL1 6253  12.162   6.311  10.032 -0.1314  0.0545 -0.0869
  399POPI   GL2 6254  12.239   5.971   9.889  0.0119 -0.0393  0.0851
  399POPI   C1A 6255  11.886   6.463   9.708 -0.1617  0.0352  0.0392
  399POPI   D2A 6256  11.823   6.658   9.322 -0.1061 -0.0809  0.1436
  399POPI   C3A 6257  11.933   6.517   8.923 -0.0681 -0.3038  0.1160
  399POPI   C4A 6258  11.979   6.406   8.464 -0.0336 -0.0435 -0.1545
  399POPI   C1B 6259  12.548   6.068   9.626  0.2398  0.1007 -0.2588
  399POPI   C2B 6260  12.698   6.164   9.279 -0.1100  0.1030  0.0391
  399POPI   C3B 6261  12.421   6.196   8.889 -0.1454 -0.1116 -0.0076
  399POPI   C4B 6262  12.387   6.576   8.730  0.3168  0.1429  0.0814
  400POPI    C1 6263  13.342  15.798  10.843  0.0869  0.1111 -0.1888
  400POPI    C2 6264  13.199  15.438  10.744  0.0162  0.0438  0.1461
  400POPI    C3 6265  13.356  15.498  11.107  0.0878  0.3349  0.0699
  400POPI   PO4 6266  13.571  15.881  10.712  0.1021 -0.3487  0.1217
  400POPI   GL1 6267  13.770  16.024  10.277  0.1495 -0.0083 -0.3340
  400POPI   GL2 6268  13.586  15.967  10.014 -0.1799 -0.1558  0.2200
  400POPI   C1A 6269  13.973  16.335  10.176  0.1995  0.1046 -0.1149
  400POPI   D2A 6270  14.337  16.453  10.044 -0.0141 -0.0144 -0.0419
  400POPI   C3A 6271  14.420  16.508   9.568 -0.0101 -0.1515 -0.0311
  400POPI   C4A 6272  14.333  16.625   9.098 -0.0855  0.0157 -0.1196
  400POPI   C1B 6273  13.580  16.000   9.649  0.2213  0.1820 -0.0852
  400POPI   C2B 6274  13.265  15.940   9.297 -0.2171 -0.0065 -0.2441
  400POPI   C3B 6275  12.987  15.943   8.978  0.2174 -0.2805  0.0813
  400POPI   C4B 6276  12.882  15.913   8.469  0.3430 -0.1506  0.0531
  401POPI    C1 6277   0.546   9.587  10.790  0.0599 -0.1318  0.0393
  401POPI    C2 6278   0.175   9.445  10.840  0.1958 -0.5032  0.0286
  401POPI    C3 6279   0.363   9.628  11.143 -0.1084 -0.0280 -0.0588
  401POPI   PO4 6280   0.616   9.380  10.621  0.2326 -0.1591  0.1564
  401POPI   GL1 6281   0.573   9.343  10.127 -0.0480  0.1205 -0.1347
  401POPI   GL2 6282   0.654   9.029  10.089 -0.0815 -0.1116 -0.1420
  401POPI   C1A 6283   0.406   9.372   9.753  0.0474  0.0193 -0.0087
  401POPI   D2A 6284   0.364   9.324   9.288  0.2012 -0.1430  0.0369
  401POPI   C3A 6285   0.496   9.201   8.841 -0.1028 -0.2589  0.2187
  401POPI   C4A 6286   0.490   9.238   8.432  0.1105 -0.1291 -0.2303
  401POPI   C1B 6287   0.593   8.725   9.740  0.3366  0.0297 -0.0051
  401POPI   C2B 6288   0.666   8.692   9.366  0.2687 -0.2918  0.0365
  401POPI   C3B 6289   0.401   8.727   8.968  0.2582 -0.2700 -0.0238
  401POPI   C4B 6290   0.416   8.752   8.479  0.1383  0.1919 -0.0193
  402POPI    C1 6291   6.107  15.463  11.150 -0.2392 -0.0020 -0.1699
  402POPI    C2 6292   5.879  15.294  11.431 -0.1615 -0.0673 -0.1457
  402POPI    C3 6293   5.953  15.687  11.444  0.0914 -0.1196  0.1001
  402POPI   PO4 6294   5.990  15.287  10.935  0.1082  0.1639 -0.0030
  402POPI   GL1 6295   5.961  15.234  10.537  0.3104 -0.2179  0.2045
  402POPI   GL2 6296   6.142  15.568  10.388 -0.1938 -0.0420 -0.1665
  402POPI   C1A 6297   6.016  15.153  10.084  0.2267 -0.3126 -0.2054
  402POPI   D2A 6298   6.031  15.238   9.726 -0.0170 -0.0431 -0.1972
  402POPI   C3A 6299   5.971  15.194   9.285  0.5724 -0.0312 -0.1708
  402POPI   C4A 6300   6.086  15.346   8.900  0.1574  0.2261 -0.0545
  402POPI   C1B 6301   6.017  15.657  10.007  0.1198  0.0192 -0.0330
  402POPI   C2B 6302   6.006  15.760   9.681  0.0870  0.4032  0.1511
  402POPI   C3B 6303   6.034  15.723   9.265 -0.4464  0.0185  0.0454
  402POPI   C4B 6304   6.000  15.826   8.864  0.2966  0.2626  0.2916
  403POPI    C1 6305  13.944   1.401  10.514  0.0441 -0.1783 -0.1841
  403POPI    C2 6306  14.216   1.693  10.504  0.0503 -0.1763 -0.0026
  403POPI    C3 6307  14.192   1.454  10.823 -0.2359 -0.1044  0.0324
  403POPI   PO4 6308  13.794   1.503  10.402  0.1939  0.2845 -0.0024
  403POPI   GL1 6309  13.653   1.706  10.068  0.0296  0.0970 -0.3120
  403POPI   GL2 6310  13.950   1.971  10.164  0.1349  0.0168 -0.2569
  403POPI   C1A 6311  13.812   1.652   9.746 -0.0704 -0.0212  0.0809
  403POPI   D2A 6312  14.016   1.506   9.542  0.0895 -0.0157 -0.1858
  403POPI   C3A 6313  13.904   1.322   9.121 -0.0889  0.1083  0.1802
  403POPI   C4A 6314  13.881   1.411   8.726  0.0546 -0.1592  0.2139
  403POPI   C1B 6315  13.855   2.151   9.757 -0.1853 -0.0093  0.1408
  403POPI   C2B 6316  13.827   2.197   9.414 -0.0086 -0.1179  0.1165
  403POPI   C3B 6317  13.878   2.352   8.992  0.1886  0.0949  0.1623
  403POPI   C4B 6318  13.996   2.370   8.559 -0.0316 -0.2448  0.0833
  404POPI    C1 6319   8.315  13.184  10.739 -0.0772 -0.2504  0.0268
  404POPI    C2 6320   8.186  12.920  11.010  0.1667 -0.0279  0.3679
  404POPI    C3 6321   8.007  13.276  10.977  0.1116 -0.0699  0.2055
  404POPI   PO4 6322   8.289  13.096  10.509  0.1117  0.1837  0.2285
  404POPI   GL1 6323   8.031  13.032  10.188  0.1396 -0.0929 -0.2916
  404POPI   GL2 6324   7.685  12.977  10.239  0.2154  0.2536 -0.0395
  404POPI   C1A 6325   7.972  12.985   9.729 -0.0405 -0.0566 -0.3980
  404POPI   D2A 6326   7.887  12.850   9.267 -0.0526  0.0982 -0.4933
  404POPI   C3A 6327   7.932  12.939   8.814 -0.1710  0.1770  0.2260
  404POPI   C4A 6328   7.824  12.700   8.422 -0.0368 -0.1746 -0.0786
  404POPI   C1B 6329   7.472  12.740   9.914  0.1782  0.1354  0.1067
  404POPI   C2B 6330   7.589  12.622   9.583 -0.1189  0.1021  0.2534
  404POPI   C3B 6331   7.447  12.607   9.187  0.0420 -0.0888 -0.0099
  404POPI   C4B 6332   7.593  12.539   8.827 -0.1914 -0.3006 -0.2305
  405POPI    C1 6333   9.743   1.218  10.183 -0.0999  0.0897 -0.2548
  405POPI    C2 6334   9.993   1.023  10.427  0.1798  0.4199 -0.2697
  405POPI    C3 6335   9.643   1.159  10.566  0.1275  0.1949 -0.1772
  405POPI   PO4 6336   9.822   1.081   9.940  0.0322  0.0617 -0.1025
  405POPI   GL1 6337  10.024   0.940   9.692  0.0014  0.3870  0.2594
  405POPI   GL2 6338   9.934   0.693   9.435  0.0081 -0.1099 -0.1137
  405POPI   C1A 6339  10.306   1.038   9.417  0.0912  0.2195  0.0907
  405POPI   D2A 6340  10.311   1.144   8.977  0.1186  0.2593  0.0083
  405POPI   C3A 6341  10.329   1.089   8.592 -0.0278  0.0694  0.0525
  405POPI   C4A 6342  10.206   1.070   8.102 -0.3415  0.0444  0.0659
  405POPI   C1B 6343  10.098   0.641   9.115  0.3157  0.1006  0.1739
  405POPI   C2B 6344  10.217   0.649   8.758 -0.2212  0.0684 -0.1718
  405POPI   C3B 6345  10.309   0.593   8.366 -0.2363 -0.1133 -0.3706
  405POPI   C4B 6346  10.242   0.471   8.025  0.1174  0.0876  0.0497
  406POPI    C1 6347   4.727   8.917  10.430  0.1082  0.1841 -0.2055
  406POPI    C2 6348   4.650   9.161  10.738 -0.0670  0.0741 -0.1609
  406POPI    C3 6349   4.394   8.867  10.646  0.0281  0.0510 -0.3573
  406POPI   PO4 6350   4.842   9.107  10.248 -0.1412 -0.0930 -0.1298
  406POPI   GL1 6351   4.752   9.424   9.915  0.0875 -0.0021 -0.0674
  406POPI   GL2 6352   4.958   9.124   9.793  0.0297  0.0526 -0.0831
  406POPI   C1A 6353   4.683   9.527   9.544  0.2183 -0.0427 -0.0549
  406POPI   D2A 6354   4.730   9.587   9.137  0.1190  0.3469 -0.1389
  406POPI   C3A 6355   4.641   9.465   8.691  0.1050  0.1374  0.1145
  406POPI   C4A 6356   4.633   9.191   8.302 -0.2542 -0.1546  0.1595
  406POPI   C1B 6357   5.022   9.199   9.344  0.1426 -0.2849  0.1184
  406POPI   C2B 6358   4.940   9.141   8.993  0.2164  0.1270  0.2860
  406POPI   C3B 6359   4.737   8.959   8.729 -0.2048 -0.0215  0.2473
  406POPI   C4B 6360   4.801   8.724   8.310  0.0970 -0.2050 -0.1248
  407POPI    C1 6361  12.711   0.608  10.590  0.0223 -0.0385 -0.0328
  407POPI    C2 6362  12.836   0.455  10.937  0.1431 -0.2086 -0.1498
  407POPI    C3 6363  12.444   0.478  10.859  0.0788  0.4869  0.2909
  407POPI   PO4 6364  12.829   0.478  10.411 -0.1039  0.0935 -0.2135
  407POPI   GL1 6365  12.779   0.561   9.961 -0.1925  0.1419 -0.0016
  407POPI   GL2 6366  12.666   0.329   9.847  0.0668 -0.1904  0.2271
  407POPI   C1A 6367  13.016   0.772   9.548 -0.0374 -0.0964 -0.1140
  407POPI   D2A 6368  12.755   0.781   9.230 -0.0476  0.0177  0.2070
  407POPI   C3A 6369  12.793   0.479   9.019 -0.2069 -0.3687 -0.0839
  407POPI   C4A 6370  12.859   0.465   8.664 -0.1885 -0.1547 -0.2343
  407POPI   C1B 6371  12.467   0.481   9.557  0.1276 -0.3316  0.2148
  407POPI   C2B 6372  12.154   0.893   9.306  0.0437 -0.2712 -0.0631
  407POPI   C3B 6373  11.938   0.840   8.896  0.0757  0.2257 -0.2019
  407POPI   C4B 6374  11.553   0.942   8.835  0.2964 -0.0223 -0.1142
  408POPI    C1 6375  15.822  14.921  10.599  0.2213 -0.1001 -0.2558
  408POPI    C2 6376  15.864  14.538  10.708  0.0386 -0.0676 -0.0633
  408POPI    C3 6377  15.705  14.802  10.963  0.2130  0.1490 -0.1752
  408POPI   PO4 6378  15.616  14.882  10.399 -0.0839 -0.0526 -0.0890
  408POPI   GL1 6379  15.455  14.802  10.036 -0.3414  0.2299 -0.1252
  408POPI   GL2 6380  15.425  15.104   9.954 -0.0514  0.0533 -0.0686
  408POPI   C1A 6381  15.700  14.897   9.608 -0.1822  0.2263  0.1040
  408POPI   D2A 6382  15.744  15.009   9.163 -0.1605  0.0565  0.2382
  408POPI   C3A 6383  15.666  15.107   8.793  0.1546 -0.2306  0.3512
  408POPI   C4A 6384  15.461  15.209   8.498  0.1508 -0.1828  0.1988
  408POPI   C1B 6385  15.132  15.066   9.621 -0.1187  0.2276 -0.1282
  408POPI   C2B 6386  14.966  15.424   9.357  0.0272  0.3349  0.0046
  408POPI   C3B 6387  14.844  15.642   9.060 -0.1541  0.0398 -0.0704
  408POPI   C4B 6388  14.754  15.913   8.759  0.1085 -0.2134  0.1269
  409POPI    C1 6389   6.749   1.300  10.443  0.0466 -0.1067  0.0038
  409POPI    C2 6390   7.032   1.509  10.252 -0.1945  0.1315 -0.0985
  409POPI    C3 6391   6.989   1.544  10.649 -0.0573  0.0655 -0.0773
  409POPI   PO4 6392   6.759   1.003  10.322  0.0997  0.3676 -0.2766
  409POPI   GL1 6393   6.643   0.841   9.929 -0.0324 -0.0450 -0.0001
  409POPI   GL2 6394   6.513   0.590  10.003  0.2678 -0.0284 -0.2787
  409POPI   C1A 6395   6.444   0.623   9.514  0.0543 -0.3162  0.2363
  409POPI   D2A 6396   6.343   0.608   9.133  0.3791  0.1608  0.5277
  409POPI   C3A 6397   6.510   0.739   8.770  0.1492  0.4461 -0.0465
  409POPI   C4A 6398   6.351   0.913   8.368  0.3824  0.2955  0.2615
  409POPI   C1B 6399   6.133   0.534   9.887  0.1658  0.0903 -0.0291
  409POPI   C2B 6400   5.960   0.424   9.443  0.0941  0.1644  0.1331
  409POPI   C3B 6401   5.896   0.391   9.041 -0.0707  0.0646 -0.0520
  409POPI   C4B 6402   6.018   0.563   8.578 -0.2712 -0.1200 -0.2953
  410POPI    C1 6403   3.983   0.584  11.063 -0.3410 -0.0595 -0.1126
  410POPI    C2 6404   3.658   0.469  11.266 -0.0944  0.1567  0.4254
  410POPI    C3 6405   4.022   0.386  11.408  0.0922  0.0450 -0.0963
  410POPI   PO4 6406   3.803   0.590  10.791 -0.0931  0.0126  0.3204
  410POPI   GL1 6407   3.955   0.693  10.474 -0.2213  0.2696  0.0259
  410POPI   GL2 6408   4.262   0.678  10.463 -0.2679 -0.0413 -0.3772
  410POPI   C1A 6409   3.801   0.661  10.015  0.0335 -0.0358  0.1670
  410POPI   D2A 6410   3.687   0.555   9.662 -0.1078 -0.0906  0.0193
  410POPI   C3A 6411   3.815   0.607   9.176 -0.0075 -0.2312 -0.0414
  410POPI   C4A 6412   3.740   0.715   8.700 -0.1091 -0.2870 -0.0140
  410POPI   C1B 6413   4.400   0.450  10.153  0.3202 -0.2678 -0.2594
  410POPI   C2B 6414   4.194   0.406   9.709 -0.0114  0.0745  0.0766
  410POPI   C3B 6415   4.185   0.369   9.307 -0.1761 -0.1877  0.0522
  410POPI   C4B 6416   4.176   0.408   8.838  0.2244  0.1834 -0.0711
  411POPI    C1 6417   3.565  11.734  10.750 -0.1899 -0.0035 -0.1612
  411POPI    C2 6418   3.451  12.055  10.960 -0.1329 -0.0482 -0.0612
  411POPI    C3 6419   3.429  11.691  11.124 -0.2338 -0.1001 -0.1878
  411POPI   PO4 6420   3.651  11.944  10.481 -0.0751 -0.0280 -0.4655
  411POPI   GL1 6421   3.621  12.212  10.175  0.1367 -0.1137  0.1822
  411POPI   GL2 6422   3.255  12.281  10.254 -0.1294 -0.2364  0.0095
  411POPI   C1A 6423   3.796  12.204   9.799  0.1579  0.1202 -0.0597
  411POPI   D2A 6424   3.893  12.138   9.363 -0.0737 -0.0038 -0.0491
  411POPI   C3A 6425   3.831  12.264   8.984  0.2471  0.0191  0.1643
  411POPI   C4A 6426   3.716  12.156   8.527 -0.2632  0.1213  0.0013
  411POPI   C1B 6427   3.314  12.393   9.871 -0.1159 -0.0225 -0.1544
  411POPI   C2B 6428   3.304  12.427   9.349  0.2332  0.1791 -0.1257
  411POPI   C3B 6429   3.154  12.500   8.922 -0.0281 -0.3197  0.2493
  411POPI   C4B 6430   3.234  12.715   8.462  0.2586 -0.6123  0.1946
  412POPI    C1 6431  13.170  11.072  10.643  0.2101  0.0591  0.1104
  412POPI    C2 6432  13.514  10.941  10.802  0.1091 -0.1247  0.1805
  412POPI    C3 6433  13.193  10.994  11.035  0.0464 -0.1019  0.0895
  412POPI   PO4 6434  13.162  11.101  10.352 -0.0037 -0.0639  0.1802
  412POPI   GL1 6435  13.261  11.177  10.017 -0.0843 -0.1945 -0.2417
  412POPI   GL2 6436  13.338  10.898   9.914  0.1450 -0.0731  0.0704
  412POPI   C1A 6437  13.070  11.215   9.694 -0.0696 -0.0395 -0.3744
  412POPI   D2A 6438  13.172  11.162   9.268  0.2176 -0.1611  0.3019
  412POPI   C3A 6439  13.233  11.330   8.857 -0.1613  0.0150 -0.0512
  412POPI   C4A 6440  13.375  11.620   8.477  0.1234 -0.1091  0.1670
  412POPI   C1B 6441  13.500  10.911   9.565 -0.1762 -0.0593  0.0653
  412POPI   C2B 6442  13.620  11.033   9.046  0.0010 -0.0056 -0.2321
  412POPI   C3B 6443  13.777  10.992   8.680  0.4269  0.1094 -0.1257
  412POPI   C4B 6444  13.714  11.146   8.306  0.2121 -0.3594  0.0538
  413POPI    C1 6445  11.703   1.530  10.304  0.1688 -0.1896  0.1939
  413POPI    C2 6446  11.869   1.707  10.623  0.1650 -0.2641  0.2375
  413POPI    C3 6447  11.693   1.349  10.661  0.2941 -0.3408  0.1219
  413POPI   PO4 6448  11.919   1.573  10.141  0.2445  0.0726 -0.0584
  413POPI   GL1 6449  11.913   1.832   9.789 -0.1216  0.1104 -0.3288
  413POPI   GL2 6450  11.567   1.879   9.821  0.2501 -0.1198 -0.3158
  413POPI   C1A 6451  12.020   1.941   9.383  0.2779  0.1358 -0.2660
  413POPI   D2A 6452  12.037   1.995   8.959 -0.0491 -0.0948  0.0523
  413POPI   C3A 6453  12.122   1.785   8.533  0.1562  0.4220 -0.1914
  413POPI   C4A 6454  12.302   2.004   8.219  0.0540  0.0241 -0.1132
  413POPI   C1B 6455  11.510   2.001   9.426 -0.1438 -0.2397  0.1058
  413POPI   C2B 6456  11.488   1.892   8.977  0.2500  0.1683  0.4463
  413POPI   C3B 6457  11.655   1.818   8.567 -0.1756 -0.1130 -0.0152
  413POPI   C4B 6458  11.735   1.646   8.127  0.1304  0.2231  0.1213
  414POPI    C1 6459   9.866  11.512  11.143 -0.2162  0.2093 -0.1755
  414POPI    C2 6460   9.819  11.907  11.184  0.1316  0.2330  0.0389
  414POPI    C3 6461  10.186  11.748  11.186 -0.0079 -0.0986  0.0064
  414POPI   PO4 6462   9.635  11.366  10.874  0.0967  0.0648 -0.0041
  414POPI   GL1 6463   9.461  11.368  10.463 -0.0506  0.0675  0.1713
  414POPI   GL2 6464   9.741  11.440  10.362  0.0676 -0.1210 -0.0226
  414POPI   C1A 6465   9.577  10.943  10.288  0.0722 -0.0073 -0.2124
  414POPI   D2A 6466   9.336  10.620  10.073  0.0647  0.1934  0.0419
  414POPI   C3A 6467   9.393  10.615   9.640  0.1799 -0.0364 -0.2945
  414POPI   C4A 6468   9.327  10.614   9.197  0.0398  0.3990 -0.0044
  414POPI   C1B 6469   9.555  11.394   9.986  0.2779 -0.1931  0.0171
  414POPI   C2B 6470   9.659  11.042   9.746  0.3245 -0.1052 -0.0465
  414POPI   C3B 6471   9.771  10.866   9.335 -0.1313  0.1745 -0.5012
  414POPI   C4B 6472   9.726  10.812   9.006 -0.1630 -0.0130  0.0393
  415POPI    C1 6473  12.476  16.979  10.246 -0.1679 -0.1178  0.0479
  415POPI    C2 6474  12.778  16.717  10.257  0.0564  0.1351  0.0321
  415POPI    C3 6475  12.693  16.938  10.579 -0.0756  0.1076  0.0172
  415POPI   PO4 6476  12.264  16.859  10.070 -0.2326 -0.2284  0.0663
  415POPI   GL1 6477  12.003  16.964   9.767 -0.2164  0.0459 -0.1591
  415POPI   GL2 6478  11.784  16.747   9.598  0.0062 -0.1058  0.4642
  415POPI   C1A 6479  12.024  17.105   9.277 -0.2212  0.2020 -0.0372
  415POPI   D2A 6480  12.167  17.184   8.873 -0.3243  0.0783  0.3123
  415POPI   C3A 6481  12.120  17.136   8.423  0.0310 -0.1088 -0.1078
  415POPI   C4A 6482  12.199  16.988   8.034  0.2950 -0.0506  0.1453
  415POPI   C1B 6483  11.754  16.685   9.217  0.2242  0.0121 -0.0297
  415POPI   C2B 6484  11.894  16.742   8.844 -0.0856  0.0449 -0.4030
  415POPI   C3B 6485  12.036  16.644   8.426  0.0637  0.1215 -0.0698
  415POPI   C4B 6486  12.329  16.524   8.144 -0.3033  0.3321  0.0075
  416POPI    C1 6487  16.451  16.291  10.916 -0.2391  0.1594 -0.1009
  416POPI    C2 6488  16.495  15.973  11.156  0.0571  0.0979 -0.2334
  416POPI    C3 6489  16.346  16.315  11.301  0.2044  0.0517  0.0316
  416POPI   PO4 6490  16.493  16.161  10.639 -0.0113 -0.0474  0.1358
  416POPI   GL1 6491  16.419  15.883  10.274 -0.0590  0.0561 -0.1901
  416POPI   GL2 6492  16.276  15.642  10.105 -0.2494  0.2935  0.1709
  416POPI   C1A 6493  16.620  16.027   9.977  0.1790 -0.0886  0.2003
  416POPI   D2A 6494  16.819  15.926   9.570  0.1417 -0.2276 -0.0401
  416POPI   C3A 6495  16.681  16.182   9.220 -0.2566  0.0287 -0.0040
  416POPI   C4A 6496  16.738  16.646   9.127 -0.1978 -0.2831  0.0667
  416POPI   C1B 6497  16.246  15.528   9.721 -0.0478  0.0355  0.0830
  416POPI   C2B 6498  16.154  15.249   9.390  0.0350 -0.0236  0.5023
  416POPI   C3B 6499  16.212  15.103   9.031 -0.3473  0.3587 -0.1579
  416POPI   C4B 6500  16.170  15.270   8.611  0.0353 -0.0241 -0.0711
  417POPI    C1 6501   8.801   7.751  10.823 -0.2822  0.2924  0.0903
  417POPI    C2 6502   8.520   7.501  10.959  0.0413 -0.0160  0.2083
  417POPI    C3 6503   8.885   7.498  11.121  0.2112  0.1491 -0.1605
  417POPI   PO4 6504   8.784   7.807  10.593  0.5109  0.2006  0.1413
  417POPI   GL1 6505   8.601   7.863  10.271  0.1356  0.2842  0.1127
  417POPI   GL2 6506   8.553   7.578  10.060  0.2481  0.0841  0.1677
  417POPI   C1A 6507   8.731   7.989   9.870  0.1246  0.1008  0.2220
  417POPI   D2A 6508   8.665   8.015   9.456  0.1199 -0.2940 -0.1616
  417POPI   C3A 6509   8.514   7.840   8.966  0.0452  0.0912  0.2280
  417POPI   C4A 6510   8.627   8.008   8.470  0.1922 -0.0930 -0.1002
  417POPI   C1B 6511   8.415   7.666   9.671 -0.2153 -0.1553  0.0262
  417POPI   C2B 6512   8.543   7.456   9.316 -0.0912 -0.1541 -0.1622
  417POPI   C3B 6513   8.505   7.339   8.938  0.3628 -0.1264  0.0290
  417POPI   C4B 6514   8.576   7.514   8.524 -0.1154 -0.4502 -0.1683
  418POPI    C1 6515   1.874  11.286  10.634 -0.0633 -0.0007  0.2132
  418POPI    C2 6516   1.900  10.888  10.659 -0.0875 -0.0160  0.0143
  418POPI    C3 6517   2.215  11.116  10.755  0.0296 -0.0977 -0.1721
  418POPI   PO4 6518   1.829  11.356  10.431  0.2193 -0.0601 -0.1600
  418POPI   GL1 6519   1.948  11.361  10.046  0.1530 -0.2762  0.1181
  418POPI   GL2 6520   1.632  11.441   9.955 -0.0013  0.2461 -0.2895
  418POPI   C1A 6521   1.951  11.298   9.595 -0.1896 -0.0490 -0.0502
  418POPI   D2A 6522   2.084  11.511   9.210  0.2548  0.0332  0.0093
  418POPI   C3A 6523   1.930  11.479   8.800  0.0222 -0.0547 -0.4372
  418POPI   C4A 6524   2.028  11.439   8.302 -0.0081  0.1743  0.1525
  418POPI   C1B 6525   1.527  11.463   9.446  0.1771  0.0308 -0.0649
  418POPI   C2B 6526   1.401  11.638   9.074 -0.0215 -0.0710  0.1295
  418POPI   C3B 6527   1.331  11.771   8.677  0.1102 -0.0039  0.2150
  418POPI   C4B 6528   1.324  11.621   8.222  0.0659 -0.2453  0.3824
  419POPI    C1 6529  15.566  17.443  10.719  0.3753 -0.2617  0.0599
  419POPI    C2 6530  15.404  17.143  10.509 -0.0177 -0.0863  0.1046
  419POPI    C3 6531  15.263  17.232  10.873 -0.0288  0.2668  0.0181
  419POPI   PO4 6532  15.609  17.663  10.501 -0.5423  0.2762 -0.2596
  419POPI   GL1 6533  15.612  17.848  10.078  0.0180  0.0617 -0.2469
  419POPI   GL2 6534  15.345  17.555  10.100 -0.0309 -0.1421 -0.0976
  419POPI   C1A 6535  15.529  17.712   9.666 -0.2521 -0.0205  0.0745
  419POPI   D2A 6536  15.325  17.494   9.434 -0.1769 -0.0239 -0.0229
  419POPI   C3A 6537  15.396  17.586   9.114  0.0703 -0.3017 -0.2494
  419POPI   C4A 6538  15.641  17.772   8.737  0.2687  0.0068  0.1149
  419POPI   C1B 6539  15.697  17.276   9.852 -0.1865  0.0429  0.0025
  419POPI   C2B 6540  15.868  17.296   9.351  0.0756  0.0414  0.1459
  419POPI   C3B 6541  15.994  17.417   8.980 -0.1263  0.0057  0.1179
  419POPI   C4B 6542  16.304  17.689   8.792 -0.1329 -0.1313  0.1338
  420POPI    C1 6543   4.001  12.045  10.876 -0.0327 -0.0662  0.0558
  420POPI    C2 6544   4.184  12.064  11.232  0.0025 -0.0498  0.0369
  420POPI    C3 6545   3.915  11.777  11.161 -0.0496 -0.0165  0.0976
  420POPI   PO4 6546   4.110  12.063  10.705 -0.2143 -0.0322  0.2752
  420POPI   GL1 6547   4.052  12.341  10.353  0.2354 -0.1514  0.0229
  420POPI   GL2 6548   3.793  12.646  10.260 -0.1206  0.2251 -0.0714
  420POPI   C1A 6549   4.173  12.416   9.952  0.0769 -0.1262  0.1040
  420POPI   D2A 6550   4.280  12.463   9.563  0.0173 -0.1769 -0.3987
  420POPI   C3A 6551   4.251  12.439   9.170 -0.2195  0.1549  0.0147
  420POPI   C4A 6552   4.223  12.607   8.758  0.0518  0.2226 -0.0371
  420POPI   C1B 6553   3.782  12.714   9.870  0.1496 -0.0409  0.0513
  420POPI   C2B 6554   3.835  12.614   9.444  0.1934  0.1324  0.0281
  420POPI   C3B 6555   3.701  12.791   9.050  0.3118 -0.0253 -0.2568
  420POPI   C4B 6556   3.715  12.647   8.641 -0.1847  0.0360 -0.2988
  421POPI    C1 6557  16.985   6.989  10.554  0.1340  0.0747  0.0979
  421POPI    C2 6558  16.880   7.227  10.857 -0.1352  0.0539  0.0242
  421POPI    C3 6559  16.831   6.832  10.888 -0.3262  0.0661 -0.1108
  421POPI   PO4 6560  16.832   7.078  10.326 -0.0051  0.4413  0.0147
  421POPI   GL1 6561  16.823   7.409   9.994  0.0096  0.1718  0.0530
  421POPI   GL2 6562  17.040   7.629  10.091  0.2884  0.1373 -0.1259
  421POPI   C1A 6563  16.907   7.442   9.555 -0.0591  0.1011  0.1011
  421POPI   D2A 6564  16.983   7.392   9.187 -0.2195 -0.0211 -0.2315
  421POPI   C3A 6565  16.933   7.380   8.679  0.2010  0.3403 -0.0472
  421POPI   C4A 6566  16.899   7.375   8.266 -0.1759  0.1029 -0.1236
  421POPI   C1B 6567  16.878   7.960   9.803 -0.0708 -0.1371 -0.0573
  421POPI   C2B 6568  16.703   8.274   9.520  0.1032  0.1806  0.1027
  421POPI   C3B 6569  16.734   8.349   9.129 -0.1100 -0.0617 -0.1831
  421POPI   C4B 6570  16.846   8.596   8.760  0.1616 -0.2448 -0.0648
  422POPI    C1 6571  17.550   8.239  10.794  0.0426 -0.1883  0.2908
  422POPI    C2 6572  17.156   8.303  10.814  0.0050 -0.3313  0.0450
  422POPI    C3 6573  17.329   8.042  11.063 -0.0360 -0.1853  0.2288
  422POPI   PO4 6574  17.533   8.221  10.467  0.2047 -0.0363 -0.0091
  422POPI   GL1 6575  17.751   8.286  10.067  0.0673 -0.3897  0.0298
  422POPI   GL2 6576  17.385   8.063  10.043  0.3708  0.2252 -0.1878
  422POPI   C1A 6577  17.685   8.402   9.609 -0.1460  0.0785 -0.3066
  422POPI   D2A 6578  17.754   8.608   9.220  0.1206 -0.1216  0.1165
  422POPI   C3A 6579  17.735   8.541   8.825 -0.1048  0.0350 -0.0896
  422POPI   C4A 6580  17.711   8.374   8.414  0.1514  0.0562  0.0484
  422POPI   C1B 6581  17.414   8.003   9.613  0.2952 -0.1606  0.2010
  422POPI   C2B 6582  17.150   7.907   9.313 -0.0294  0.3112 -0.2335
  422POPI   C3B 6583  16.921   7.832   8.960 -0.0751  0.0087 -0.0823
  422POPI   C4B 6584  16.608   7.741   8.549 -0.0619 -0.0139 -0.0934
  423DPPI    C1 6585   0.425  15.183  11.509  0.0669  0.1271 -0.0544
  423DPPI    C2 6586   0.412  14.924  11.814  0.1232  0.1531 -0.0300
  423DPPI    C3 6587   0.232  15.280  11.846 -0.0059  0.0933 -0.0860
  423DPPI   PO4 6588   0.277  15.118  11.315  0.1311 -0.2421  0.0319
  423DPPI   GL1 6589   0.302  15.114  10.865 -0.2722 -0.2002 -0.0361
  423DPPI   GL2 6590   0.474  14.953  10.647 -0.1859 -0.0006  0.1157
  423DPPI   C1A 6591   0.110  15.338  10.533 -0.1431  0.3473 -0.0167
  423DPPI   C2A 6592   0.118  15.294  10.098 -0.1102  0.0037  0.2206
  423DPPI   C3A 6593   0.174  15.385   9.605 -0.2964 -0.2488  0.2044
  423DPPI   C4A 6594   0.107  15.559   9.160 -0.1314 -0.3761  0.1489
  423DPPI   C1B 6595   0.538  15.120  10.305 -0.1496  0.1067  0.1968
  423DPPI   C2B 6596   0.573  15.141   9.837  0.0036  0.0524  0.0099
  423DPPI   C3B 6597   0.607  15.230   9.395 -0.0325 -0.0686  0.1430
  423DPPI   C4B 6598   0.519  15.393   9.023 -0.1236  0.1401  0.0951
  424DPPI    C1 6599   0.958  11.093  10.462 -0.1402  0.1883  0.2969
  424DPPI    C2 6600   0.832  11.253  10.807 -0.0056  0.0401  0.4163
  424DPPI    C3 6601   0.923  10.863  10.787 -0.5356 -0.0768  0.0746
  424DPPI   PO4 6602   1.023  11.356  10.250 -0.3505  0.1328 -0.1948
  424DPPI   GL1 6603   0.918  11.635  10.079  0.0023  0.1754 -0.0546
  424DPPI   GL2 6604   0.585  11.624   9.931  0.3422 -0.1807 -0.2004
  424DPPI   C1A 6605   1.024  11.528   9.670  0.1220 -0.0900  0.1443
  424DPPI   C2A 6606   0.974  11.621   9.257  0.2213 -0.0799 -0.2954
  424DPPI   C3A 6607   0.909  11.935   8.956 -0.1140  0.1436  0.2086
  424DPPI   C4A 6608   0.866  11.989   8.500  0.1596 -0.1820  0.1115
  424DPPI   C1B 6609   0.559  11.838   9.523 -0.0408  0.4250  0.3094
  424DPPI   C2B 6610   0.451  12.170   9.195  0.0593  0.0412  0.0878
  424DPPI   C3B 6611   0.379  12.133   8.772  0.3242 -0.1746  0.0534
  424DPPI   C4B 6612   0.261  12.154   8.436 -0.2297 -0.2537 -0.0126
  425DPPI    C1 6613  14.485   5.384  10.534  0.0126  0.2180 -0.0903
  425DPPI    C2 6614  14.435   5.721  10.744 -0.1187  0.1165  0.0433
  425DPPI    C3 6615  14.493   5.374  10.934 -0.0560  0.0520 -0.0925
  425DPPI   PO4 6616  14.650   5.476  10.276 -0.1137  0.0203  0.1966
  425DPPI   GL1 6617  14.811   5.457   9.834 -0.0337  0.0786 -0.0034
  425DPPI   GL2 6618  14.731   5.143   9.840 -0.0319  0.0052 -0.0740
  425DPPI   C1A 6619  14.839   5.650   9.474 -0.0152 -0.0734  0.1621
  425DPPI   C2A 6620  14.878   5.509   9.124 -0.0036  0.0280 -0.0504
  425DPPI   C3A 6621  15.112   5.498   8.717 -0.1279 -0.1628  0.0440
  425DPPI   C4A 6622  15.251   5.444   8.318 -0.1403 -0.0214  0.3567
  425DPPI   C1B 6623  14.624   5.177   9.379  0.0111  0.0499 -0.3462
  425DPPI   C2B 6624  14.693   5.176   8.836  0.1759  0.0208  0.1790
  425DPPI   C3B 6625  14.744   5.373   8.419 -0.0524 -0.1097  0.5655
  425DPPI   C4B 6626  14.738   5.607   8.051 -0.0832  0.1346 -0.0884
  426DPPI    C1 6627   9.308  14.378  10.729  0.0302  0.1548 -0.1709
  426DPPI    C2 6628   8.981  14.163  10.813  0.2625 -0.2006 -0.1492
  426DPPI    C3 6629   9.260  14.220  11.094  0.0718  0.3843 -0.0644
  426DPPI   PO4 6630   9.269  14.309  10.419  0.0106 -0.1024  0.0441
  426DPPI   GL1 6631   9.104  14.666  10.115 -0.0651  0.1060 -0.2109
  426DPPI   GL2 6632   9.187  14.927  10.111  0.1813 -0.1079 -0.0126
  426DPPI   C1A 6633   9.281  14.525   9.681  0.2295 -0.0890  0.0714
  426DPPI   C2A 6634   9.310  14.515   9.294  0.2248 -0.2003  0.2178
  426DPPI   C3A 6635   9.128  14.534   8.930  0.0644  0.0637  0.1138
  426DPPI   C4A 6636   8.869  14.661   8.539 -0.1343  0.0664 -0.3508
  426DPPI   C1B 6637   9.428  15.012   9.912  0.2869  0.1465 -0.1575
  426DPPI   C2B 6638   9.463  14.950   9.484 -0.0008  0.1407  0.1108
  426DPPI   C3B 6639   9.423  14.992   8.981 -0.0512  0.0843 -0.1070
  426DPPI   C4B 6640   9.289  14.908   8.594  0.2087  0.0042  0.0529
  427DPPI    C1 6641   1.778   4.930  10.721 -0.2416  0.1428 -0.1792
  427DPPI    C2 6642   1.512   4.636  10.778 -0.2877  0.2059 -0.0646
  427DPPI    C3 6643   1.612   4.877  11.081 -0.0030  0.1028 -0.0737
  427DPPI   PO4 6644   1.922   4.883  10.536 -0.0433  0.1233  0.0236
  427DPPI   GL1 6645   2.150   4.624  10.288 -0.0300  0.0926 -0.2508
  427DPPI   GL2 6646   2.332   4.722  10.110  0.1722  0.0764  0.0844
  427DPPI   C1A 6647   1.862   4.455   9.983 -0.1473 -0.3089 -0.1275
  427DPPI   C2A 6648   1.820   4.420   9.580  0.2429  0.0204  0.1642
  427DPPI   C3A 6649   1.890   4.298   9.124  0.0507  0.0675  0.2414
  427DPPI   C4A 6650   1.786   4.299   8.727  0.0368 -0.2934 -0.2214
  427DPPI   C1B 6651   2.278   4.658   9.694  0.4867 -0.2877  0.0918
  427DPPI   C2B 6652   2.296   4.664   9.304  0.0012  0.1557  0.0433
  427DPPI   C3B 6653   2.226   4.577   8.909  0.0184  0.0450  0.1966
  427DPPI   C4B 6654   2.334   4.605   8.489 -0.3081  0.1189 -0.1894
  428DPPI    C1 6655  10.792   8.082  10.986 -0.0430  0.2811  0.0459
  428DPPI    C2 6656  10.590   7.907  11.284 -0.0986 -0.0641 -0.1887
  428DPPI    C3 6657  10.745   8.272  11.335 -0.2569 -0.0466  0.2009
  428DPPI   PO4 6658  10.632   7.986  10.781 -0.1658 -0.1296 -0.1530
  428DPPI   GL1 6659  10.667   7.944  10.376  0.0465 -0.2602 -0.1931
  428DPPI   GL2 6660  10.957   8.048  10.227 -0.2507  0.1060 -0.2616
  428DPPI   C1A 6661  10.491   7.775   9.970 -0.0230  0.2040  0.1929
  428DPPI   C2A 6662  10.613   7.746   9.643 -0.3224  0.1258 -0.0050
  428DPPI   C3A 6663  10.417   8.027   9.245  0.1403 -0.0068 -0.1468
  428DPPI   C4A 6664  10.397   8.109   8.810 -0.1668 -0.0388  0.2284
  428DPPI   C1B 6665  10.888   8.085   9.840  0.0848  0.1295 -0.2572
  428DPPI   C2B 6666  10.889   8.227   9.433  0.0421  0.0387  0.0955
  428DPPI   C3B 6667  10.781   8.388   9.011  0.2472 -0.2348 -0.1562
  428DPPI   C4B 6668  10.722   8.306   8.556  0.0422 -0.0300  0.0245
  429DPPI    C1 6669  13.659   2.348  10.540 -0.2621 -0.2373  0.0810
  429DPPI    C2 6670  13.857   2.011  10.624 -0.1247 -0.0927  0.3514
  429DPPI    C3 6671  14.058   2.338  10.512 -0.2655 -0.1262 -0.0102
  429DPPI   PO4 6672  13.467   2.221  10.403  0.1678 -0.0832  0.2319
  429DPPI   GL1 6673  13.229   2.060  10.046  0.0601  0.1959  0.0271
  429DPPI   GL2 6674  13.404   2.343   9.916 -0.0307 -0.2170  0.2142
  429DPPI   C1A 6675  13.259   2.027   9.535  0.1595  0.2480  0.2727
  429DPPI   C2A 6676  13.380   2.067   9.172 -0.2074  0.2967 -0.1620
  429DPPI   C3A 6677  13.423   2.000   8.783  0.1336  0.1059  0.0783
  429DPPI   C4A 6678  13.412   1.688   8.494  0.2185  0.0199  0.1193
  429DPPI   C1B 6679  13.421   2.540   9.544 -0.2887  0.1155 -0.4371
  429DPPI   C2B 6680  13.428   2.526   9.137 -0.3283 -0.1790 -0.0456
  429DPPI   C3B 6681  13.528   2.505   8.689 -0.2604 -0.1444  0.1915
  429DPPI   C4B 6682  13.468   2.220   8.386 -0.4991  0.0065 -0.0669
  430DPPI    C1 6683   8.869   3.633  10.322 -0.1645  0.0669  0.2349
  430DPPI    C2 6684   9.165   3.597  10.590  0.0456 -0.0276 -0.0053
  430DPPI    C3 6685   8.944   3.278  10.492 -0.0550  0.0150  0.0811
  430DPPI   PO4 6686   9.070   3.798  10.112 -0.2206  0.0429  0.2542
  430DPPI   GL1 6687   9.150   3.653   9.747 -0.0124 -0.1771 -0.0576
  430DPPI   GL2 6688   9.432   3.671   9.780  0.1774 -0.0870  0.1033
  430DPPI   C1A 6689   9.065   3.524   9.356 -0.2839  0.2658  0.0623
  430DPPI   C2A 6690   9.135   3.565   8.826 -0.0725 -0.0955  0.2236
  430DPPI   C3A 6691   9.028   3.847   8.405 -0.0945 -0.0373 -0.0980
  430DPPI   C4A 6692   9.159   4.069   8.045  0.0204 -0.0819 -0.0560
  430DPPI   C1B 6693   9.510   3.763   9.395  0.2319  0.1263 -0.1689
  430DPPI   C2B 6694   9.443   3.864   9.072  0.1509 -0.0627 -0.2107
  430DPPI   C3B 6695   9.539   3.763   8.618  0.1444  0.0762  0.1609
  430DPPI   C4B 6696   9.455   3.690   8.240 -0.0311 -0.2260 -0.0494
  431DPPI    C1 6697  12.673  10.065  10.711  0.1014 -0.0672  0.0719
  431DPPI    C2 6698  12.348  10.071  10.944  0.0203  0.0857 -0.0439
  431DPPI    C3 6699  12.665  10.298  11.036  0.1188 -0.1085  0.1021
  431DPPI   PO4 6700  12.613  10.032  10.422 -0.2144  0.0932  0.1118
  431DPPI   GL1 6701  12.821   9.924  10.091  0.0327 -0.0430 -0.1115
  431DPPI   GL2 6702  13.043  10.018   9.912  0.0140  0.1483  0.0675
  431DPPI   C1A 6703  12.674   9.823   9.645 -0.0296 -0.1361 -0.2480
  431DPPI   C2A 6704  12.758   9.814   9.203  0.1156 -0.0249 -0.0550
  431DPPI   C3A 6705  12.749   9.999   8.846 -0.1920 -0.2825 -0.3114
  431DPPI   C4A 6706  12.562   9.907   8.433  0.0235  0.0217 -0.1223
  431DPPI   C1B 6707  13.134  10.014   9.469  0.0626  0.0823  0.0349
  431DPPI   C2B 6708  13.219  10.133   9.039  0.1634  0.2415 -0.1894
  431DPPI   C3B 6709  13.165  10.322   8.580 -0.2941  0.1565 -0.2148
  431DPPI   C4B 6710  13.352  10.327   8.211  0.5375 -0.0297 -0.0225
  432DPPI    C1 6711   7.601   6.802  10.895 -0.0125  0.1189  0.0537
  432DPPI    C2 6712   7.726   7.142  11.064  0.1019  0.1716 -0.1350
  432DPPI    C3 6713   7.794   6.793  11.246 -0.0772  0.2536  0.0933
  432DPPI   PO4 6714   7.657   6.757  10.608 -0.4733  0.0650  0.2564
  432DPPI   GL1 6715   7.649   6.852  10.132 -0.3051  0.1003  0.0092
  432DPPI   GL2 6716   7.577   7.143  10.217 -0.3705 -0.0693  0.1644
  432DPPI   C1A 6717   7.538   6.810   9.671 -0.2103  0.1585 -0.1624
  432DPPI   C2A 6718   7.518   6.951   9.259  0.1077 -0.1481 -0.0087
  432DPPI   C3A 6719   7.570   6.972   8.805  0.0212  0.0817  0.2751
  432DPPI   C4A 6720   7.336   7.029   8.366 -0.3801  0.2266 -0.0024
  432DPPI   C1B 6721   7.515   7.308   9.901 -0.1910 -0.2521  0.1846
  432DPPI   C2B 6722   7.478   7.464   9.531  0.0934 -0.0482  0.2720
  432DPPI   C3B 6723   7.524   7.406   9.116  0.2492 -0.0420 -0.0982
  432DPPI   C4B 6724   7.593   7.484   8.642  0.0568 -0.1165 -0.1198
  433DPPI    C1 6725   4.389   2.818  10.746 -0.1044  0.0554  0.0523
  433DPPI    C2 6726   4.544   2.472  10.872 -0.1236 -0.0524 -0.2130
  433DPPI    C3 6727   4.390   2.730  11.136  0.0380 -0.1724  0.0026
  433DPPI   PO4 6728   4.453   2.709  10.419  0.4040  0.0631  0.0689
  433DPPI   GL1 6729   4.822   2.884  10.182 -0.3578 -0.1650  0.0001
  433DPPI   GL2 6730   4.616   2.831   9.953  0.1217 -0.1652 -0.2639
  433DPPI   C1A 6731   5.047   3.044   9.740  0.2177  0.1604 -0.1637
  433DPPI   C2A 6732   5.011   3.023   9.405  0.0275  0.1132  0.2773
  433DPPI   C3A 6733   4.944   3.091   8.992  0.2440 -0.3464  0.1425
  433DPPI   C4A 6734   4.914   3.075   8.558 -0.4943 -0.0633  0.2346
  433DPPI   C1B 6735   4.603   2.781   9.491 -0.1139 -0.0176 -0.0511
  433DPPI   C2B 6736   4.591   2.735   9.043  0.1446 -0.0228 -0.1098
  433DPPI   C3B 6737   4.541   2.804   8.615  0.1232  0.0839  0.0001
  433DPPI   C4B 6738   4.423   3.023   8.162  0.2568  0.1788 -0.0581
  434DPPI    C1 6739   8.228   1.022   9.990 -0.0071  0.1248 -0.0956
  434DPPI    C2 6740   8.501   0.899  10.256  0.0875 -0.1082 -0.2957
  434DPPI    C3 6741   8.147   1.039  10.381  0.1528 -0.1608 -0.0473
  434DPPI   PO4 6742   8.370   1.222   9.818 -0.1420  0.0366  0.1458
  434DPPI   GL1 6743   8.413   1.200   9.418  0.0348  0.0543 -0.0251
  434DPPI   GL2 6744   8.680   1.420   9.450  0.1726 -0.1505 -0.0120
  434DPPI   C1A 6745   8.452   1.199   8.967  0.2128  0.0042 -0.0773
  434DPPI   C2A 6746   8.443   1.275   8.593  0.1406  0.0207  0.0163
  434DPPI   C3A 6747   8.232   1.113   8.203 -0.1911  0.1753  0.0669
  434DPPI   C4A 6748   8.040   0.945   7.864  0.0084 -0.0451 -0.0241
  434DPPI   C1B 6749   8.688   1.656   9.086  0.4257 -0.1200  0.0573
  434DPPI   C2B 6750   8.567   1.700   8.733 -0.2624 -0.0134 -0.1968
  434DPPI   C3B 6751   8.380   1.725   8.344  0.0336  0.3108 -0.2133
  434DPPI   C4B 6752   8.406   1.786   7.866  0.1517 -0.0352  0.1259
  435DPPI    C1 6753   2.754   7.256  10.687  0.1205  0.2662  0.1361
  435DPPI    C2 6754   2.994   7.016  10.476  0.0525  0.3186 -0.0029
  435DPPI    C3 6755   2.844   6.892  10.826  0.0138  0.1573 -0.0760
  435DPPI   PO4 6756   2.601   7.325  10.467  0.0762  0.0304 -0.3988
  435DPPI   GL1 6757   2.734   7.220  10.072  0.2662 -0.4112  0.0920
  435DPPI   GL2 6758   2.851   7.024  10.021  0.1979  0.0467  0.0086
  435DPPI   C1A 6759   2.803   7.489   9.695  0.1187  0.2293 -0.1645
  435DPPI   C2A 6760   2.838   7.526   9.261 -0.0817 -0.1803  0.0289
  435DPPI   C3A 6761   2.909   7.452   8.824  0.0532  0.0501  0.0288
  435DPPI   C4A 6762   2.677   7.363   8.454 -0.1246 -0.1382  0.1880
  435DPPI   C1B 6763   2.793   6.992   9.562  0.6878 -0.2821  0.1579
  435DPPI   C2B 6764   2.832   6.918   9.131 -0.0512  0.0021  0.2410
  435DPPI   C3B 6765   2.772   6.923   8.751 -0.0605  0.0557  0.0600
  435DPPI   C4B 6766   2.409   6.857   8.469  0.0764 -0.0898  0.0340
  436DPPI    C1 6767  10.054  15.181  10.674  0.0828 -0.0967  0.0688
  436DPPI    C2 6768   9.688  15.228  10.827  0.1217  0.0408  0.1218
  436DPPI    C3 6769   9.893  14.892  10.899  0.0260 -0.0157  0.1328
  436DPPI   PO4 6770  10.062  15.196  10.431  0.0009  0.1439 -0.0192
  436DPPI   GL1 6771   9.884  14.966  10.101 -0.0143  0.1591  0.1699
  436DPPI   GL2 6772  10.241  14.897  10.042  0.3960 -0.0133 -0.2701
  436DPPI   C1A 6773   9.928  15.050   9.555  0.2425  0.0247 -0.1626
  436DPPI   C2A 6774   9.867  15.077   9.111  0.1131  0.1098 -0.4370
  436DPPI   C3A 6775   9.829  15.098   8.688 -0.1209 -0.4597 -0.1910
  436DPPI   C4A 6776   9.795  15.215   8.398  0.0032  0.2554  0.2901
  436DPPI   C1B 6777  10.376  14.873   9.586  0.0205 -0.0548 -0.1530
  436DPPI   C2B 6778  10.343  14.919   9.102  0.2631 -0.1206 -0.1411
  436DPPI   C3B 6779  10.293  14.909   8.722 -0.3753  0.3425  0.1418
  436DPPI   C4B 6780  10.243  14.991   8.392  0.0000  0.1037 -0.3154
  437DPPI    C1 6781   8.994  11.114  11.133  0.0138 -0.0319  0.1949
  437DPPI    C2 6782   9.117  11.385  10.866 -0.2894 -0.1346 -0.0553
  437DPPI    C3 6783   9.261  11.011  10.853 -0.2235 -0.1112 -0.0059
  437DPPI   PO4 6784   8.655  11.115  11.043  0.0399  0.3157  0.0603
  437DPPI   GL1 6785   8.571  11.303  10.646  0.2049  0.0371 -0.1615
  437DPPI   GL2 6786   8.771  11.363  10.499  0.1968  0.0287  0.1067
  437DPPI   C1A 6787   8.617  11.144  10.131 -0.0496 -0.0005 -0.1664
  437DPPI   C2A 6788   8.465  11.120   9.752 -0.2844  0.0978  0.1813
  437DPPI   C3A 6789   8.398  11.056   9.320  0.2518 -0.3072 -0.0218
  437DPPI   C4A 6790   8.398  11.045   8.877 -0.4685  0.2398  0.1491
  437DPPI   C1B 6791   8.400  11.585  10.282 -0.3824  0.0860 -0.1725
  437DPPI   C2B 6792   8.332  11.561   9.874 -0.4024  0.0591  0.1353
  437DPPI   C3B 6793   8.394  11.570   9.427 -0.1611 -0.0496  0.1512
  437DPPI   C4B 6794   8.353  11.545   8.921 -0.1614 -0.1696  0.2636
  438DPPI    C1 6795   9.464   2.803  10.178 -0.2272  0.0919  0.1747
  438DPPI    C2 6796   9.316   2.541  10.442  0.2868 -0.1395  0.2463
  438DPPI    C3 6797   9.305   2.933  10.521 -0.1679 -0.1580  0.2992
  438DPPI   PO4 6798   9.654   2.613  10.007  0.0828 -0.1666 -0.0119
  438DPPI   GL1 6799   9.600   2.463   9.611 -0.2020 -0.0381 -0.2648
  438DPPI   GL2 6800   9.718   2.209   9.663 -0.1682 -0.0799  0.0280
  438DPPI   C1A 6801   9.521   2.595   9.160 -0.1499  0.0211 -0.0803
  438DPPI   C2A 6802   9.599   2.724   8.789  0.0801  0.2092  0.1627
  438DPPI   C3A 6803   9.762   2.521   8.440  0.0023 -0.0225 -0.0099
  438DPPI   C4A 6804  10.073   2.424   8.097 -0.1452 -0.2867  0.0781
  438DPPI   C1B 6805   9.956   2.127   9.262 -0.1444  0.2874 -0.3140
  438DPPI   C2B 6806   9.940   2.097   8.882  0.1460 -0.2932 -0.1268
  438DPPI   C3B 6807  10.095   2.004   8.437 -0.2558  0.0319  0.0787
  438DPPI   C4B 6808  10.272   1.983   8.081 -0.0775  0.0594  0.1979
  439DPPI    C1 6809   6.910   4.396  10.484 -0.0719 -0.1078 -0.0394
  439DPPI    C2 6810   7.095   4.056  10.583  0.4133  0.2145  0.2030
  439DPPI    C3 6811   6.893   4.262  10.861 -0.2553 -0.0851 -0.0382
  439DPPI   PO4 6812   6.768   4.381  10.353 -0.0719  0.5279 -0.0952
  439DPPI   GL1 6813   6.467   4.456   9.962  0.1317 -0.1047 -0.0498
  439DPPI   GL2 6814   6.715   4.624   9.789 -0.0027 -0.0904 -0.1299
  439DPPI   C1A 6815   6.200   4.539   9.531  0.0193  0.1538 -0.1524
  439DPPI   C2A 6816   6.126   4.648   9.000 -0.2786 -0.0289  0.2792
  439DPPI   C3A 6817   6.354   4.858   8.730  0.2430  0.1541 -0.0065
  439DPPI   C4A 6818   6.146   4.971   8.276  0.2048 -0.2872  0.1575
  439DPPI   C1B 6819   6.668   4.629   9.408  0.2108 -0.2248  0.2687
  439DPPI   C2B 6820   6.596   4.467   9.088 -0.0444  0.1541  0.0626
  439DPPI   C3B 6821   6.537   4.359   8.698  0.1931 -0.2648  0.1626
  439DPPI   C4B 6822   6.641   4.345   8.217  0.0666  0.2314 -0.0916
  440DPPI    C1 6823   3.539   5.767  10.582 -0.0449 -0.1962 -0.1026
  440DPPI    C2 6824   3.810   5.824  10.871 -0.1488 -0.0353 -0.0355
  440DPPI    C3 6825   3.674   5.455  10.794  0.1751 -0.1348 -0.1492
  440DPPI   PO4 6826   3.615   5.897  10.431  0.1720 -0.3051 -0.1028
  440DPPI   GL1 6827   3.680   5.829  10.030 -0.3097 -0.1842  0.3921
  440DPPI   GL2 6828   3.839   6.121  10.039  0.1980  0.0043 -0.1452
  440DPPI   C1A 6829   3.758   5.829   9.666  0.2713  0.0612  0.0994
  440DPPI   C2A 6830   3.690   5.841   9.209 -0.0811 -0.0227 -0.3543
  440DPPI   C3A 6831   3.635   5.832   8.795  0.1605 -0.0487  0.1092
  440DPPI   C4A 6832   3.585   5.802   8.390 -0.4087 -0.1279  0.1873
  440DPPI   C1B 6833   3.995   6.234   9.695  0.3715 -0.0232 -0.0244
  440DPPI   C2B 6834   3.956   6.228   9.350  0.1805  0.0510 -0.3840
  440DPPI   C3B 6835   4.120   6.192   8.980 -0.3785  0.1396 -0.1924
  440DPPI   C4B 6836   4.187   6.107   8.595 -0.1583 -0.1805 -0.1315
  441DPPI    C1 6837   5.919   0.875  11.027  0.0158 -0.0629 -0.0918
  441DPPI    C2 6838   5.642   1.146  11.128  0.1438  0.0615 -0.0717
  441DPPI    C3 6839   5.715   0.836  11.369 -0.0640 -0.0390 -0.1366
  441DPPI   PO4 6840   5.931   0.859  10.744  0.0744 -0.0320 -0.0746
  441DPPI   GL1 6841   5.964   1.072  10.330 -0.2309  0.1295  0.0296
  441DPPI   GL2 6842   6.291   1.164  10.118 -0.1983 -0.2627 -0.0318
  441DPPI   C1A 6843   5.704   0.888  10.091  0.1448 -0.1966  0.0772
  441DPPI   C2A 6844   5.636   0.767   9.679 -0.0572  0.1971  0.0486
  441DPPI   C3A 6845   5.544   0.679   9.330 -0.0437  0.0016 -0.0759
  441DPPI   C4A 6846   5.554   0.760   8.878 -0.0255 -0.0888 -0.0452
  441DPPI   C1B 6847   6.149   1.014   9.819  0.0004  0.0366  0.3265
  441DPPI   C2B 6848   6.053   0.961   9.410  0.1371  0.2019  0.1274
  441DPPI   C3B 6849   5.977   0.921   8.981  0.0236 -0.3030  0.0968
  441DPPI   C4B 6850   5.989   1.107   8.692 -0.0117 -0.1296 -0.0763
  442DPPI    C1 6851   2.705  15.338  11.392 -0.0639  0.2249 -0.2626
  442DPPI    C2 6852   2.669  15.676  11.604 -0.3122  0.0019  0.0616
  442DPPI    C3 6853   2.613  15.322  11.781 -0.0005 -0.2164 -0.2608
  442DPPI   PO4 6854   2.634  15.339  11.152 -0.0832  0.0779  0.0551
  442DPPI   GL1 6855   2.398  15.408  10.869  0.2618  0.0314 -0.2493
  442DPPI   GL2 6856   2.471  15.644  10.790  0.0013 -0.0670 -0.1245
  442DPPI   C1A 6857   2.466  15.211  10.537  0.2912  0.0009  0.2016
  442DPPI   C2A 6858   2.324  14.988  10.203  0.1531 -0.1051  0.0337
  442DPPI   C3A 6859   2.347  15.063   9.736 -0.1464 -0.0517  0.1247
  442DPPI   C4A 6860   2.432  15.175   9.314  0.2391 -0.0152  0.0564
  442DPPI   C1B 6861   2.426  15.757  10.490 -0.1802 -0.1167  0.0352
  442DPPI   C2B 6862   2.340  15.833  10.026 -0.2213 -0.0150 -0.0498
  442DPPI   C3B 6863   2.315  15.693   9.698  0.2385  0.2597 -0.0261
  442DPPI   C4B 6864   2.457  15.773   9.314  0.0622  0.1261 -0.0551
  443DPPI    C1 6865   7.388   0.302  10.285 -0.0430 -0.1523  0.0923
  443DPPI    C2 6866   7.652   0.346  10.583  0.0520  0.0079 -0.0138
  443DPPI    C3 6867   7.275   0.471  10.630  0.0533 -0.0144  0.0572
  443DPPI   PO4 6868   7.494   0.433  10.096  0.2196 -0.4050 -0.0527
  443DPPI   GL1 6869   7.721   0.323   9.799  0.2942  0.1751  0.0210
  443DPPI   GL2 6870   8.079   0.451   9.752  0.0348 -0.0053  0.0622
  443DPPI   C1A 6871   7.463   0.191   9.514  0.0691  0.0420  0.1122
  443DPPI   C2A 6872   7.432   0.178   9.053  0.0322 -0.1085 -0.1906
  443DPPI   C3A 6873   7.460   0.244   8.564 -0.0649  0.0951 -0.2197
  443DPPI   C4A 6874   7.289   0.158   8.185 -0.1563 -0.1431 -0.1672
  443DPPI   C1B 6875   7.873   0.379   9.305  0.1746 -0.0815 -0.0998
  443DPPI   C2B 6876   7.874   0.439   8.887  0.3786 -0.0182  0.0144
  443DPPI   C3B 6877   7.904   0.455   8.453  0.0257 -0.1351 -0.0089
  443DPPI   C4B 6878   7.703   0.402   8.051 -0.2714  0.1408  0.0632
  444DPPI    C1 6879   1.218  10.028  10.599  0.0388  0.1363 -0.0887
  444DPPI    C2 6880   0.819  10.003  10.584  0.0434 -0.0196  0.0279
  444DPPI    C3 6881   1.033   9.696  10.726  0.2105  0.0291 -0.1166
  444DPPI   PO4 6882   1.247  10.198  10.374  0.1545 -0.2590 -0.3862
  444DPPI   GL1 6883   1.293   9.964   9.933  0.0138  0.2315 -0.1461
  444DPPI   GL2 6884   1.441  10.307   9.929 -0.3656 -0.0976  0.4298
  444DPPI   C1A 6885   1.270  10.037   9.478  0.3016  0.0460 -0.0073
  444DPPI   C2A 6886   1.377   9.944   8.973  0.1561  0.2212  0.1747
  444DPPI   C3A 6887   1.379   9.773   8.515 -0.0832 -0.0244 -0.2276
  444DPPI   C4A 6888   1.380   9.981   8.180  0.0930 -0.2352  0.3126
  444DPPI   C1B 6889   1.412  10.529   9.495 -0.2407  0.1807  0.0743
  444DPPI   C2B 6890   1.476  10.605   9.007  0.5209  0.1377  0.0378
  444DPPI   C3B 6891   1.688  10.782   8.687  0.2061  0.1699 -0.2655
  444DPPI   C4B 6892   1.714  10.947   8.326 -0.2199  0.2878  0.0179
  445DPPI    C1 6893  16.029   9.297  10.726  0.0165  0.0156 -0.1909
  445DPPI    C2 6894  15.943   9.552  11.022 -0.4753 -0.4385  0.0746
  445DPPI    C3 6895  16.245   9.294  11.063 -0.0480  0.0095 -0.1493
  445DPPI   PO4 6896  16.084   9.423  10.540  0.1892  0.1500 -0.0578
  445DPPI   GL1 6897  15.768   9.609  10.251 -0.0996  0.1323  0.1599
  445DPPI   GL2 6898  15.827   9.376  10.104  0.1048  0.2840  0.0318
  445DPPI   C1A 6899  15.999   9.704   9.822 -0.0575 -0.0521  0.0490
  445DPPI   C2A 6900  15.959   9.634   9.367 -0.1658 -0.1254 -0.0328
  445DPPI   C3A 6901  15.908   9.720   9.087 -0.0744 -0.2677 -0.0593
  445DPPI   C4A 6902  15.974   9.589   8.783  0.0294  0.1139  0.0132
  445DPPI   C1B 6903  15.992   9.196   9.712  0.0049 -0.0514 -0.0351
  445DPPI   C2B 6904  16.050   9.167   9.247  0.0870 -0.1297 -0.4540
  445DPPI   C3B 6905  15.928   9.064   8.799 -0.1009  0.2079  0.0292
  445DPPI   C4B 6906  16.246   8.912   8.472 -0.2234  0.2658  0.0022
  446DPPI    C1 6907  10.206   3.066  10.544  0.1533 -0.0929  0.0914
  446DPPI    C2 6908   9.811   3.042  10.486  0.1861  0.0026 -0.1830
  446DPPI    C3 6909   9.955   3.112  10.852 -0.0567  0.1098 -0.1060
  446DPPI   PO4 6910  10.369   3.216  10.333  0.0850 -0.1266  0.1380
  446DPPI   GL1 6911  10.362   3.232   9.945 -0.1160 -0.0142 -0.0962
  446DPPI   GL2 6912  10.261   3.006   9.697  0.0633 -0.2864  0.1802
  446DPPI   C1A 6913  10.613   3.514   9.632  0.1356  0.2180  0.0293
  446DPPI   C2A 6914  10.558   3.663   9.302  0.1116 -0.0086 -0.2524
  446DPPI   C3A 6915  10.552   3.610   8.765  0.1485 -0.2398  0.0780
  446DPPI   C4A 6916  10.853   3.471   8.340  0.3184  0.0192 -0.0586
  446DPPI   C1B 6917  10.332   3.171   9.302  0.3022  0.3745 -0.0661
  446DPPI   C2B 6918  10.443   3.102   8.899  0.2339 -0.1336  0.0946
  446DPPI   C3B 6919  10.506   3.162   8.518  0.1221 -0.3020 -0.0542
  446DPPI   C4B 6920  10.585   3.119   8.139  0.1260  0.2271  0.3520
  447DPPI    C1 6921   5.321   0.263  10.824  0.0727 -0.0230 -0.0193
  447DPPI    C2 6922   5.611   0.486  10.984  0.0674  0.0041 -0.0475
  447DPPI    C3 6923   5.674   0.098  10.912  0.1412  0.0393 -0.1749
  447DPPI   PO4 6924   5.256   0.391  10.627  0.1743 -0.2908  0.1493
  447DPPI   GL1 6925   5.153   0.236  10.248 -0.2975 -0.1147  0.0016
  447DPPI   GL2 6926   4.815   0.275  10.160  0.2392  0.1953 -0.2561
  447DPPI   C1A 6927   5.205   0.450   9.843  0.2168  0.0550 -0.0186
  447DPPI   C2A 6928   5.112   0.459   9.390 -0.1708  0.2692 -0.0755
  447DPPI   C3A 6929   5.187   0.485   9.046  0.3057  0.1049 -0.1479
  447DPPI   C4A 6930   5.083   0.372   8.591  0.0453 -0.1304 -0.2234
  447DPPI   C1B 6931   4.652   0.201   9.797  0.3406  0.1121  0.0726
  447DPPI   C2B 6932   4.653   0.180   9.352  0.2208  0.1772 -0.0656
  447DPPI   C3B 6933   4.686   0.158   8.896  0.1048 -0.0283  0.0101
  447DPPI   C4B 6934   4.571   0.204   8.502  0.0407 -0.0047 -0.2047
  448DPPI    C1 6935   2.783  10.597  10.276  0.1207  0.0714  0.0747
  448DPPI    C2 6936   2.953  10.710  10.620  0.1971 -0.0451  0.0758
  448DPPI    C3 6937   3.166  10.507  10.349  0.0664 -0.1729  0.0680
  448DPPI   PO4 6938   2.638  10.825  10.226 -0.3498  0.2899 -0.0586
  448DPPI   GL1 6939   2.559  11.203  10.062  0.0649 -0.2112  0.0916
  448DPPI   GL2 6940   2.832  11.258   9.963 -0.0134 -0.0329  0.0872
  448DPPI   C1A 6941   2.450  11.423   9.632 -0.1506  0.2700  0.1834
  448DPPI   C2A 6942   2.668  11.483   9.290 -0.2252  0.1596  0.0236
  448DPPI   C3A 6943   2.507  11.539   8.948 -0.1942  0.1236  0.0234
  448DPPI   C4A 6944   2.454  11.353   8.570 -0.0834  0.0339  0.2122
  448DPPI   C1B 6945   2.751  11.033   9.579 -0.1532  0.1587 -0.0798
  448DPPI   C2B 6946   2.799  11.042   9.163  0.2777 -0.2320 -0.0868
  448DPPI   C3B 6947   2.800  10.970   8.729  0.4180  0.2404  0.2796
  448DPPI   C4B 6948   2.541  10.586   8.604  0.0813  0.0187  0.0484
  449DPPI    C1 6949  10.576  13.804  10.655  0.2769 -0.1610  0.1689
  449DPPI    C2 6950  10.352  14.121  10.750  0.2105 -0.1690  0.0416
  449DPPI    C3 6951  10.520  13.901  11.039  0.1599 -0.0878  0.1339
  449DPPI   PO4 6952  10.428  13.729  10.437 -0.3522 -0.1172  0.1162
  449DPPI   GL1 6953  10.122  13.717  10.125 -0.1143 -0.1065  0.1203
  449DPPI   GL2 6954   9.848  13.447   9.936 -0.0836  0.3312  0.0942
  449DPPI   C1A 6955  10.122  13.821   9.695 -0.1145  0.0967 -0.0743
  449DPPI   C2A 6956   9.954  13.883   9.352 -0.1878  0.2883 -0.0889
  449DPPI   C3A 6957   9.984  13.849   8.957  0.1730  0.5380 -0.0731
  449DPPI   C4A 6958  10.013  14.016   8.558 -0.0214  0.2409 -0.0384
  449DPPI   C1B 6959   9.763  13.390   9.512  0.2495 -0.1787 -0.2930
  449DPPI   C2B 6960   9.689  13.483   9.158  0.0301  0.2623 -0.0852
  449DPPI   C3B 6961   9.680  13.579   8.722 -0.0525 -0.1630 -0.1558
  449DPPI   C4B 6962   9.321  13.828   8.485  0.0236  0.1104 -0.1151
  450DPPI    C1 6963   4.046   3.169  10.668 -0.1360  0.1532  0.0248
  450DPPI    C2 6964   4.009   3.488  10.907  0.1495 -0.0282  0.3193
  450DPPI    C3 6965   4.282   3.207  10.989 -0.0395 -0.3075  0.0152
  450DPPI   PO4 6966   4.012   3.401  10.391 -0.0744 -0.0313 -0.0212
  450DPPI   GL1 6967   4.037   3.599  10.023  0.2313  0.1291 -0.2144
  450DPPI   GL2 6968   3.707   3.745  10.065 -0.2979  0.0026 -0.3478
  450DPPI   C1A 6969   4.125   3.526   9.624  0.2668 -0.1246 -0.1795
  450DPPI   C2A 6970   4.116   3.562   9.177 -0.0825  0.3207 -0.1812
  450DPPI   C3A 6971   4.008   3.574   8.836  0.2342  0.3589  0.0963
  450DPPI   C4A 6972   3.891   3.462   8.431 -0.1425  0.2016  0.0492
  450DPPI   C1B 6973   3.680   3.825   9.715 -0.1372  0.0322  0.1161
  450DPPI   C2B 6974   3.727   3.810   9.257  0.0299  0.1601  0.1129
  450DPPI   C3B 6975   3.625   3.884   8.856  0.1247  0.1935 -0.0262
  450DPPI   C4B 6976   3.586   3.886   8.392 -0.2642 -0.2171  0.0902
  451DPPI    C1 6977  12.761  12.722  10.924  0.0043  0.1564 -0.1342
  451DPPI    C2 6978  12.734  12.329  10.855  0.1006  0.1364 -0.0608
  451DPPI    C3 6979  12.665  12.473  11.222  0.3082  0.1600 -0.0296
  451DPPI   PO4 6980  12.606  12.805  10.663  0.1794 -0.0666 -0.0439
  451DPPI   GL1 6981  12.757  12.775  10.205 -0.2160  0.0527 -0.0165
  451DPPI   GL2 6982  13.029  12.849  10.033 -0.1792  0.0710  0.0027
  451DPPI   C1A 6983  12.673  12.669   9.714  0.2383 -0.3878  0.0326
  451DPPI   C2A 6984  12.766  12.604   9.258 -0.1297  0.0497 -0.1801
  451DPPI   C3A 6985  12.912  12.557   8.853 -0.0428  0.0408 -0.2824
  451DPPI   C4A 6986  12.637  12.535   8.515  0.2659  0.0294  0.3524
  451DPPI   C1B 6987  13.049  13.005   9.701  0.0278  0.0539 -0.1800
  451DPPI   C2B 6988  13.159  12.961   9.292  0.2583  0.1913 -0.2843
  451DPPI   C3B 6989  13.225  12.938   8.863 -0.3008 -0.0591  0.3272
  451DPPI   C4B 6990  13.170  12.752   8.375  0.0032 -0.1299 -0.1747
  452DPPI    C1 6991   4.477  11.758  10.922 -0.0218 -0.2476 -0.1454
  452DPPI    C2 6992   4.290  11.436  11.068 -0.1316 -0.0469  0.1662
  452DPPI    C3 6993   4.557  11.631  11.292  0.0288  0.0070 -0.0673
  452DPPI   PO4 6994   4.603  11.678  10.673 -0.1512  0.1516 -0.1069
  452DPPI   GL1 6995   4.436  11.731  10.251  0.0913 -0.0243 -0.5535
  452DPPI   GL2 6996   4.640  11.465  10.227 -0.1995 -0.0794  0.1199
  452DPPI   C1A 6997   4.751  11.689   9.750  0.1310 -0.1700 -0.0792
  452DPPI   C2A 6998   4.777  11.712   9.192 -0.1567  0.1474 -0.0584
  452DPPI   C3A 6999   4.790  11.812   8.705  0.0257  0.0541 -0.0448
  452DPPI   C4A 7000   4.662  11.921   8.322  0.1492  0.1797  0.1275
  452DPPI   C1B 7001   4.613  10.988  10.184  0.0615  0.0405 -0.0993
  452DPPI   C2B 7002   4.652  10.695   9.830 -0.2055 -0.0613 -0.2595
  452DPPI   C3B 7003   4.836  10.693   9.449 -0.0045 -0.2198 -0.0253
  452DPPI   C4B 7004   4.850  10.596   8.963 -0.0083  0.2760  0.0765
  453DPPI    C1 7005   5.097   1.630  10.562 -0.0308  0.1053 -0.1265
  453DPPI    C2 7006   5.109   1.747  10.945  0.0972  0.0332 -0.1081
  453DPPI    C3 7007   5.445   1.637  10.758  0.0980  0.4392 -0.3583
  453DPPI   PO4 7008   4.914   1.845  10.445  0.0233  0.2369  0.0607
  453DPPI   GL1 7009   5.037   2.156  10.165 -0.0119 -0.0470  0.3351
  453DPPI   GL2 7010   5.342   1.783  10.123 -0.1406  0.0221  0.1592
  453DPPI   C1A 7011   5.189   2.095   9.685 -0.0811 -0.3135  0.1803
  453DPPI   C2A 7012   5.148   2.094   9.276 -0.0099 -0.2486 -0.0531
  453DPPI   C3A 7013   5.186   2.090   8.845 -0.2483 -0.4862  0.4052
  453DPPI   C4A 7014   5.024   2.108   8.430  0.1562 -0.2125  0.0857
  453DPPI   C1B 7015   5.219   1.610   9.725  0.2044  0.4651  0.1833
  453DPPI   C2B 7016   5.228   1.440   9.287 -0.0785  0.0612 -0.1329
  453DPPI   C3B 7017   5.142   1.624   8.826 -0.0226  0.3467  0.0410
  453DPPI   C4B 7018   5.152   1.446   8.387 -0.1046  0.3257 -0.0924
  454DPPI    C1 7019  14.131  14.452  10.575  0.2852 -0.0060 -0.1162
  454DPPI    C2 7020  14.262  14.780  10.764  0.2179  0.0637 -0.1892
  454DPPI    C3 7021  14.410  14.421  10.860  0.1774  0.0967  0.0027
  454DPPI   PO4 7022  14.135  14.584  10.312  0.2057 -0.4696  0.0916
  454DPPI   GL1 7023  13.977  14.448   9.877 -0.2033 -0.0787  0.1157
  454DPPI   GL2 7024  14.361  14.350   9.884 -0.1331  0.0235  0.0400
  454DPPI   C1A 7025  14.139  14.564   9.508 -0.1653 -0.2376 -0.1644
  454DPPI   C2A 7026  14.291  14.864   9.218 -0.2178 -0.0596  0.0521
  454DPPI   C3A 7027  14.224  15.225   8.951  0.3365  0.2479 -0.3706
  454DPPI   C4A 7028  14.506  15.475   8.677 -0.0160 -0.0461  0.0422
  454DPPI   C1B 7029  14.387  14.149   9.418  0.1580 -0.0254  0.0652
  454DPPI   C2B 7030  14.254  14.352   9.020  0.5555 -0.0090  0.2876
  454DPPI   C3B 7031  14.345  14.655   8.759  0.1044 -0.3273  0.0819
  454DPPI   C4B 7032  14.373  14.989   8.501 -0.2092  0.0449  0.2825
  455DPPI    C1 7033   6.001  17.578  10.863 -0.2524  0.1791 -0.0923
  455DPPI    C2 7034   5.970  17.184  10.800  0.0274  0.1537 -0.0829
  455DPPI    C3 7035   5.706  17.371  11.036 -0.1957 -0.0001 -0.2078
  455DPPI   PO4 7036   5.984  17.672  10.587  0.1089  0.0416 -0.1700
  455DPPI   GL1 7037   5.748  17.429  10.326  0.1632  0.2246  0.2430
  455DPPI   GL2 7038   5.769  17.045  10.300  0.0805  0.3438  0.1826
  455DPPI   C1A 7039   5.609  17.573   9.895  0.2078 -0.0491  0.0274
  455DPPI   C2A 7040   5.549  17.539   9.411  0.0734  0.0261 -0.1747
  455DPPI   C3A 7041   5.536  17.483   9.008 -0.0815  0.1648  0.0766
  455DPPI   C4A 7042   5.460  17.685   8.714  0.1758 -0.3480  0.0757
  455DPPI   C1B 7043   5.653  17.049   9.883 -0.3657  0.0156 -0.0336
  455DPPI   C2B 7044   5.602  17.065   9.392  0.1940  0.0263 -0.2546
  455DPPI   C3B 7045   5.568  16.995   8.973 -0.0369 -0.0799  0.3880
  455DPPI   C4B 7046   5.662  17.059   8.526  0.0757  0.0809 -0.1510
  456DPPI    C1 7047  11.735   0.674  10.403 -0.0712  0.0016  0.0322
  456DPPI    C2 7048  11.978   0.528  10.686 -0.1292 -0.0704  0.0453
  456DPPI    C3 7049  11.759   0.855  10.759  0.2348  0.2105 -0.0906
  456DPPI   PO4 7050  11.892   0.680  10.089 -0.1563 -0.0341 -0.1350
  456DPPI   GL1 7051  11.874   0.589   9.704  0.1711  0.3870 -0.0673
  456DPPI   GL2 7052  11.699   0.917   9.624  0.0147  0.1245  0.1039
  456DPPI   C1A 7053  11.657   0.528   9.293 -0.1714  0.0520 -0.0759
  456DPPI   C2A 7054  11.694   0.414   8.887 -0.5486  0.2509 -0.0862
  456DPPI   C3A 7055  11.853   0.298   8.488 -0.0757 -0.0402  0.0159
  456DPPI   C4A 7056  11.724   0.381   8.056 -0.1376  0.4415  0.0595
  456DPPI   C1B 7057  11.390   0.952   9.313  0.3605 -0.2480  0.1121
  456DPPI   C2B 7058  11.133   1.088   8.958  0.2146 -0.4128 -0.0774
  456DPPI   C3B 7059  11.126   1.015   8.498  0.2709 -0.1395 -0.1544
  456DPPI   C4B 7060  11.195   0.920   8.106 -0.1149  0.5454 -0.0215
  457DPPI    C1 7061  12.669   9.419  10.521 -0.1426 -0.1614 -0.0402
  457DPPI    C2 7062  12.961   9.673  10.624 -0.1902 -0.0519 -0.1721
  457DPPI    C3 7063  12.997   9.283  10.705 -0.0204 -0.0348 -0.1615
  457DPPI   PO4 7064  12.582   9.498  10.282  0.0858  0.0863 -0.0725
  457DPPI   GL1 7065  12.674   9.354   9.819  0.1080 -0.4179  0.0864
  457DPPI   GL2 7066  12.743   9.077   9.862 -0.2278 -0.0385 -0.0688
  457DPPI   C1A 7067  12.579   9.377   9.434 -0.1069  0.1970  0.2370
  457DPPI   C2A 7068  12.592   9.403   8.933  0.2600 -0.0478  0.0261
  457DPPI   C3A 7069  12.593   9.356   8.521  0.0342  0.0013 -0.0095
  457DPPI   C4A 7070  12.883   9.492   8.239 -0.1351 -0.2788  0.3617
  457DPPI   C1B 7071  12.596   8.877   9.516  0.0556  0.4045 -0.1400
  457DPPI   C2B 7072  12.554   8.897   9.088  0.0459  0.2783 -0.2383
  457DPPI   C3B 7073  12.293   9.048   8.721  0.1787  0.0200 -0.0777
  457DPPI   C4B 7074  11.903   9.367   8.557 -0.4146 -0.0030 -0.0695
  458DPPI    C1 7075   6.128  15.840  10.794  0.1279 -0.2074  0.0857
  458DPPI    C2 7076   6.061  16.088  11.100  0.2210 -0.0392 -0.0282
  458DPPI    C3 7077   5.785  15.817  10.998  0.0309  0.1517 -0.0288
  458DPPI   PO4 7078   6.178  15.998  10.589  0.3114 -0.3873  0.1707
  458DPPI   GL1 7079   6.016  16.155  10.296  0.0868  0.0788  0.0769
  458DPPI   GL2 7080   6.033  16.518  10.403 -0.0496  0.1153  0.2220
  458DPPI   C1A 7081   6.054  16.294   9.853 -0.0448  0.0402 -0.0934
  458DPPI   C2A 7082   5.978  16.289   9.385 -0.1028 -0.1550 -0.0068
  458DPPI   C3A 7083   6.055  16.270   8.954  0.1828  0.0433 -0.0384
  458DPPI   C4A 7084   6.133  16.309   8.516  0.1626  0.0497  0.0855
  458DPPI   C1B 7085   6.113  16.830  10.055  0.2273 -0.1357 -0.0378
  458DPPI   C2B 7086   6.079  16.888   9.639  0.0853  0.2159  0.0346
  458DPPI   C3B 7087   6.037  16.774   9.151  0.0932  0.2327  0.1397
  458DPPI   C4B 7088   6.109  16.843   8.721  0.0217 -0.1864  0.1270
  459DPPI    C1 7089   6.370  11.086  10.761 -0.0446 -0.0471 -0.4834
  459DPPI    C2 7090   6.656  10.849  10.613  0.0187 -0.2526 -0.0467
  459DPPI    C3 7091   6.544  10.813  10.995 -0.3073  0.1037 -0.1025
  459DPPI   PO4 7092   6.243  11.180  10.528 -0.0029  0.0126 -0.1644
  459DPPI   GL1 7093   6.275  10.870  10.235 -0.1596  0.0478  0.3321
  459DPPI   GL2 7094   6.514  11.095  10.124  0.1597 -0.0154 -0.0347
  459DPPI   C1A 7095   6.039  10.795   9.865  0.0283  0.4288 -0.1112
  459DPPI   C2A 7096   6.138  10.724   9.473 -0.0005 -0.0878  0.0868
  459DPPI   C3A 7097   6.170  10.817   9.081  0.0337  0.0822 -0.1621
  459DPPI   C4A 7098   6.071  10.987   8.774  0.2229  0.1950  0.2471
  459DPPI   C1B 7099   6.538  10.966   9.746 -0.1581  0.0674  0.1933
  459DPPI   C2B 7100   6.616  10.986   9.311 -0.1107 -0.2448 -0.2862
  459DPPI   C3B 7101   6.575  11.129   8.919  0.2625 -0.0652 -0.1661
  459DPPI   C4B 7102   6.403  11.229   8.546 -0.1215 -0.2393 -0.1478
  460DPPI    C1 7103  17.282   6.068  10.536  0.2911  0.0508  0.2186
  460DPPI    C2 7104  17.079   5.756  10.390  0.3337  0.1431 -0.0432
  460DPPI    C3 7105  17.299   5.714  10.721  0.2932 -0.0887 -0.0440
  460DPPI   PO4 7106  17.536   6.214  10.382 -0.0404 -0.0544 -0.1063
  460DPPI   GL1 7107  17.477   6.292  10.043  0.1203  0.3392 -0.0880
  460DPPI   GL2 7108  17.134   6.131  10.054 -0.1158  0.1135 -0.0687
  460DPPI   C1A 7109  17.682   6.329   9.633  0.0504 -0.2196  0.2913
  460DPPI   C2A 7110  17.679   6.258   9.209  0.2682  0.0985  0.0904
  460DPPI   C3A 7111  17.704   6.269   8.846 -0.3143  0.0995 -0.1504
  460DPPI   C4A 7112  17.774   6.411   8.417  0.1945 -0.1635 -0.0352
  460DPPI   C1B 7113  17.063   6.132   9.691 -0.0716  0.2875  0.1367
  460DPPI   C2B 7114  16.904   6.068   9.267 -0.1104 -0.2086  0.0414
  460DPPI   C3B 7115  16.847   6.035   8.798 -0.2462  0.2178 -0.0683
  460DPPI   C4B 7116  16.869   6.380   8.685  0.4313 -0.5189 -0.0089
  461DPPI    C1 7117   2.213   0.501  11.233 -0.1537  0.0208  0.2173
  461DPPI    C2 7118   2.450   0.695  11.491 -0.1913  0.1538  0.1527
  461DPPI    C3 7119   2.223   0.391  11.618 -0.1263  0.1466  0.2531
  461DPPI   PO4 7120   2.104   0.697  11.069 -0.2064 -0.0007  0.4463
  461DPPI   GL1 7121   2.103   0.714  10.578 -0.0356 -0.0522  0.2251
  461DPPI   GL2 7122   2.396   0.729  10.670 -0.3127 -0.1783  0.0111
  461DPPI   C1A 7123   2.022   0.709  10.092 -0.0762  0.0231  0.0899
  461DPPI   C2A 7124   1.989   0.735   9.671  0.1054  0.1943  0.1019
  461DPPI   C3A 7125   1.884   0.686   9.273  0.0544 -0.3811 -0.0836
  461DPPI   C4A 7126   1.803   0.575   8.851  0.0089 -0.0399  0.2674
  461DPPI   C1B 7127   2.456   0.462  10.303  0.0464 -0.1254 -0.0136
  461DPPI   C2B 7128   2.420   0.461   9.844  0.1977 -0.2798 -0.2291
  461DPPI   C3B 7129   2.309   0.382   9.368  0.0649  0.1008  0.3693
  461DPPI   C4B 7130   2.255   0.363   8.920  0.1898 -0.0624 -0.0551
  462DPPI    C1 7131  11.096   0.018  10.430 -0.0156  0.1853  0.0202
  462DPPI    C2 7132  11.463  -0.139  10.410 -0.0738  0.0503 -0.0045
  462DPPI    C3 7133  11.269  -0.128  10.760  0.0319  0.3058  0.0490
  462DPPI   PO4 7134  11.003  -0.048  10.150 -0.0372 -0.2653  0.0779
  462DPPI   GL1 7135  11.302  -0.155   9.908  0.0407  0.1790  0.3156
  462DPPI   GL2 7136  11.451  -0.384   9.814 -0.1768  0.2327 -0.0126
  462DPPI   C1A 7137  11.308   0.233   9.597 -0.2198 -0.0416 -0.2322
  462DPPI   C2A 7138  11.331   0.116   9.112 -0.0897  0.1844 -0.0821
  462DPPI   C3A 7139  11.627  -0.108   8.921 -0.0401  0.0813 -0.1330
  462DPPI   C4A 7140  11.776  -0.277   8.434  0.0156  0.0618 -0.2673
  462DPPI   C1B 7141  11.603  -0.337   9.361  0.0502 -0.1821 -0.2381
  462DPPI   C2B 7142  11.699  -0.558   9.010 -0.0278 -0.0280 -0.0683
  462DPPI   C3B 7143  11.638  -0.733   8.703 -0.0288  0.0316  0.0163
  462DPPI   C4B 7144  11.697  -0.926   8.237  0.0416  0.0313 -0.2081
  463DPPI    C1 7145  15.543   8.599  10.557 -0.0338  0.0424 -0.2079
  463DPPI    C2 7146  15.212   8.398  10.656 -0.0308  0.2048  0.1431
  463DPPI    C3 7147  15.556   8.202  10.604 -0.0964  0.0819  0.1694
  463DPPI   PO4 7148  15.601   8.726  10.397 -0.0895 -0.0387 -0.0473
  463DPPI   GL1 7149  15.429   8.992  10.066 -0.2265 -0.0432  0.0003
  463DPPI   GL2 7150  15.707   8.799   9.932  0.0104 -0.0600 -0.1547
  463DPPI   C1A 7151  15.255   8.839   9.719  0.1688  0.2357 -0.0506
  463DPPI   C2A 7152  15.342   8.683   9.417  0.1444  0.2162  0.4442
  463DPPI   C3A 7153  15.323   8.378   9.138 -0.1725  0.0011  0.1870
  463DPPI   C4A 7154  15.293   8.367   8.740  0.0438  0.2315 -0.1304
  463DPPI   C1B 7155  15.883   8.713   9.475  0.0219 -0.1586 -0.0407
  463DPPI   C2B 7156  15.750   8.701   9.048  0.0123 -0.0612 -0.0173
  463DPPI   C3B 7157  15.913   8.568   8.683  0.0373  0.0461 -0.2959
  463DPPI   C4B 7158  15.922   8.472   8.303 -0.1121 -0.0507  0.2166
  464DPPI    C1 7159  17.201  10.347  10.754  0.0850 -0.0063 -0.1014
  464DPPI    C2 7160  16.899  10.601  10.814  0.0249 -0.1395  0.1746
  464DPPI    C3 7161  16.947  10.287  11.057  0.2020 -0.2940 -0.0569
  464DPPI   PO4 7162  17.063  10.249  10.506 -0.1551  0.2592  0.0324
  464DPPI   GL1 7163  16.961  10.266  10.086  0.3494  0.1734 -0.0370
  464DPPI   GL2 7164  17.287  10.456  10.097 -0.0729 -0.0663 -0.1026
  464DPPI   C1A 7165  17.043  10.253   9.634 -0.0698  0.1575 -0.0990
  464DPPI   C2A 7166  16.986  10.336   9.160  0.4437 -0.1072  0.4139
  464DPPI   C3A 7167  16.832  10.228   8.816  0.0076  0.0970 -0.0523
  464DPPI   C4A 7168  16.859  10.341   8.483  0.1561  0.3234  0.1646
  464DPPI   C1B 7169  17.385  10.608   9.677  0.3748  0.0308  0.3992
  464DPPI   C2B 7170  17.449  10.515   9.260  0.2435 -0.0531 -0.0598
  464DPPI   C3B 7171  17.613  10.742   8.865  0.0479  0.1006 -0.1251
  464DPPI   C4B 7172  17.645  11.093   8.699  0.1315  0.0746 -0.2411
  465DPPI    C1 7173   5.303   9.877  10.703 -0.1513 -0.0305  0.0794
  465DPPI    C2 7174   5.031   9.591  10.767 -0.0553 -0.1129  0.1217
  465DPPI    C3 7175   4.991   9.948  10.943 -0.1260 -0.1309  0.1424
  465DPPI   PO4 7176   5.370   9.898  10.446 -0.0601  0.0617 -0.0364
  465DPPI   GL1 7177   5.618   9.879  10.120  0.2473 -0.1253 -0.1496
  465DPPI   GL2 7178   5.603   9.609  10.007  0.1904 -0.1008  0.1719
  465DPPI   C1A 7179   5.657  10.064   9.756 -0.2841  0.1911  0.1620
  465DPPI   C2A 7180   5.707  10.054   9.329  0.0027  0.1196 -0.1274
  465DPPI   C3A 7181   5.649  10.021   8.896  0.0747 -0.1189 -0.2327
  465DPPI   C4A 7182   5.634   9.985   8.489 -0.0257  0.2147 -0.2189
  465DPPI   C1B 7183   5.685   9.582   9.558  0.0248  0.0416  0.1955
  465DPPI   C2B 7184   5.752   9.593   9.139 -0.6235 -0.2522  0.2686
  465DPPI   C3B 7185   5.529   9.502   8.725  0.2726  0.2695  0.0666
  465DPPI   C4B 7186   5.163   9.368   8.601 -0.0467 -0.0618 -0.0776
  466DPPI    C1 7187   9.753  12.464  10.836  0.0201  0.0594  0.0012
  466DPPI    C2 7188   9.717  12.533  11.228 -0.0331 -0.1871  0.0415
  466DPPI    C3 7189  10.004  12.716  11.019 -0.0800  0.0384  0.1700
  466DPPI   PO4 7190   9.720  12.251  10.826  0.1694  0.2408 -0.2992
  466DPPI   GL1 7191   9.797  12.052  10.378 -0.2121 -0.1798  0.0209
  466DPPI   GL2 7192   9.624  12.384  10.324  0.1495 -0.0754  0.2034
  466DPPI   C1A 7193   9.440  11.867  10.187  0.1868 -0.0699  0.2876
  466DPPI   C2A 7194   9.236  11.807   9.835  0.1163 -0.2052  0.0583
  466DPPI   C3A 7195   9.325  11.555   9.518  0.1491  0.0611  0.0730
  466DPPI   C4A 7196   9.669  11.322   9.285 -0.0460  0.1043  0.3136
  466DPPI   C1B 7197   9.700  12.243   9.936  0.0575  0.2645  0.1784
  466DPPI   C2B 7198   9.549  12.113   9.629 -0.1871  0.0428  0.0521
  466DPPI   C3B 7199   9.305  12.078   9.291  0.3630  0.2696 -0.0110
  466DPPI   C4B 7200   9.220  11.664   9.035 -0.0706  0.1243 -0.1737
  467DPPI    C1 7201  15.251   6.735  10.994  0.0456  0.1124  0.1204
  467DPPI    C2 7202  14.861   6.662  11.044  0.0728 -0.0999  0.0328
  467DPPI    C3 7203  15.114   6.616  11.350 -0.0044  0.2873  0.1608
  467DPPI   PO4 7204  15.314   6.971  10.793  0.1858  0.2323 -0.3622
  467DPPI   GL1 7205  15.381   7.080  10.299 -0.0201  0.1020 -0.1365
  467DPPI   GL2 7206  15.085   7.059  10.178  0.0106  0.1891 -0.3060
  467DPPI   C1A 7207  15.358   7.468   9.951 -0.2098  0.3152  0.1219
  467DPPI   C2A 7208  15.462   7.365   9.501 -0.0324  0.0827 -0.0022
  467DPPI   C3A 7209  15.457   7.372   9.058  0.1748 -0.0622 -0.1411
  467DPPI   C4A 7210  15.284   7.415   8.791  0.1930  0.4433  0.1663
  467DPPI   C1B 7211  15.020   6.990   9.712 -0.0874  0.2392  0.0336
  467DPPI   C2B 7212  15.007   7.210   9.214  0.1802 -0.0537 -0.0497
  467DPPI   C3B 7213  14.944   7.024   8.795  0.1576 -0.2467 -0.2311
  467DPPI   C4B 7214  14.797   7.105   8.441 -0.1430  0.2723  0.2085
  468DPPI    C1 7215   0.641   6.598  10.397 -0.1297 -0.1057  0.2263
  468DPPI    C2 7216   0.877   6.888  10.539  0.0169 -0.1010 -0.0217
  468DPPI    C3 7217   0.864   6.533  10.723  0.1773 -0.0835  0.0251
  468DPPI   PO4 7218   0.498   6.691  10.172  0.1404 -0.0042  0.0196
  468DPPI   GL1 7219   0.429   6.782   9.720  0.0121 -0.1373  0.0045
  468DPPI   GL2 7220   0.578   7.075   9.850 -0.0423 -0.3434  0.0642
  468DPPI   C1A 7221   0.442   6.913   9.313  0.1961  0.1801  0.2102
  468DPPI   C2A 7222   0.452   6.912   8.965 -0.2003 -0.0267 -0.0474
  468DPPI   C3A 7223   0.344   6.861   8.538  0.1933 -0.0153 -0.2380
  468DPPI   C4A 7224   0.157   6.632   8.080 -0.1938 -0.0111  0.1465
  468DPPI   C1B 7225   0.686   7.354   9.447  0.0404 -0.2658  0.1551
  468DPPI   C2B 7226   0.709   7.326   9.036 -0.1114 -0.0233 -0.0215
  468DPPI   C3B 7227   0.490   7.332   8.618 -0.1625  0.2699 -0.1323
  468DPPI   C4B 7228   0.366   7.649   8.272  0.0271  0.1800 -0.1163
  469DPPI    C1 7229   0.474  11.688  10.825 -0.0303  0.0230  0.0935
  469DPPI    C2 7230   0.517  11.477  11.163  0.0221  0.0131  0.0808
  469DPPI    C3 7231   0.655  11.852  11.142  0.5237 -0.1730 -0.1088
  469DPPI   PO4 7232   0.241  11.722  10.757 -0.2206 -0.0625 -0.1284
  469DPPI   GL1 7233   0.049  11.438  10.533  0.2602 -0.0985  0.3142
  469DPPI   GL2 7234   0.083  11.203  10.251  0.1098 -0.0666 -0.2030
  469DPPI   C1A 7235   0.133  11.715  10.155 -0.0299  0.2104  0.1085
  469DPPI   C2A 7236   0.036  11.870   9.792  0.1388  0.0880 -0.3803
  469DPPI   C3A 7237   0.085  11.774   9.394  0.1703  0.0471 -0.1147
  469DPPI   C4A 7238   0.404  11.657   9.062  0.0200  0.2591  0.1742
  469DPPI   C1B 7239   0.136  11.336   9.814  0.2374  0.0012  0.0503
  469DPPI   C2B 7240   0.083  11.318   9.303  0.1961  0.3343 -0.1134
  469DPPI   C3B 7241  -0.008  11.435   8.937 -0.1240  0.3460 -0.2607
  469DPPI   C4B 7242  -0.022  11.850   8.849 -0.0890  0.0231 -0.1889
  470DPPI    C1 7243   8.906   1.176  10.053 -0.2907  0.1623  0.0309
  470DPPI    C2 7244   9.203   1.301  10.290 -0.0856 -0.0312 -0.1198
  470DPPI    C3 7245   8.844   1.476  10.310  0.1147  0.3931 -0.1314
  470DPPI   PO4 7246   8.965   1.195   9.779 -0.3248 -0.2816 -0.0712
  470DPPI   GL1 7247   9.077   1.066   9.426  0.2758 -0.2560  0.0115
  470DPPI   GL2 7248   9.174   1.323   9.358  0.3452  0.3670  0.3973
  470DPPI   C1A 7249   8.879   0.945   9.130 -0.0860  0.2360  0.3147
  470DPPI   C2A 7250   8.928   0.985   8.738  0.2492 -0.1275 -0.4609
  470DPPI   C3A 7251   8.819   0.982   8.238 -0.2497 -0.2815 -0.0782
  470DPPI   C4A 7252   8.533   0.915   7.819  0.1892  0.3449  0.0877
  470DPPI   C1B 7253   9.256   1.318   8.884 -0.0165  0.0328 -0.2510
  470DPPI   C2B 7254   9.367   1.303   8.487  0.0101 -0.2178  0.0009
  470DPPI   C3B 7255   9.316   1.162   8.090  0.1694 -0.1778  0.0548
  470DPPI   C4B 7256   9.082   0.958   7.794  0.2342 -0.0586 -0.1603
  471DPPI    C1 7257   4.844   7.655  10.677  0.1241 -0.0566 -0.1076
  471DPPI    C2 7258   4.934   7.490  11.030 -0.0876 -0.1667 -0.1033
  471DPPI    C3 7259   5.149   7.798  10.892  0.0455 -0.1741  0.0845
  471DPPI   PO4 7260   4.771   7.440  10.496 -0.1215 -0.1138 -0.0328
  471DPPI   GL1 7261   4.591   7.545  10.112  0.1442 -0.3371 -0.2468
  471DPPI   GL2 7262   4.562   7.206  10.126 -0.0401 -0.1496  0.1252
  471DPPI   C1A 7263   4.696   7.583   9.683  0.5151 -0.1613 -0.1370
  471DPPI   C2A 7264   4.746   7.483   9.216  0.2429  0.1221 -0.1391
  471DPPI   C3A 7265   4.700   7.472   8.841 -0.0572  0.2194 -0.0256
  471DPPI   C4A 7266   4.514   7.428   8.491 -0.3170 -0.1106  0.2249
  471DPPI   C1B 7267   4.417   7.136   9.780 -0.3299  0.4542  0.0487
  471DPPI   C2B 7268   4.502   7.098   9.378  0.1588  0.1335  0.0579
  471DPPI   C3B 7269   4.774   7.006   8.927 -0.2262  0.1638 -0.2275
  471DPPI   C4B 7270   4.970   6.743   8.571  0.0728 -0.0013 -0.1016
  472DPPI    C1 7271   0.623   7.385  10.849  0.0352 -0.0064  0.0129
  472DPPI    C2 7272   0.492   7.598  10.537  0.1297  0.0950  0.0423
  472DPPI    C3 7273   0.359   7.680  10.905 -0.1117 -0.1354  0.0088
  472DPPI   PO4 7274   0.859   7.387  10.715 -0.2222  0.3851 -0.1678
  472DPPI   GL1 7275   0.830   7.301  10.265  0.1201  0.1119  0.1716
  472DPPI   GL2 7276   1.014   7.077  10.064 -0.2692  0.0118  0.1493
  472DPPI   C1A 7277   0.728   7.521   9.903 -0.2956  0.1594 -0.0045
  472DPPI   C2A 7278   0.499   7.768   9.623 -0.1848 -0.4778 -0.0799
  472DPPI   C3A 7279   0.475   7.771   9.246  0.0126  0.1577 -0.2995
  472DPPI   C4A 7280   0.415   7.775   8.855  0.1354 -0.0411 -0.1747
  472DPPI   C1B 7281   1.110   7.219   9.657 -0.0611  0.3927 -0.1833
  472DPPI   C2B 7282   1.192   7.306   9.201  0.2664 -0.0755  0.0696
  472DPPI   C3B 7283   1.132   7.361   8.808  0.3528 -0.2313  0.0359
  472DPPI   C4B 7284   1.214   7.489   8.370 -0.1775  0.1690  0.0734
  473PYPI    C1 7285   0.608   8.110  10.668  0.1733 -0.2402 -0.0054
  473PYPI    C2 7286   0.977   8.260  10.705  0.0699 -0.0201  0.1493
  473PYPI    C3 7287   0.869   7.940  10.920  0.1853 -0.1153  0.0669
  473PYPI   PO4 7288   0.563   8.199  10.365 -0.1838  0.0754 -0.1475
  473PYPI   GL1 7289   0.754   8.134   9.999 -0.3735 -0.1498  0.0943
  473PYPI   GL2 7290   1.095   7.884   9.920 -0.0259 -0.0840 -0.1402
  473PYPI   C1A 7291   0.791   8.207   9.578  0.0282 -0.2510 -0.1062
  473PYPI   C2A 7292   0.743   8.230   9.114  0.0625 -0.1240 -0.0320
  473PYPI   D3A 7293   0.717   8.289   8.652 -0.1340  0.1962 -0.1365
  473PYPI   C4A 7294   0.310   8.288   8.380 -0.0561  0.1549 -0.0790
  473PYPI   C1B 7295   0.995   7.758   9.513 -0.0446  0.1141  0.1675
  473PYPI   C2B 7296   1.009   7.772   9.117  0.3302  0.0435  0.1507
  473PYPI   C3B 7297   0.908   7.851   8.757 -0.0980  0.1366  0.2042
  473PYPI   C4B 7298   0.779   7.862   8.278 -0.1901 -0.2590  0.0338
  474PYPI    C1 7299   9.182  13.336  10.701 -0.0310 -0.0746 -0.0272
  474PYPI    C2 7300   8.976  13.064  10.492 -0.0838 -0.0412 -0.0188
  474PYPI    C3 7301   8.884  13.134  10.875 -0.2267  0.1572 -0.0878
  474PYPI   PO4 7302   9.261  13.446  10.471  0.0857 -0.4147  0.0256
  474PYPI   GL1 7303   9.231  13.354  10.062 -0.1595 -0.0810  0.1867
  474PYPI   GL2 7304   8.927  13.572  10.045 -0.0051 -0.0853  0.1678
  474PYPI   C1A 7305   9.315  13.192   9.737 -0.0044 -0.2898 -0.1591
  474PYPI   C2A 7306   9.262  13.103   9.294 -0.0860  0.1470 -0.1391
  474PYPI   D3A 7307   9.531  13.134   8.882  0.2001  0.0809 -0.0156
  474PYPI   C4A 7308   9.283  13.236   8.502 -0.2630  0.0537 -0.4537
  474PYPI   C1B 7309   8.872  13.436   9.656  0.2348  0.0680  0.3208
  474PYPI   C2B 7310   8.797  13.400   9.293 -0.0364 -0.1925 -0.0781
  474PYPI   C3B 7311   8.923  13.100   8.907  0.0008  0.2167 -0.1067
  474PYPI   C4B 7312   8.779  12.932   8.505 -0.0224 -0.0697  0.0871
  475PYPI    C1 7313  13.003   7.598  10.789 -0.2146  0.0281  0.0313
  475PYPI    C2 7314  12.958   7.975  10.914  0.0079  0.0268  0.1191
  475PYPI    C3 7315  12.962   7.676  11.179  0.1166 -0.0100  0.0766
  475PYPI   PO4 7316  12.814   7.439  10.578 -0.1830 -0.1026  0.4209
  475PYPI   GL1 7317  12.633   7.542  10.118  0.2191  0.0573 -0.1372
  475PYPI   GL2 7318  12.374   7.528  10.375 -0.2419 -0.2459  0.0085
  475PYPI   C1A 7319  12.689   7.657   9.703  0.0628 -0.1855 -0.0161
  475PYPI   C2A 7320  12.730   7.839   9.319 -0.1532  0.0108  0.0246
  475PYPI   D3A 7321  13.085   7.945   9.069 -0.2622  0.2043  0.1590
  475PYPI   C4A 7322  13.111   8.044   8.672 -0.2713 -0.1149  0.4472
  475PYPI   C1B 7323  12.163   7.413   9.926 -0.1481 -0.0690  0.3277
  475PYPI   C2B 7324  12.255   7.387   9.534  0.2848  0.0698  0.3466
  475PYPI   C3B 7325  12.255   7.564   9.075 -0.0570 -0.0979  0.1552
  475PYPI   C4B 7326  12.173   7.385   8.627  0.0666  0.0218  0.1565
  476PYPI    C1 7327   7.273   5.897  10.527  0.1406 -0.1584  0.2435
  476PYPI    C2 7328   6.897   5.842  10.402  0.2275 -0.0727 -0.0648
  476PYPI    C3 7329   6.968   5.969  10.775 -0.0450 -0.1545  0.0169
  476PYPI   PO4 7330   7.363   5.988  10.304  0.1772  0.1947  0.1279
  476PYPI   GL1 7331   7.599   5.983   9.923 -0.0302  0.1304  0.1120
  476PYPI   GL2 7332   7.501   5.756   9.725 -0.0107 -0.2038 -0.1429
  476PYPI   C1A 7333   7.815   6.069   9.507  0.2501  0.0033 -0.0331
  476PYPI   C2A 7334   7.846   6.157   9.134 -0.0706  0.3000  0.0724
  476PYPI   D3A 7335   7.656   6.106   8.757 -0.0951  0.1292 -0.2538
  476PYPI   C4A 7336   7.908   6.210   8.418 -0.1567  0.1259  0.1414
  476PYPI   C1B 7337   7.427   5.763   9.268 -0.1879  0.0156 -0.1084
  476PYPI   C2B 7338   7.308   5.649   8.906  0.3410  0.0051 -0.0472
  476PYPI   C3B 7339   7.318   5.837   8.572  0.0830 -0.1307 -0.2225
  476PYPI   C4B 7340   7.358   6.086   8.214 -0.2833  0.0781 -0.2293
  477PYPI    C1 7341  13.828  16.921  10.727 -0.0820  0.1681 -0.1002
  477PYPI    C2 7342  13.998  16.565  10.660  0.0500  0.2037  0.0387
  477PYPI    C3 7343  13.910  16.678  11.034 -0.3849  0.1399 -0.0381
  477PYPI   PO4 7344  13.588  16.886  10.549 -0.1867  0.1587  0.0166
  477PYPI   GL1 7345  13.612  17.067  10.203 -0.1309  0.3817 -0.0152
  477PYPI   GL2 7346  13.789  17.344  10.108  0.4432 -0.1542 -0.3461
  477PYPI   C1A 7347  13.543  17.020   9.765 -0.4242  0.0454  0.1819
  477PYPI   C2A 7348  13.516  17.091   9.402 -0.0879  0.2677  0.3956
  477PYPI   D3A 7349  13.395  16.794   9.028  0.3297 -0.0526 -0.0702
  477PYPI   C4A 7350  13.594  16.875   8.605 -0.0360  0.0431  0.0565
  477PYPI   C1B 7351  13.988  17.273   9.742 -0.1528  0.1498 -0.0279
  477PYPI   C2B 7352  13.981  17.337   9.358 -0.0487 -0.0487 -0.0976
  477PYPI   C3B 7353  13.623  17.268   8.937  0.4020  0.2981  0.0731
  477PYPI   C4B 7354  13.237  17.304   8.667  0.0101 -0.2001  0.1092
  478PYPI    C1 7355  11.663  14.704  10.345 -0.0064 -0.0007  0.0335
  478PYPI    C2 7356  11.491  14.970  10.589  0.1233  0.1436 -0.0302
  478PYPI    C3 7357  11.835  14.795  10.695 -0.0215 -0.0899  0.0646
  478PYPI   PO4 7358  11.541  14.508  10.234  0.2326 -0.1478 -0.2448
  478PYPI   GL1 7359  11.524  14.350   9.813  0.1069  0.0753 -0.1377
  478PYPI   GL2 7360  11.538  14.038   9.770  0.0179  0.1808 -0.2243
  478PYPI   C1A 7361  11.520  14.349   9.354  0.0583 -0.2503 -0.1440
  478PYPI   C2A 7362  11.554  14.199   8.981 -0.1868  0.3287 -0.0736
  478PYPI   D3A 7363  11.547  14.043   8.623 -0.0501  0.0288 -0.0381
  478PYPI   C4A 7364  11.287  13.741   8.430 -0.1606 -0.0873  0.1869
  478PYPI   C1B 7365  11.402  13.877   9.291 -0.1600 -0.0719  0.2028
  478PYPI   C2B 7366  11.413  13.646   8.940  0.0137 -0.0654 -0.0631
  478PYPI   C3B 7367  11.634  13.424   8.588 -0.3417 -0.0930  0.1566
  478PYPI   C4B 7368  11.374  13.296   8.272 -0.1807 -0.0516 -0.0349
  479PYPI    C1 7369  15.439   2.277  10.502 -0.0983 -0.1094 -0.1876
  479PYPI    C2 7370  15.633   2.106  10.196  0.2939 -0.0498  0.0214
  479PYPI    C3 7371  15.659   2.501  10.254 -0.0827 -0.0054 -0.0805
  479PYPI   PO4 7372  15.213   2.169  10.516 -0.1142 -0.0008  0.1338
  479PYPI   GL1 7373  15.147   2.099  10.085  0.3543  0.0427  0.2313
  479PYPI   GL2 7374  14.847   1.995   9.916  0.2753 -0.0706  0.1391
  479PYPI   C1A 7375  15.222   2.189   9.605 -0.0226 -0.0162  0.2810
  479PYPI   C2A 7376  15.210   2.076   9.206  0.0366 -0.0299  0.0494
  479PYPI   D3A 7377  15.247   1.980   8.750 -0.2204  0.0630 -0.3646
  479PYPI   C4A 7378  15.114   2.327   8.505  0.0127  0.1366 -0.1858
  479PYPI   C1B 7379  14.744   2.084   9.434  0.0054 -0.1714  0.3969
  479PYPI   C2B 7380  14.754   2.186   8.976 -0.2424  0.1324 -0.0658
  479PYPI   C3B 7381  14.644   2.230   8.516 -0.0265 -0.1244  0.1820
  479PYPI   C4B 7382  14.507   1.929   8.446 -0.1248 -0.1696  0.3214
  480PYPI    C1 7383  13.171  13.744  10.695 -0.1086  0.1905  0.0850
  480PYPI    C2 7384  13.143  13.373  10.840 -0.0088  0.1389 -0.0264
  480PYPI    C3 7385  12.930  13.668  11.005 -0.1858  0.0084 -0.0180
  480PYPI   PO4 7386  13.202  13.677  10.447 -0.0109 -0.2818 -0.0400
  480PYPI   GL1 7387  13.196  13.940  10.062  0.3002  0.0619 -0.0275
  480PYPI   GL2 7388  13.186  14.278  10.049 -0.0367 -0.0285 -0.2669
  480PYPI   C1A 7389  13.339  14.010   9.602 -0.2839 -0.5443 -0.0386
  480PYPI   C2A 7390  13.346  14.083   9.226  0.5395  0.0800  0.1487
  480PYPI   D3A 7391  13.424  14.365   8.829  0.0760  0.2582 -0.0341
  480PYPI   C4A 7392  13.407  14.627   8.591 -0.4197 -0.2296  0.0799
  480PYPI   C1B 7393  13.221  14.484   9.666 -0.2254  0.0670  0.2215
  480PYPI   C2B 7394  13.589  14.558   9.442 -0.0710  0.0882 -0.3003
  480PYPI   C3B 7395  13.850  14.664   9.027  0.0457  0.0108  0.2796
  480PYPI   C4B 7396  13.899  14.896   8.677 -0.1367  0.0153  0.1491
  481PYPI    C1 7397   7.572  16.888  10.641 -0.1003  0.1550 -0.1494
  481PYPI    C2 7398   7.867  17.142  10.550 -0.0838  0.1667 -0.0650
  481PYPI    C3 7399   7.491  17.275  10.583 -0.0596  0.1996  0.0811
  481PYPI   PO4 7400   7.639  16.724  10.539 -0.0172 -0.1541 -0.0152
  481PYPI   GL1 7401   7.701  16.442  10.155  0.2689  0.3620 -0.0303
  481PYPI   GL2 7402   7.397  16.555  10.058 -0.2945 -0.2015  0.0564
  481PYPI   C1A 7403   7.845  16.178   9.744 -0.1164  0.1609 -0.1717
  481PYPI   C2A 7404   7.895  16.189   9.262 -0.0533  0.1999 -0.0876
  481PYPI   D3A 7405   7.831  16.393   8.914 -0.0021 -0.0326  0.0649
  481PYPI   C4A 7406   7.751  16.264   8.496  0.2433  0.0248 -0.1302
  481PYPI   C1B 7407   7.470  16.520   9.641  0.0230  0.0888 -0.0291
  481PYPI   C2B 7408   7.362  16.515   9.145  0.0458  0.0809 -0.0782
  481PYPI   C3B 7409   7.485  16.631   8.751  0.0689  0.0052  0.1239
  481PYPI   C4B 7410   7.478  16.695   8.267  0.0347  0.2882  0.1377
  482PYPI    C1 7411  14.894  14.405  10.806 -0.2029 -0.0671  0.0162
  482PYPI    C2 7412  14.791  14.792  10.805  0.0369 -0.0006 -0.1883
  482PYPI    C3 7413  15.041  14.653  11.085 -0.0339 -0.0046 -0.1265
  482PYPI   PO4 7414  14.998  14.329  10.556  0.1736  0.0398 -0.0489
  482PYPI   GL1 7415  15.001  14.256  10.162 -0.0631 -0.0353 -0.2810
  482PYPI   GL2 7416  14.703  14.063  10.122  0.0001 -0.4207  0.2470
  482PYPI   C1A 7417  15.339  14.379   9.846  0.1697  0.1388  0.2382
  482PYPI   C2A 7418  15.366  14.529   9.503  0.1520 -0.3158 -0.1154
  482PYPI   D3A 7419  15.279  14.795   9.085  0.0011 -0.2766  0.2197
  482PYPI   C4A 7420  15.279  14.694   8.665  0.3645  0.2226 -0.0760
  482PYPI   C1B 7421  14.832  14.129   9.708 -0.0564  0.0440  0.0404
  482PYPI   C2B 7422  15.055  14.110   9.432 -0.2728  0.0494 -0.1577
  482PYPI   C3B 7423  15.191  14.240   8.993 -0.0693  0.0473 -0.0154
  482PYPI   C4B 7424  15.154  14.229   8.517  0.1243 -0.0093 -0.1535
  483PYPI    C1 7425  12.786   8.307  10.600 -0.0615 -0.2004  0.0650
  483PYPI    C2 7426  12.436   8.497  10.569  0.0492  0.0276  0.1811
  483PYPI    C3 7427  12.519   8.284  10.897 -0.0492 -0.1725  0.0783
  483PYPI   PO4 7428  12.939   8.525  10.461  0.0974 -0.4701  0.0783
  483PYPI   GL1 7429  12.926   8.577   9.973  0.0836 -0.2183  0.2174
  483PYPI   GL2 7430  12.607   8.558  10.076  0.1265 -0.2067  0.0306
  483PYPI   C1A 7431  13.082   8.781   9.729 -0.0950 -0.0781  0.0319
  483PYPI   C2A 7432  13.324   8.820   9.411  0.0447 -0.0540  0.2843
  483PYPI   D3A 7433  13.318   8.977   8.975 -0.0963  0.0668 -0.2982
  483PYPI   C4A 7434  12.983   9.074   8.894  0.1698  0.2445 -0.1244
  483PYPI   C1B 7435  12.271   8.448   9.830 -0.0593 -0.0614  0.1160
  483PYPI   C2B 7436  12.213   8.520   9.408 -0.0141  0.0228  0.0705
  483PYPI   C3B 7437  12.199   8.566   8.969 -0.2141  0.1076 -0.1467
  483PYPI   C4B 7438  12.104   8.606   8.578 -0.0606 -0.1458  0.0804
  484PYPI    C1 7439  17.701  13.789  11.047 -0.1829 -0.1963 -0.2072
  484PYPI    C2 7440  17.815  14.042  11.336  0.0178 -0.2895 -0.2035
  484PYPI    C3 7441  17.427  13.971  11.274 -0.0332 -0.1149 -0.0895
  484PYPI   PO4 7442  17.823  13.939  10.821  0.0841  0.0405  0.2442
  484PYPI   GL1 7443  17.999  14.240  10.518  0.0643  0.3743 -0.2924
  484PYPI   GL2 7444  18.347  14.361  10.683 -0.3692 -0.0452  0.2371
  484PYPI   C1A 7445  17.934  14.338  10.113 -0.2595  0.1859  0.1303
  484PYPI   C2A 7446  17.969  14.422   9.693 -0.5687  0.0732  0.4052
  484PYPI   D3A 7447  18.031  14.395   9.240  0.0680 -0.0422 -0.3179
  484PYPI   C4A 7448  17.987  14.577   8.871 -0.1503  0.1572 -0.2071
  484PYPI   C1B 7449  18.432  14.503  10.280 -0.2389 -0.0286 -0.0102
  484PYPI   C2B 7450  18.360  14.617   9.875 -0.1256 -0.1167  0.0647
  484PYPI   C3B 7451  18.458  14.721   9.481 -0.0246 -0.5381 -0.0043
  484PYPI   C4B 7452  18.422  14.796   9.006  0.1117 -0.0211 -0.0429
  485PYPI    C1 7453   0.208   5.691  10.429 -0.0792  0.0001  0.2869
  485PYPI    C2 7454   0.335   5.345  10.584 -0.1397 -0.1553 -0.0026
  485PYPI    C3 7455   0.365   5.682  10.796  0.3082 -0.2667  0.1222
  485PYPI   PO4 7456   0.214   5.671  10.190  0.0568 -0.2921  0.1683
  485PYPI   GL1 7457   0.074   5.783   9.820 -0.0215  0.0375 -0.0365
  485PYPI   GL2 7458  -0.251   5.845   9.810 -0.1915 -0.0157  0.1209
  485PYPI   C1A 7459   0.069   5.827   9.397 -0.1827 -0.1563 -0.0759
  485PYPI   C2A 7460  -0.066   5.752   8.879 -0.3798 -0.0368  0.0533
  485PYPI   D3A 7461   0.081   5.913   8.495  0.0475  0.1675 -0.1016
  485PYPI   C4A 7462   0.022   6.040   8.149  0.2478 -0.2417 -0.0029
  485PYPI   C1B 7463  -0.429   5.935   9.491  0.0771 -0.1317 -0.1452
  485PYPI   C2B 7464  -0.561   5.971   9.001  0.0111  0.0145 -0.2532
  485PYPI   C3B 7465  -0.582   6.147   8.591  0.0853 -0.1647 -0.1253
  485PYPI   C4B 7466  -0.575   6.048   8.110  0.1001  0.2904  0.0684
  486PYPI    C1 7467  11.260  12.328  10.513 -0.2572  0.0839 -0.1628
  486PYPI    C2 7468  11.011  12.395  10.819  0.0007 -0.0555  0.0823
  486PYPI    C3 7469  11.259  12.081  10.827  0.3136  0.1821 -0.0733
  486PYPI   PO4 7470  11.095  12.384  10.316 -0.2159 -0.2284 -0.0559
  486PYPI   GL1 7471  10.699  12.135  10.083 -0.0558 -0.1045 -0.2326
  486PYPI   GL2 7472  10.700  11.817  10.081 -0.1557 -0.3057 -0.0123
  486PYPI   C1A 7473  10.855  12.363   9.670  0.0844  0.0612 -0.2077
  486PYPI   C2A 7474  11.133  12.258   9.331  0.1326  0.0230  0.3127
  486PYPI   D3A 7475  11.120  12.209   8.812  0.2305 -0.3279 -0.0396
  486PYPI   C4A 7476  11.451  12.043   8.492  0.0540 -0.1998  0.1587
  486PYPI   C1B 7477  10.737  11.902   9.626  0.1707  0.1826  0.1433
  486PYPI   C2B 7478  10.842  11.916   9.208 -0.2217 -0.0254 -0.0190
  486PYPI   C3B 7479  10.773  11.782   8.704 -0.2381  0.1594 -0.3340
  486PYPI   C4B 7480  10.474  11.654   8.319  0.1635 -0.2063 -0.0298
  487PYPI    C1 7481   3.847   4.888  10.782 -0.0978  0.1876 -0.0612
  487PYPI    C2 7482   3.659   5.040  11.101 -0.2407 -0.2097  0.0512
  487PYPI    C3 7483   4.014   4.860  11.145 -0.0785  0.0710 -0.0784
  487PYPI   PO4 7484   3.867   5.072  10.568  0.2410 -0.0981 -0.0575
  487PYPI   GL1 7485   3.964   5.176  10.147  0.0507  0.4394  0.3437
  487PYPI   GL2 7486   4.203   4.938  10.029  0.2167  0.0482 -0.5359
  487PYPI   C1A 7487   3.764   5.305   9.856  0.0771  0.0424  0.2753
  487PYPI   C2A 7488   3.750   5.378   9.416  0.1355 -0.0013  0.0949
  487PYPI   D3A 7489   3.625   5.310   9.075 -0.1777 -0.0368  0.4199
  487PYPI   C4A 7490   3.620   5.348   8.647 -0.0239 -0.0778 -0.2512
  487PYPI   C1B 7491   4.199   5.100   9.624  0.2384  0.0731 -0.0281
  487PYPI   C2B 7492   4.080   5.077   9.187 -0.0379 -0.0386 -0.0884
  487PYPI   C3B 7493   4.133   5.111   8.789  0.2802 -0.2185 -0.0911
  487PYPI   C4B 7494   3.931   5.100   8.372 -0.1234 -0.2368 -0.0042
  488PYPI    C1 7495   6.022  16.582  10.935  0.1291  0.1738  0.0653
  488PYPI    C2 7496   6.318  16.747  10.722  0.1533  0.0069 -0.0319
  488PYPI    C3 7497   6.399  16.457  10.985  0.1067  0.1267  0.1159
  488PYPI   PO4 7498   5.803  16.716  10.751 -0.1940  0.0809 -0.1203
  488PYPI   GL1 7499   5.487  16.601  10.453 -0.1440 -0.0464  0.4145
  488PYPI   GL2 7500   5.212  16.795  10.410  0.0473  0.1241 -0.1450
  488PYPI   C1A 7501   5.685  16.552  10.022  0.0558  0.1788  0.0389
  488PYPI   C2A 7502   5.661  16.637   9.571 -0.0693 -0.1090 -0.1346
  488PYPI   D3A 7503   5.518  16.583   9.212 -0.0793 -0.0863 -0.0879
  488PYPI   C4A 7504   5.720  16.551   8.848  0.1320 -0.0538  0.2664
  488PYPI   C1B 7505   5.181  16.720   9.960 -0.2550 -0.1191  0.3361
  488PYPI   C2B 7506   5.147  16.654   9.544 -0.3103  0.1161  0.3446
  488PYPI   C3B 7507   5.044  16.789   9.081  0.2545 -0.2984 -0.1114
  488PYPI   C4B 7508   4.791  16.545   8.722 -0.7785  0.1920 -0.0075
  489PYPI    C1 7509   0.700   1.489  11.138 -0.0032  0.1427 -0.1555
  489PYPI    C2 7510   0.424   1.753  11.019  0.0314  0.2638  0.0293
  489PYPI    C3 7511   0.636   1.821  11.351  0.2930  0.1779 -0.1176
  489PYPI   PO4 7512   0.841   1.459  10.923  0.1978  0.0578 -0.0168
  489PYPI   GL1 7513   0.909   1.212  10.651 -0.1380 -0.0424 -0.3814
  489PYPI   GL2 7514   0.711   1.144  10.433 -0.1010 -0.0504  0.0399
  489PYPI   C1A 7515   1.202   1.108  10.302  0.0606  0.1201  0.0537
  489PYPI   C2A 7516   1.310   1.165   9.844 -0.0038 -0.0706 -0.0538
  489PYPI   D3A 7517   1.445   0.960   9.473 -0.3856  0.0972 -0.2419
  489PYPI   C4A 7518   1.328   0.954   9.076  0.2697  0.1439 -0.0661
  489PYPI   C1B 7519   0.812   1.054  10.020 -0.0093  0.2552  0.1424
  489PYPI   C2B 7520   0.907   1.136   9.556 -0.0355 -0.2576  0.1756
  489PYPI   C3B 7521   0.934   1.245   9.112 -0.1375  0.0991 -0.2361
  489PYPI   C4B 7522   0.830   1.483   8.711 -0.1353 -0.1360  0.0031
  490PYPI    C1 7523  16.046  15.485  10.819  0.0757 -0.2616 -0.1089
  490PYPI    C2 7524  15.699  15.305  10.905  0.0618 -0.2683 -0.1780
  490PYPI    C3 7525  16.039  15.167  11.062  0.0239 -0.2137 -0.0472
  490PYPI   PO4 7526  15.919  15.577  10.500  0.1966  0.2058 -0.1368
  490PYPI   GL1 7527  15.904  15.265  10.210  0.2865  0.2150 -0.0553
  490PYPI   GL2 7528  16.048  14.942  10.104  0.2089  0.0799  0.0387
  490PYPI   C1A 7529  15.786  15.402   9.823  0.1421  0.3213  0.0393
  490PYPI   C2A 7530  15.572  15.380   9.441  0.0471 -0.0644 -0.3323
  490PYPI   D3A 7531  15.391  15.321   9.091 -0.1216  0.0271  0.1532
  490PYPI   C4A 7532  15.239  15.656   8.760  0.1119 -0.0146 -0.2737
  490PYPI   C1B 7533  16.193  14.829   9.765 -0.0649  0.1253 -0.0549
  490PYPI   C2B 7534  16.209  14.643   9.323  0.1808  0.0774 -0.2540
  490PYPI   C3B 7535  16.236  14.554   8.901  0.0918  0.0608  0.0606
  490PYPI   C4B 7536  16.109  14.231   8.606  0.2655 -0.2257 -0.1735
  491PYPI    C1 7537  14.626  10.292  10.784  0.0420  0.1460 -0.1432
  491PYPI    C2 7538  14.397  10.231  11.107  0.2069 -0.2350 -0.0936
  491PYPI    C3 7539  14.322  10.540  10.864 -0.0722 -0.0893  0.1718
  491PYPI   PO4 7540  14.689  10.125  10.500 -0.2012  0.1070  0.2848
  491PYPI   GL1 7541  14.727  10.355  10.148 -0.1163 -0.1215  0.1342
  491PYPI   GL2 7542  14.406  10.475   9.955  0.0528 -0.0294 -0.0722
  491PYPI   C1A 7543  14.928  10.221   9.736  0.0312  0.3008 -0.0055
  491PYPI   C2A 7544  14.967  10.201   9.272 -0.2878  0.1381 -0.0253
  491PYPI   D3A 7545  14.996  10.167   8.912 -0.2939 -0.2745  0.1837
  491PYPI   C4A 7546  15.197  10.368   8.602 -0.2225  0.4943  0.0254
  491PYPI   C1B 7547  14.531  10.484   9.525  0.0087  0.0805 -0.1276
  491PYPI   C2B 7548  14.599  10.471   9.063  0.0361  0.1905  0.2152
  491PYPI   C3B 7549  14.621  10.424   8.645 -0.0460 -0.0798 -0.0425
  491PYPI   C4B 7550  14.844  10.467   8.229 -0.1530 -0.0371 -0.0651
  492PYPI    C1 7551   7.589   1.359  10.351 -0.1053  0.2280 -0.0193
  492PYPI    C2 7552   7.442   1.700  10.501  0.1074  0.3300 -0.0386
  492PYPI    C3 7553   7.833   1.619  10.532  0.0500  0.0611  0.0148
  492PYPI   PO4 7554   7.476   1.339  10.189  0.0675 -0.0708  0.0262
  492PYPI   GL1 7555   7.517   1.374   9.801 -0.3804 -0.1097 -0.4021
  492PYPI   GL2 7556   7.223   1.494   9.786 -0.0783 -0.0479  0.0902
  492PYPI   C1A 7557   7.522   1.319   9.362  0.2438 -0.1556  0.0648
  492PYPI   C2A 7558   7.464   1.304   8.972 -0.1371  0.4483 -0.5012
  492PYPI   D3A 7559   7.461   1.259   8.515  0.1102  0.0098 -0.4311
  492PYPI   C4A 7560   7.535   1.381   8.124 -0.1235  0.0381 -0.0457
  492PYPI   C1B 7561   7.074   1.540   9.421  0.2894  0.0272 -0.1214
  492PYPI   C2B 7562   7.025   1.560   9.081  0.0884 -0.2639 -0.2573
  492PYPI   C3B 7563   6.978   1.537   8.629  0.2260 -0.2472 -0.1636
  492PYPI   C4B 7564   7.010   1.393   8.235  0.2437  0.2135  0.2961
  493PYPI    C1 7565   8.126  14.032  10.486  0.0723 -0.0552  0.0651
  493PYPI    C2 7566   8.292  13.698  10.341  0.1733  0.0870 -0.1513
  493PYPI    C3 7567   8.162  13.708  10.719  0.1531 -0.2020 -0.1480
  493PYPI   PO4 7568   8.190  14.282  10.393 -0.0415  0.1244 -0.3587
  493PYPI   GL1 7569   8.218  14.436  10.058 -0.4242 -0.3589 -0.1639
  493PYPI   GL2 7570   7.844  14.552   9.971 -0.1266 -0.1216 -0.0572
  493PYPI   C1A 7571   8.411  14.287   9.669 -0.0251  0.2240 -0.2871
  493PYPI   C2A 7572   8.443  14.218   9.314  0.2391 -0.2203 -0.0301
  493PYPI   D3A 7573   8.370  14.174   8.907 -0.0462  0.0485 -0.0597
  493PYPI   C4A 7574   8.017  14.224   8.702 -0.3425  0.1493  0.0568
  493PYPI   C1B 7575   7.957  14.478   9.529 -0.2068 -0.0980 -0.0513
  493PYPI   C2B 7576   8.000  14.607   9.061 -0.3938 -0.0872 -0.1759
  493PYPI   C3B 7577   7.872  14.716   8.670  0.0607  0.0744  0.0834
  493PYPI   C4B 7578   7.743  14.882   8.326 -0.0439 -0.4352  0.1159
  494PYPI    C1 7579  14.126   9.859  10.370 -0.1466  0.3093  0.2268
  494PYPI    C2 7580  14.288   9.848  10.735  0.0817 -0.0686  0.1195
  494PYPI    C3 7581  13.980   9.609  10.646  0.0466  0.0003  0.0543
  494PYPI   PO4 7582  14.336   9.916  10.207 -0.2523  0.2610 -0.1665
  494PYPI   GL1 7583  14.679   9.863   9.951  0.0439 -0.1601 -0.1576
  494PYPI   GL2 7584  14.928   9.752  10.005 -0.1091  0.3142  0.1444
  494PYPI   C1A 7585  14.644   9.940   9.452  0.0550 -0.0086 -0.0076
  494PYPI   C2A 7586  14.600   9.897   9.063  0.3921 -0.0787 -0.1392
  494PYPI   D3A 7587  14.613   9.921   8.609  0.0846  0.3911  0.1380
  494PYPI   C4A 7588  14.330  10.164   8.340  0.0885  0.0902  0.0545
  494PYPI   C1B 7589  15.117   9.830   9.543 -0.0617 -0.0520  0.0290
  494PYPI   C2B 7590  15.107   9.641   9.116 -0.1296  0.1736  0.0116
  494PYPI   C3B 7591  15.097   9.688   8.719 -0.2205  0.0382  0.0042
  494PYPI   C4B 7592  14.930   9.954   8.234 -0.0859 -0.0903  0.0363
  495PYPI    C1 7593  17.051   0.834  11.093 -0.1814 -0.2123  0.0320
  495PYPI    C2 7594  17.342   1.106  11.055 -0.2104 -0.2019 -0.1224
  495PYPI    C3 7595  17.071   1.143  11.347  0.0934 -0.3532  0.1868
  495PYPI   PO4 7596  17.005   0.754  10.885  0.2215  0.0285  0.3762
  495PYPI   GL1 7597  17.233   0.775  10.563  0.0497 -0.0806  0.6673
  495PYPI   GL2 7598  16.981   0.824  10.325 -0.0339  0.0078  0.1564
  495PYPI   C1A 7599  17.517   0.862  10.246 -0.1053  0.1109  0.1802
  495PYPI   C2A 7600  17.791   0.677  10.060 -0.0538  0.3276  0.1952
  495PYPI   D3A 7601  17.963   0.616   9.650 -0.0517  0.0562  0.3492
  495PYPI   C4A 7602  17.904   0.457   9.292  0.0655 -0.4785 -0.1363
  495PYPI   C1B 7603  17.135   1.010   9.953  0.1191  0.1648 -0.2174
  495PYPI   C2B 7604  17.151   1.132   9.596 -0.0910  0.3436  0.2139
  495PYPI   C3B 7605  17.283   1.192   9.288 -0.3804  0.1468 -0.0195
  495PYPI   C4B 7606  17.323   1.088   8.871  0.0672 -0.1145 -0.1029
  496PYPI    C1 7607  12.589   5.024  10.570 -0.0596  0.1092 -0.0753
  496PYPI    C2 7608  12.801   5.198  10.862  0.0237 -0.1525  0.0226
  496PYPI    C3 7609  12.707   4.810  10.887 -0.0922 -0.1424 -0.2312
  496PYPI   PO4 7610  12.592   5.091  10.401  0.0792 -0.1817  0.2322
  496PYPI   GL1 7611  12.537   4.888  10.043 -0.0284  0.1304  0.0351
  496PYPI   GL2 7612  12.407   4.599   9.956  0.1372 -0.2649 -0.0685
  496PYPI   C1A 7613  12.735   5.157   9.753  0.3017 -0.0016 -0.0896
  496PYPI   C2A 7614  12.792   5.181   9.320 -0.1803 -0.1734  0.1100
  496PYPI   D3A 7615  12.863   5.141   8.879  0.0790 -0.2348  0.1668
  496PYPI   C4A 7616  13.052   5.448   8.680  0.0355 -0.1715 -0.1362
  496PYPI   C1B 7617  12.443   4.783   9.485  0.4117  0.2033 -0.2241
  496PYPI   C2B 7618  12.457   4.905   9.051 -0.0563 -0.4152  0.0782
  496PYPI   C3B 7619  12.423   4.995   8.668  0.1000  0.0375  0.1966
  496PYPI   C4B 7620  12.714   5.096   8.366 -0.0651 -0.2191  0.3121
  497PYPI    C1 7621  15.025  15.143  10.498  0.0163  0.0263 -0.0096
  497PYPI    C2 7622  15.152  14.768  10.446  0.0999  0.0721 -0.1392
  497PYPI    C3 7623  15.258  14.971  10.774  0.1074  0.0044 -0.0996
  497PYPI   PO4 7624  14.950  15.224  10.224 -0.1013  0.1331 -0.4183
  497PYPI   GL1 7625  14.763  15.285   9.918 -0.1361  0.0078 -0.0784
  497PYPI   GL2 7626  14.697  15.586   9.814  0.3313 -0.0493 -0.0426
  497PYPI   C1A 7627  14.615  15.090   9.589  0.1160 -0.3803 -0.0858
  497PYPI   C2A 7628  14.739  15.069   9.118 -0.1062 -0.0370  0.0157
  497PYPI   D3A 7629  14.995  15.165   8.798  0.1654  0.2929 -0.2172
  497PYPI   C4A 7630  14.855  15.151   8.488  0.0236 -0.4082  0.2201
  497PYPI   C1B 7631  14.564  15.792   9.460  0.1290  0.0919  0.0929
  497PYPI   C2B 7632  14.496  16.111   9.099 -0.0106 -0.1000 -0.2734
  497PYPI   C3B 7633  14.468  16.257   8.604 -0.1907 -0.0664 -0.0936
  497PYPI   C4B 7634  14.679  16.262   8.187 -0.2775 -0.1272 -0.0437
  498PYPI    C1 7635   9.272   9.610  11.236  0.0178 -0.0590  0.1345
  498PYPI    C2 7636   8.951   9.827  11.334  0.0360 -0.0052  0.0754
  498PYPI    C3 7637   9.179   9.668  11.621  0.0266  0.0597  0.1191
  498PYPI   PO4 7638   9.311   9.734  10.913  0.0544  0.1009  0.0164
  498PYPI   GL1 7639   9.111   9.842  10.488 -0.1348  0.3762 -0.0688
  498PYPI   GL2 7640   9.204  10.135  10.559 -0.1409  0.0828  0.3897
  498PYPI   C1A 7641   8.847   9.634  10.171  0.0922 -0.1111  0.0121
  498PYPI   C2A 7642   8.726   9.723   9.667 -0.1257  0.1125 -0.1520
  498PYPI   D3A 7643   8.928   9.859   9.230  0.3495  0.0669 -0.0778
  498PYPI   C4A 7644   8.879   9.951   8.747 -0.2113 -0.1419  0.1585
  498PYPI   C1B 7645   9.433  10.090  10.143 -0.0920  0.0198 -0.2274
  498PYPI   C2B 7646   9.465  10.154   9.784  0.0327  0.1826  0.4072
  498PYPI   C3B 7647   9.402  10.116   9.334  0.0281 -0.0179 -0.2662
  498PYPI   C4B 7648   9.370  10.150   9.006 -0.1726  0.0776 -0.1305
  499PYPI    C1 7649  14.628   3.120  10.531  0.1200  0.1368 -0.2845
  499PYPI    C2 7650  14.321   3.166  10.278 -0.0165  0.2956 -0.0932
  499PYPI    C3 7651  14.263   3.204  10.672  0.2044  0.0994 -0.0393
  499PYPI   PO4 7652  14.794   2.947  10.432  0.2517  0.2173  0.1653
  499PYPI   GL1 7653  14.800   2.968  10.033 -0.0413 -0.1140 -0.2667
  499PYPI   GL2 7654  14.471   2.878   9.840 -0.2450 -0.1653 -0.4117
  499PYPI   C1A 7655  14.955   3.223   9.675  0.1481 -0.0078  0.1259
  499PYPI   C2A 7656  14.971   3.393   9.267 -0.2453 -0.2390  0.0727
  499PYPI   D3A 7657  15.105   3.446   8.813  0.2351  0.1301 -0.1935
  499PYPI   C4A 7658  15.339   3.879   8.660  0.1736  0.3012 -0.1864
  499PYPI   C1B 7659  14.534   3.058   9.492  0.0857  0.2001 -0.1692
  499PYPI   C2B 7660  14.648   3.171   9.024  0.0303  0.0041  0.2453
  499PYPI   C3B 7661  14.675   3.139   8.655 -0.1018  0.0439  0.0549
  499PYPI   C4B 7662  14.604   3.082   8.219 -0.0366 -0.1384  0.0967
  500PYPI    C1 7663   5.255   5.053  10.414 -0.1526  0.1343 -0.1341
  500PYPI    C2 7664   5.253   4.847  10.756  0.0694  0.1883 -0.0988
  500PYPI    C3 7665   4.911   4.990  10.607 -0.0761 -0.1334 -0.0817
  500PYPI   PO4 7666   5.405   5.216  10.476  0.2079 -0.0903 -0.1728
  500PYPI   GL1 7667   5.555   5.342  10.097 -0.1094 -0.2718  0.2123
  500PYPI   GL2 7668   5.914   5.303  10.092  0.2979  0.0607 -0.2071
  500PYPI   C1A 7669   5.679   5.398   9.676 -0.0738  0.4215  0.1761
  500PYPI   C2A 7670   5.795   5.407   9.176 -0.1077 -0.1558  0.1700
  500PYPI   D3A 7671   6.029   5.345   8.745  0.1600  0.1144  0.1959
  500PYPI   C4A 7672   6.081   5.506   8.288  0.2060 -0.1184  0.2768
  500PYPI   C1B 7673   6.085   5.584   9.793  0.0142  0.2385  0.1312
  500PYPI   C2B 7674   5.994   5.818   9.383  0.0349 -0.2156  0.0179
  500PYPI   C3B 7675   5.875   5.876   9.002  0.0109  0.0898  0.1250
  500PYPI   C4B 7676   5.987   6.121   8.585  0.1269  0.2779 -0.0379
  501PYPI    C1 7677   4.325   6.559  10.703 -0.0730 -0.1194  0.0630
  501PYPI    C2 7678   4.606   6.307  10.570 -0.0571 -0.0055 -0.1225
  501PYPI    C3 7679   4.667   6.514  10.906  0.0275 -0.0747 -0.0947
  501PYPI   PO4 7680   4.194   6.656  10.436 -0.0047  0.1166  0.1334
  501PYPI   GL1 7681   4.094   6.549  10.103  0.1237  0.0224 -0.1621
  501PYPI   GL2 7682   3.798   6.616   9.943 -0.0724 -0.2326 -0.1555
  501PYPI   C1A 7683   4.188   6.687   9.664  0.3175 -0.5856  0.2352
  501PYPI   C2A 7684   4.256   6.620   9.150  0.2937 -0.0836  0.1187
  501PYPI   D3A 7685   4.207   6.714   8.747 -0.1127  0.1676  0.1430
  501PYPI   C4A 7686   4.512   6.916   8.537 -0.0276 -0.0294  0.1407
  501PYPI   C1B 7687   3.692   6.666   9.514 -0.0510 -0.0464 -0.2670
  501PYPI   C2B 7688   3.704   6.603   9.158  0.1244  0.0289 -0.1573
  501PYPI   C3B 7689   3.659   6.343   8.886  0.0411 -0.0646 -0.1771
  501PYPI   C4B 7690   3.583   6.287   8.449 -0.0201 -0.2034  0.0993
  502PYPI    C1 7691   4.277  15.949  11.064 -0.3202  0.3543 -0.1360
  502PYPI    C2 7692   4.228  16.273  11.293 -0.0701  0.1689  0.1875
  502PYPI    C3 7693   4.564  16.057  11.321 -0.1932 -0.0652 -0.0940
  502PYPI   PO4 7694   4.261  15.895  10.812  0.0908 -0.0585 -0.1548
  502PYPI   GL1 7695   4.411  16.222  10.526  0.1227 -0.0444 -0.2326
  502PYPI   GL2 7696   4.639  16.348  10.270  0.2372  0.2241 -0.1609
  502PYPI   C1A 7697   4.111  16.140  10.238  0.0909 -0.1139  0.0172
  502PYPI   C2A 7698   4.178  16.215   9.711  0.3628 -0.1758  0.1360
  502PYPI   D3A 7699   4.237  16.262   9.249  0.1488 -0.0622  0.0802
  502PYPI   C4A 7700   4.589  16.504   9.199 -0.0676 -0.0746 -0.0375
  502PYPI   C1B 7701   4.814  16.382   9.810 -0.0078  0.1587 -0.0676
  502PYPI   C2B 7702   4.926  16.247   9.455 -0.0271  0.1647  0.1185
  502PYPI   C3B 7703   5.112  16.288   9.080 -0.0133 -0.0909  0.0600
  502PYPI   C4B 7704   5.243  16.267   8.626 -0.2138  0.0049 -0.2221
  503PYPI    C1 7705   9.969   0.319  10.254 -0.1352 -0.2527  0.1153
  503PYPI    C2 7706   9.718   0.611  10.361  0.0499 -0.0216 -0.0708
  503PYPI    C3 7707  10.011   0.498  10.610 -0.0713 -0.1056  0.0346
  503PYPI   PO4 7708   9.822   0.072  10.117  0.2416  0.4588  0.1556
  503PYPI   GL1 7709   9.690   0.137   9.691  0.0851  0.1203  0.0618
  503PYPI   GL2 7710   9.412   0.044   9.663  0.0991  0.1141 -0.1442
  503PYPI   C1A 7711   9.635   0.252   9.231  0.0130 -0.2884 -0.0103
  503PYPI   C2A 7712   9.552   0.206   8.871 -0.1840 -0.2353  0.4576
  503PYPI   D3A 7713   9.330   0.260   8.565  0.0840  0.1129 -0.1625
  503PYPI   C4A 7714   9.340   0.056   8.234 -0.1341 -0.0791  0.0088
  503PYPI   C1B 7715   9.256  -0.093   9.286  0.1357  0.3388  0.0460
  503PYPI   C2B 7716   9.284  -0.193   8.826 -0.1925 -0.1003 -0.1191
  503PYPI   C3B 7717   9.273  -0.416   8.444 -0.4421 -0.2905  0.1429
  503PYPI   C4B 7718   9.149  -0.399   8.010  0.1875 -0.0082  0.0992
  504PYPI    C1 7719  12.083  15.571  10.680  0.1252 -0.0377 -0.0058
  504PYPI    C2 7720  11.743  15.372  10.753 -0.0054  0.1538 -0.0850
  504PYPI    C3 7721  11.961  15.516  11.057  0.0488 -0.0400 -0.0308
  504PYPI   PO4 7722  11.994  15.564  10.357 -0.3986  0.0490 -0.0809
  504PYPI   GL1 7723  11.961  15.371   9.902 -0.1389 -0.0808 -0.0998
  504PYPI   GL2 7724  12.279  15.264   9.908  0.1193 -0.2046 -0.0989
  504PYPI   C1A 7725  11.733  15.548   9.562 -0.2090 -0.1914 -0.0026
  504PYPI   C2A 7726  11.703  15.475   9.113  0.2290 -0.2842  0.2897
  504PYPI   D3A 7727  11.804  15.312   8.644  0.0371  0.0609  0.1765
  504PYPI   C4A 7728  11.915  15.165   8.197  0.4292 -0.1913 -0.0013
  504PYPI   C1B 7729  12.232  15.338   9.430 -0.0010 -0.0302 -0.0097
  504PYPI   C2B 7730  12.277  15.280   9.038  0.0220  0.0468 -0.4889
  504PYPI   C3B 7731  12.424  15.144   8.584 -0.1096 -0.2004  0.1023
  504PYPI   C4B 7732  12.424  15.082   8.197  0.0494  0.0665 -0.2001
  505PYPI    C1 7733  16.465   6.698  10.513  0.1287  0.0137 -0.0052
  505PYPI    C2 7734  16.161   6.778  10.759  0.1789  0.0266  0.0531
  505PYPI    C3 7735  16.430   7.062  10.676  0.1217  0.0444 -0.0745
  505PYPI   PO4 7736  16.373   6.618  10.326 -0.0480  0.2043  0.1089
  505PYPI   GL1 7737  16.501   6.857   9.983 -0.2051  0.1797 -0.0471
  505PYPI   GL2 7738  16.793   6.948   9.804  0.3471 -0.2115  0.0719
  505PYPI   C1A 7739  16.327   6.827   9.647 -0.0932 -0.2116  0.0577
  505PYPI   C2A 7740  16.342   6.889   9.110  0.0178  0.2861 -0.0188
  505PYPI   D3A 7741  16.268   6.752   8.651  0.0337 -0.1381  0.0566
  505PYPI   C4A 7742  16.281   6.714   8.187  0.1856 -0.0414  0.5988
  505PYPI   C1B 7743  16.782   6.959   9.387 -0.1965 -0.0593 -0.1017
  505PYPI   C2B 7744  16.848   6.936   8.910  0.0594 -0.0748 -0.0340
  505PYPI   C3B 7745  16.858   6.842   8.459  0.5574 -0.0272  0.4443
  505PYPI   C4B 7746  16.798   6.913   8.002  0.1146  0.3342  0.2206
  506ERGO   ROH 7747  15.188   8.263   6.540 -0.1129  0.0295  0.0123
  506ERGO    R1 7748  15.314   8.144   6.763  0.1509  0.1271 -0.0808
  506ERGO    R2 7749  15.547   8.244   6.873 -0.0439  0.5407 -0.0246
  506ERGO    R3 7750  15.401   8.244   7.103 -0.0413  0.0692 -0.0129
  506ERGO    R4 7751  15.680   8.269   7.191 -0.0778  0.6831 -0.0212
  506ERGO    R5 7752  15.535   8.120   7.258  0.2697  0.2934 -0.0908
  506ERGO    C1 7753  15.620   8.284   7.592 -0.0951  0.3232 -0.0082
  506ERGO    C2 7754  15.855   8.177   7.892  0.0162 -0.2534 -0.1397
  507ERGO   ROH 7755  12.786   8.102   9.959  0.0541 -0.2090 -0.2501
  507ERGO    R1 7756  12.802   8.165   9.683 -0.0207  0.0875 -0.1921
  507ERGO    R2 7757  12.671   8.381   9.572 -0.0262  0.2381  0.0758
  507ERGO    R3 7758  12.920   8.444   9.482 -0.0400  0.2916  0.0795
  507ERGO    R4 7759  12.748   8.466   9.246  0.0546 -0.1970 -0.0236
  507ERGO    R5 7760  12.930   8.348   9.263  0.1312 -0.0292  0.2304
  507ERGO    C1 7761  13.026   8.575   8.971  0.0886 -0.4002 -0.0781
  507ERGO    C2 7762  13.095   8.665   8.576 -0.1142  0.3226 -0.2011
  508ERGO   ROH 7763   4.469   8.869   9.879 -0.0359 -0.2721 -0.0888
  508ERGO    R1 7764   4.451   9.071   9.682  0.0777 -0.1815 -0.0076
  508ERGO    R2 7765   4.567   9.046   9.432 -0.0236 -0.1909 -0.0504
  508ERGO    R3 7766   4.315   9.100   9.346 -0.0046  0.0647  0.0439
  508ERGO    R4 7767   4.486   9.153   9.113 -0.0249 -0.0767 -0.0126
  508ERGO    R5 7768   4.341   9.289   9.202  0.1349  0.0593  0.0558
  508ERGO    C1 7769   4.203   9.266   8.847 -0.0079  0.2298  0.0980
  508ERGO    C2 7770   4.244   9.113   8.583 -0.1635 -0.1939 -0.0798
  509ERGO   ROH 7771   3.895   9.819  10.185 -0.0506  0.0327 -0.0699
  509ERGO    R1 7772   3.792   9.841   9.922 -0.0178  0.1241 -0.0753
  509ERGO    R2 7773   3.733  10.085   9.805  0.1755  0.1765 -0.0675
  509ERGO    R3 7774   3.898   9.994   9.609  0.1194  0.0594 -0.0612
  509ERGO    R4 7775   3.674  10.117   9.466  0.1801  0.1568 -0.0703
  509ERGO    R5 7776   3.750   9.915   9.439  0.0711  0.1126 -0.0435
  509ERGO    C1 7777   3.794  10.050   9.085  0.1300  0.0355 -0.0661
  509ERGO    C2 7778   3.699   9.912   8.659  0.0431  0.0294  0.0971
  510ERGO   ROH 7779   3.305   6.194  10.164 -0.0508  0.0415 -0.0913
  510ERGO    R1 7780   3.263   6.252   9.890 -0.0656 -0.0654 -0.1115
  510ERGO    R2 7781   3.468   6.257   9.705 -0.0244  0.1935 -0.0598
  510ERGO    R3 7782   3.310   6.079   9.573  0.2575 -0.0557 -0.0723
  510ERGO    R4 7783   3.430   6.245   9.362 -0.2469  0.3785 -0.0450
  510ERGO    R5 7784   3.218   6.206   9.392 -0.1546 -0.1076  0.0889
  510ERGO    C1 7785   3.261   6.071   9.038 -0.1119  0.2522 -0.0482
  510ERGO    C2 7786   3.176   6.071   8.675 -0.1603  0.0401  0.2989
  511ERGO   ROH 7787   6.750   1.332   9.887 -0.0097  0.0368 -0.1028
  511ERGO    R1 7788   6.767   1.220   9.628 -0.0062  0.1931 -0.1703
  511ERGO    R2 7789   6.547   1.119   9.494  0.0292  0.1073 -0.1558
  511ERGO    R3 7790   6.626   1.291   9.299 -0.1572  0.2721 -0.0913
  511ERGO    R4 7791   6.460   1.093   9.161  0.3720 -0.1084 -0.2339
  511ERGO    R5 7792   6.663   1.151   9.109  0.3116  0.3245 -0.0554
  511ERGO    C1 7793   6.484   1.239   8.784  0.3966 -0.0794 -0.2190
  511ERGO    C2 7794   6.481   1.417   8.486  0.0315  0.1926 -0.1690
  512ERGO   ROH 7795  12.996  13.440  10.032  0.3742 -0.1772 -0.0661
  512ERGO    R1 7796  12.941  13.531   9.770  0.1723 -0.1380 -0.0113
  512ERGO    R2 7797  13.138  13.627   9.601  0.0346 -0.0718 -0.1312
  512ERGO    R3 7798  13.039  13.439   9.431 -0.0502 -0.0554 -0.1015
  512ERGO    R4 7799  13.204  13.613   9.262  0.1131 -0.2063 -0.1120
  512ERGO    R5 7800  12.995  13.560   9.229  0.0801 -0.0772 -0.1475
  512ERGO    C1 7801  13.148  13.429   8.905  0.0791 -0.2693 -0.0730
  512ERGO    C2 7802  13.133  13.378   8.609 -0.2106 -0.2241 -0.1843
  513ERGO   ROH 7803  15.636  13.687   6.680  0.0535 -0.0797 -0.0580
  513ERGO    R1 7804  15.589  13.823   6.924 -0.0617  0.0124 -0.1304
  513ERGO    R2 7805  15.343  13.819   7.052 -0.0826 -0.0563 -0.1731
  513ERGO    R3 7806  15.491  13.731   7.262 -0.0735  0.1219 -0.1038
  513ERGO    R4 7807  15.250  13.844   7.384 -0.2050 -0.0413 -0.2081
  513ERGO    R5 7808  15.456  13.896   7.433 -0.2602  0.1410 -0.1586
  513ERGO    C1 7809  15.335  13.777   7.775 -0.2678  0.1348 -0.1633
  513ERGO    C2 7810  15.202  13.802   8.063 -0.2568  0.1150  0.2793
  514ERGO   ROH 7811   1.887   5.040   9.974 -0.0951  0.0443 -0.0543
  514ERGO    R1 7812   1.833   4.901   9.733  0.0234  0.0430 -0.0805
  514ERGO    R2 7813   1.689   5.013   9.526 -0.0243 -0.0214 -0.0805
  514ERGO    R3 7814   1.907   4.945   9.380  0.0368  0.1406 -0.0662
  514ERGO    R4 7815   1.691   4.974   9.183  0.0387  0.0414 -0.0876
  514ERGO    R5 7816   1.821   4.801   9.209  0.1450  0.1161 -0.1025
  514ERGO    C1 7817   1.897   4.888   8.845  0.1326  0.2300 -0.0783
  514ERGO    C2 7818   1.887   4.921   8.557 -0.0323  0.1666  0.2101
  515ERGO   ROH 7819  12.694  14.792   9.914 -0.0019 -0.2866 -0.0308
  515ERGO    R1 7820  12.783  14.631   9.699 -0.0315 -0.2292 -0.0857
  515ERGO    R2 7821  12.615  14.547   9.496 -0.0707 -0.2196 -0.0540
  515ERGO    R3 7822  12.804  14.662   9.337 -0.1347 -0.1575 -0.0868
  515ERGO    R4 7823  12.703  14.434   9.182 -0.0501 -0.2294 -0.0452
  515ERGO    R5 7824  12.912  14.476   9.230 -0.0615 -0.1288 -0.0683
  515ERGO    C1 7825  12.931  14.475   8.849 -0.0980 -0.1767 -0.0708
  515ERGO    C2 7826  13.027  14.350   8.512 -0.0529 -0.1449  0.1112
  516ERGO   ROH 7827  15.750  12.936  10.291 -0.0169  0.1276 -0.0851
  516ERGO    R1 7828  15.827  12.869  10.027  0.0633  0.0937 -0.0527
  516ERGO    R2 7829  15.657  12.895   9.811  0.1106  0.0106 -0.0980
  516ERGO    R3 7830  15.862  13.042   9.709  0.1004  0.0384 -0.0796
  516ERGO    R4 7831  15.764  12.884   9.482  0.0555  0.1188 -0.1206
  516ERGO    R5 7832  15.970  12.895   9.554  0.0693  0.0854 -0.1488
  516ERGO    C1 7833  16.019  13.015   9.196  0.0139  0.2077 -0.1163
  516ERGO    C2 7834  16.170  12.901   8.900 -0.0642 -0.1966  0.0071
  517ERGO   ROH 7835   8.907   3.041   9.461 -0.1014  0.0009 -0.1379
  517ERGO    R1 7836   9.014   2.939   9.220 -0.1075 -0.0100 -0.1365
  517ERGO    R2 7837   8.867   2.924   8.986 -0.0338  0.2252 -0.2009
  517ERGO    R3 7838   9.076   3.065   8.884  0.1450  0.0627 -0.0648
  517ERGO    R4 7839   8.918   2.988   8.650  0.3683 -0.0245 -0.1939
  517ERGO    R5 7840   9.130   2.952   8.680  0.3233 -0.1014  0.0683
  517ERGO    C1 7841   9.144   3.158   8.359  0.7702 -0.3224 -0.0621
  517ERGO    C2 7842   9.347   3.171   8.046 -0.2010 -0.1530  0.2405
  518ERGO   ROH 7843   2.896  15.418  10.577 -0.0816 -0.1023 -0.1150
  518ERGO    R1 7844   2.872  15.330  10.309 -0.2796 -0.0614 -0.1116
  518ERGO    R2 7845   2.678  15.426  10.137 -0.0716  0.3695 -0.1105
  518ERGO    R3 7846   2.892  15.481   9.978  0.0572 -0.1106 -0.1185
  518ERGO    R4 7847   2.673  15.426   9.791 -0.1627  0.6062 -0.1120
  518ERGO    R5 7848   2.868  15.330   9.793 -0.4057  0.0571 -0.2146
  518ERGO    C1 7849   2.870  15.477   9.441 -0.0948  0.2934 -0.1203
  518ERGO    C2 7850   2.852  15.489   9.114  0.1695  0.1583  0.1600
  519ERGO   ROH 7851  10.052  14.529   9.773  0.0541 -0.0396 -0.1694
  519ERGO    R1 7852   9.939  14.451   9.526 -0.0871  0.0738 -0.1427
  519ERGO    R2 7853   9.812  14.629   9.357  0.1185  0.2224 -0.1482
  519ERGO    R3 7854   9.989  14.533   9.175 -0.0296 -0.0359 -0.1601
  519ERGO    R4 7855   9.757  14.616   9.016 -0.0396  0.0116 -0.1162
  519ERGO    R5 7856   9.853  14.420   9.013 -0.1798 -0.0586 -0.0185
  519ERGO    C1 7857   9.891  14.518   8.647 -0.2706 -0.3535 -0.1087
  519ERGO    C2 7858   9.746  14.594   8.352 -0.0072  0.0508 -0.0956
  520ERGO   ROH 7859   6.163   4.965   6.415  0.2753  0.0389  0.1076
  520ERGO    R1 7860   6.095   4.875   6.674  0.2149  0.0180  0.0829
  520ERGO    R2 7861   6.108   4.609   6.748  0.1707  0.0135  0.0481
  520ERGO    R3 7862   6.264   4.706   6.949  0.1431 -0.0320  0.1008
  520ERGO    R4 7863   6.101   4.497   7.075  0.0258  0.0084  0.0461
  520ERGO    R5 7864   6.121   4.704   7.141  0.0708  0.0126  0.0566
  520ERGO    C1 7865   6.243   4.523   7.454 -0.0845 -0.0372  0.0942
  520ERGO    C2 7866   6.263   4.510   7.876 -0.1192 -0.0339  0.2164
  521ERGO   ROH 7867  10.981  16.897   6.033  0.1155  0.0345  0.1510
  521ERGO    R1 7868  10.819  16.812   6.249 -0.0720  0.2982  0.1175
  521ERGO    R2 7869  10.903  16.626   6.434 -0.4756  0.0242  0.0332
  521ERGO    R3 7870  10.836  16.820   6.612 -0.0427  0.1022  0.1227
  521ERGO    R4 7871  10.861  16.576   6.774 -0.4740 -0.0228  0.0270
  521ERGO    R5 7872  10.689  16.711   6.767 -0.2208  0.3272  0.1228
  521ERGO    C1 7873  10.773  16.730   7.139 -0.0667  0.0230  0.1073
  521ERGO    C2 7874  10.855  16.656   7.511 -0.0330 -0.1429 -0.3182
  522ERGO   ROH 7875   9.558   6.333  10.010 -0.1270 -0.0632  0.0371
  522ERGO    R1 7876   9.362   6.409   9.820 -0.0946 -0.1648 -0.0371
  522ERGO    R2 7877   9.428   6.524   9.577 -0.0601 -0.1695 -0.0281
  522ERGO    R3 7878   9.279   6.320   9.477  0.0530 -0.2406 -0.0547
  522ERGO    R4 7879   9.404   6.443   9.242 -0.0119 -0.1363 -0.0398
  522ERGO    R5 7880   9.191   6.406   9.271  0.0057 -0.2594 -0.0445
  522ERGO    C1 7881   9.250   6.205   8.953  0.1225 -0.1837 -0.0716
  522ERGO    C2 7882   9.386   6.226   8.604  0.0858  0.0327  0.1189
  523ERGO   ROH 7883   0.540   9.423   6.590  0.0153 -0.3709  0.0326
  523ERGO    R1 7884   0.686   9.374   6.828 -0.0888 -0.1818  0.1384
  523ERGO    R2 7885   0.723   9.567   7.022 -0.2112 -0.0372  0.0237
  523ERGO    R3 7886   0.618   9.377   7.185 -0.2602  0.0598  0.1053
  523ERGO    R4 7887   0.828   9.505   7.346  0.0258 -0.1788 -0.0776
  523ERGO    R5 7888   0.806   9.291   7.306 -0.2373 -0.1521 -0.0782
  523ERGO    C1 7889   0.790   9.290   7.687  0.1178 -0.1702 -0.0598
  523ERGO    C2 7890   0.678   9.048   7.987 -0.1989 -0.0418 -0.0167
  524ERGO   ROH 7891   4.466   3.444  10.047  0.0106  0.0694  0.0371
  524ERGO    R1 7892   4.633   3.437   9.818 -0.0210 -0.0477  0.0170
  524ERGO    R2 7893   4.592   3.260   9.611 -0.1628 -0.0292  0.0265
  524ERGO    R3 7894   4.593   3.486   9.460 -0.0329 -0.0327  0.0207
  524ERGO    R4 7895   4.573   3.266   9.266 -0.2046 -0.0245  0.0291
  524ERGO    R5 7896   4.721   3.427   9.266 -0.0977 -0.1223  0.0051
  524ERGO    C1 7897   4.562   3.483   8.923 -0.1070 -0.0251  0.0251
  524ERGO    C2 7898   4.499   3.305   8.589  0.3409  0.2356  0.1255
  525ERGO   ROH 7899   9.869   5.445   9.882  0.1283  0.3528 -0.0133
  525ERGO    R1 7900   9.886   5.432   9.599  0.0058  0.1425 -0.0128
  525ERGO    R2 7901   9.685   5.324   9.443 -0.1223  0.1462  0.1452
  525ERGO    R3 7902   9.698   5.565   9.317 -0.0332  0.0515 -0.0296
  525ERGO    R4 7903   9.651   5.371   9.102 -0.0857 -0.0875  0.1080
  525ERGO    R5 7904   9.812   5.518   9.112 -0.0373 -0.1350  0.0098
  525ERGO    C1 7905   9.645   5.624   8.786  0.0190 -0.3125 -0.0778
  525ERGO    C2 7906   9.647   5.833   8.631 -0.1424 -0.1043 -0.5268
  526ERGO   ROH 7907  14.152   8.729   6.918  0.0377 -0.2067 -0.0367
  526ERGO    R1 7908  14.190   8.592   7.162 -0.0409 -0.1486  0.0093
  526ERGO    R2 7909  14.354   8.687   7.363  0.0205 -0.1787 -0.0240
  526ERGO    R3 7910  14.131   8.658   7.515  0.0034  0.0061 -0.0119
  526ERGO    R4 7911  14.353   8.652   7.707  0.0257 -0.3790 -0.0439
  526ERGO    R5 7912  14.195   8.503   7.686 -0.1622 -0.1750 -0.1114
  526ERGO    C1 7913  14.142   8.604   8.050  0.0127 -0.3222 -0.0442
  526ERGO    C2 7914  14.240   8.613   8.275 -0.1340 -0.3659  0.1836
  527ERGO   ROH 7915   3.009   0.962   6.612  0.1581  0.0770 -0.0057
  527ERGO    R1 7916   3.083   1.055   6.869  0.2949 -0.0456 -0.0002
  527ERGO    R2 7917   2.909   1.057   7.083  0.2909  0.2059 -0.0058
  527ERGO    R3 7918   3.107   0.916   7.204  0.0807 -0.0995 -0.0050
  527ERGO    R4 7919   2.972   1.057   7.423  0.3991  0.2630 -0.0249
  527ERGO    R5 7920   3.185   1.061   7.379  0.4018 -0.1463 -0.1004
  527ERGO    C1 7921   3.194   0.924   7.735  0.2648  0.0095 -0.0352
  527ERGO    C2 7922   3.474   0.876   8.052  0.5026 -0.0811  0.2191
  528ERGO   ROH 7923  11.951  14.933   6.421  0.1214  0.1935  0.1372
  528ERGO    R1 7924  11.825  14.906   6.673  0.0453  0.1854  0.0985
  528ERGO    R2 7925  11.918  14.734   6.868 -0.0918  0.0810  0.0719
  528ERGO    R3 7926  11.918  14.958   7.022 -0.0136  0.0371  0.1371
  528ERGO    R4 7927  12.011  14.745   7.201  0.0437 -0.0227  0.0382
  528ERGO    R5 7928  11.845  14.882   7.237  0.0677 -0.0204  0.1450
  528ERGO    C1 7929  12.065  14.962   7.539  0.1961 -0.1242  0.0799
  528ERGO    C2 7930  12.268  15.084   7.721  0.0721  0.2061 -0.3578
  529ERGO   ROH 7931  12.288   1.544   6.389 -0.0833  0.1763  0.0314
  529ERGO    R1 7932  12.377   1.465   6.646  0.0482  0.0603 -0.0491
  529ERGO    R2 7933  12.645   1.449   6.712  0.0774  0.2883 -0.1169
  529ERGO    R3 7934  12.571   1.614   6.916 -0.0566  0.0468  0.0357
  529ERGO    R4 7935  12.757   1.423   7.038  0.1134  0.0881 -0.1439
  529ERGO    R5 7936  12.556   1.469   7.106  0.0719 -0.1428 -0.0916
  529ERGO    C1 7937  12.754   1.561   7.419  0.0085 -0.2551 -0.0165
  529ERGO    C2 7938  12.925   1.817   7.653  0.1060  0.0485  0.0063
  530ERGO   ROH 7939  12.471  10.348  10.017  0.1685 -0.1665 -0.0270
  530ERGO    R1 7940  12.596  10.286   9.770  0.2676 -0.0123 -0.0182
  530ERGO    R2 7941  12.455  10.271   9.533  0.2962 -0.2137 -0.0260
  530ERGO    R3 7942  12.642  10.449   9.449  0.0621  0.0385 -0.0228
  530ERGO    R4 7943  12.538  10.328   9.202  0.2904 -0.1658 -0.0189
  530ERGO    R5 7944  12.747  10.342   9.262  0.2606  0.1480  0.0250
  530ERGO    C1 7945  12.761  10.530   8.931  0.0672  0.0988 -0.0119
  530ERGO    C2 7946  12.715  10.564   8.616  0.2988  0.1672  0.2926
  531ERGO   ROH 7947  15.979   7.608  10.056 -0.0446 -0.1244 -0.0299
  531ERGO    R1 7948  15.846   7.616   9.806 -0.0372 -0.0554 -0.0318
  531ERGO    R2 7949  15.904   7.804   9.613  0.0091 -0.0378 -0.0013
  531ERGO    R3 7950  15.939   7.585   9.456 -0.0362 -0.0209 -0.0346
  531ERGO    R4 7951  15.988   7.814   9.278  0.1247 -0.0058  0.0279
  531ERGO    R5 7952  15.847   7.650   9.244  0.0628  0.0633 -0.0520
  531ERGO    C1 7953  16.068   7.614   8.935  0.1494  0.0286  0.0138
  531ERGO    C2 7954  16.084   7.561   8.534  0.0620  0.0855  0.0888
  532ERGO   ROH 7955   2.439  12.884  10.287 -0.3469 -0.0369  0.0739
  532ERGO    R1 7956   2.370  13.017  10.047 -0.0579  0.0120  0.0137
  532ERGO    R2 7957   2.558  13.138   9.884  0.1830 -0.2504  0.0849
  532ERGO    R3 7958   2.447  12.980   9.693  0.0786 -0.1470  0.0594
  532ERGO    R4 7959   2.561  13.206   9.545  0.2101 -0.1934  0.0967
  532ERGO    R5 7960   2.355  13.134   9.534  0.1672 -0.0644  0.0903
  532ERGO    C1 7961   2.458  13.096   9.168  0.1279 -0.0630  0.0796
  532ERGO    C2 7962   2.371  13.170   8.847  0.0688 -0.0566  0.3106
  533ERGO   ROH 7963  17.196   1.377   6.499 -0.0412  0.1843 -0.0640
  533ERGO    R1 7964  17.288   1.390   6.766  0.0049  0.0194 -0.0715
  533ERGO    R2 7965  17.139   1.503   6.970  0.1437  0.1170 -0.0252
  533ERGO    R3 7966  17.180   1.262   7.089 -0.0857  0.0420 -0.0922
  533ERGO    R4 7967  17.059   1.430   7.298  0.3541  0.2021  0.0472
  533ERGO    R5 7968  17.246   1.317   7.313  0.2137 -0.0713 -0.1465
  533ERGO    C1 7969  17.051   1.162   7.601  0.2615  0.1812  0.0264
  533ERGO    C2 7970  17.016   1.162   7.952 -0.0678  0.1316  0.1056
  534ERGO   ROH 7971   2.221  17.518  10.644  0.2286 -0.2160 -0.0184
  534ERGO    R1 7972   2.374  17.475  10.410  0.1480 -0.2344 -0.0661
  534ERGO    R2 7973   2.364  17.238  10.266 -0.0694 -0.1616 -0.1583
  534ERGO    R3 7974   2.305  17.404  10.059  0.0233 -0.0289 -0.0897
  534ERGO    R4 7975   2.462  17.188   9.939  0.0909  0.0209 -0.1419
  534ERGO    R5 7976   2.502  17.401   9.923  0.1027  0.0476  0.0036
  534ERGO    C1 7977   2.465  17.315   9.554  0.2712  0.2516 -0.0680
  534ERGO    C2 7978   2.420  17.316   9.206 -0.0821 -0.1156 -0.2146
  535ERGO   ROH 7979   5.053  14.335  10.502  0.3245  0.0028  0.0780
  535ERGO    R1 7980   4.960  14.448  10.259  0.1995 -0.0537  0.0989
  535ERGO    R2 7981   5.091  14.655  10.131  0.0035  0.0772  0.1065
  535ERGO    R3 7982   5.086  14.484   9.920  0.1335  0.0936  0.0895
  535ERGO    R4 7983   5.156  14.743   9.804  0.1175  0.1236  0.1415
  535ERGO    R5 7984   4.994  14.613   9.741  0.1748  0.0872  0.0627
  535ERGO    C1 7985   5.190  14.634   9.414  0.3060  0.1659  0.1459
  535ERGO    C2 7986   5.137  14.736   9.077 -0.1754 -0.1569 -0.0297
  536ERGO   ROH 7987  17.324  16.085  10.414  0.0598  0.1505  0.0216
  536ERGO    R1 7988  17.424  16.043  10.152  0.0470  0.1678  0.0127
  536ERGO    R2 7989  17.261  16.044   9.929  0.0226  0.1157  0.0221
  536ERGO    R3 7990  17.436  16.232   9.841 -0.0364  0.1630  0.0083
  536ERGO    R4 7991  17.359  16.085   9.600  0.2147 -0.0373  0.0600
  536ERGO    R5 7992  17.562  16.121   9.670  0.1424  0.1321  0.1642
  536ERGO    C1 7993  17.582  16.284   9.326  0.2714 -0.0819  0.0691
  536ERGO    C2 7994  17.713  16.352   8.935  0.0873  0.2037 -0.0656
  537ERGO   ROH 7995   9.029   7.584  10.210  0.0603 -0.2436  0.0394
  537ERGO    R1 7996   9.095   7.630   9.939  0.0751 -0.1068  0.0664
  537ERGO    R2 7997   9.108   7.427   9.752 -0.0962  0.0134 -0.0735
  537ERGO    R3 7998   8.934   7.586   9.616  0.0163  0.2426  0.0426
  537ERGO    R4 7999   9.119   7.485   9.411 -0.3425 -0.1551 -0.1130
  537ERGO    R5 8000   9.070   7.694   9.450  0.0357 -0.0470 -0.1430
  537ERGO    C1 8001   8.962   7.667   9.085 -0.3804 -0.0380 -0.0269
  537ERGO    C2 8002   9.002   7.544   8.848 -0.0879  0.2898 -0.1500
  538ERGO   ROH 8003   1.175  11.048   9.831 -0.2210  0.2007  0.0076
  538ERGO    R1 8004   1.045  11.007   9.582 -0.1219  0.1168 -0.0315
  538ERGO    R2 8005   1.094  11.165   9.361  0.0040  0.0118 -0.0830
  538ERGO    R3 8006   1.146  10.927   9.242  0.0115 -0.0514  0.0466
  538ERGO    R4 8007   1.115  11.115   9.020 -0.0997 -0.1959 -0.0598
  538ERGO    R5 8008   1.009  10.927   9.046 -0.0530 -0.2009  0.0916
  538ERGO    C1 8009   1.177  10.862   8.709 -0.1531 -0.3759  0.0753
  538ERGO    C2 8010   1.171  11.037   8.343 -0.1597 -0.1281 -0.2863
  539ERGO   ROH 8011  13.871  15.741   6.408  0.0899 -0.1682  0.1140
  539ERGO    R1 8012  13.993  15.649   6.647  0.0457 -0.0982  0.1653
  539ERGO    R2 8013  14.091  15.821   6.840  0.0899 -0.0383  0.0971
  539ERGO    R3 8014  13.929  15.677   7.004  0.0296  0.0885  0.1477
  539ERGO    R4 8015  14.093  15.840   7.185  0.1622  0.0081  0.0931
  539ERGO    R5 8016  14.068  15.623   7.192  0.0267  0.0280  0.1291
  539ERGO    C1 8017  13.942  15.716   7.540  0.1478  0.1542  0.1383
  539ERGO    C2 8018  13.874  15.876   7.763  0.3210  0.0136 -0.0982
  540ERGO   ROH 8019   6.509   9.473   6.453 -0.1479  0.0620 -0.0040
  540ERGO    R1 8020   6.409   9.434   6.715 -0.2244  0.0137 -0.0387
  540ERGO    R2 8021   6.232   9.231   6.778 -0.1810 -0.0557 -0.1075
  540ERGO    R3 8022   6.419   9.169   6.965 -0.2166  0.0021 -0.0544
  540ERGO    R4 8023   6.165   9.084   7.083 -0.2282  0.0847 -0.0505
  540ERGO    R5 8024   6.312   9.217   7.174 -0.2306  0.1011 -0.0902
  540ERGO    C1 8025   6.302   8.941   7.437 -0.2891  0.2209  0.0325
  540ERGO    C2 8026   6.290   8.716   7.586 -0.2156  0.1454 -0.2988
  541ERGO   ROH 8027  13.930  14.958   9.990  0.2806  0.0911  0.2297
  541ERGO    R1 8028  13.895  14.942   9.710  0.2481  0.0050  0.2385
  541ERGO    R2 8029  13.670  15.040   9.581  0.1933 -0.1163  0.2442
  541ERGO    R3 8030  13.854  15.176   9.435  0.1187 -0.0823  0.1815
  541ERGO    R4 8031  13.627  15.143   9.254  0.0518 -0.1101  0.2643
  541ERGO    R5 8032  13.833  15.088   9.214  0.0475 -0.0782  0.1846
  541ERGO    C1 8033  13.774  15.331   8.927 -0.1006 -0.0747  0.2170
  541ERGO    C2 8034  13.860  15.477   8.558  0.0890  0.1892 -0.0593
  542ERGO   ROH 8035   7.986   8.097  10.261  0.2481  0.2496 -0.0530
  542ERGO    R1 8036   8.049   8.207  10.008  0.3341  0.0222 -0.1343
  542ERGO    R2 8037   8.165   8.059   9.806  0.0890 -0.2547 -0.0856
  542ERGO    R3 8038   7.952   8.149   9.662  0.1655 -0.0516 -0.0741
  542ERGO    R4 8039   8.158   8.088   9.461  0.1084 -0.1847 -0.0797
  542ERGO    R5 8040   8.050   8.277   9.485  0.2676 -0.1029 -0.0495
  542ERGO    C1 8041   7.954   8.189   9.126  0.1916  0.0465 -0.0654
  542ERGO    C2 8042   8.084   8.219   8.864  0.2221 -0.1447 -0.3287
  543ERGO   ROH 8043   2.664  13.664  10.502  0.1158 -0.0496 -0.0205
  543ERGO    R1 8044   2.821  13.664  10.266  0.0381 -0.0696 -0.0723
  543ERGO    R2 8045   2.740  13.540  10.033 -0.1325  0.0882 -0.0962
  543ERGO    R3 8046   2.785  13.785   9.925  0.0161  0.0997 -0.0125
  543ERGO    R4 8047   2.739  13.609   9.695  0.0301  0.1733 -0.0806
  543ERGO    R5 8048   2.910  13.740   9.726  0.0778  0.0944  0.0237
  543ERGO    C1 8049   2.780  13.880   9.396  0.2643  0.2335  0.0072
  543ERGO    C2 8050   2.818  13.935   8.955  0.0653 -0.0199  0.0445
  544ERGO   ROH 8051   4.878  17.391   6.603  0.0680  0.0501  0.0124
  544ERGO    R1 8052   4.740  17.494   6.828  0.0392  0.0129  0.0119
  544ERGO    R2 8053   4.679  17.339   7.048 -0.0038 -0.0285 -0.0280
  544ERGO    R3 8054   4.808  17.538   7.183 -0.0126 -0.0626  0.0312
  544ERGO    R4 8055   4.711  17.356   7.392 -0.1348 -0.0495 -0.0143
  544ERGO    R5 8056   4.675  17.571   7.380 -0.0823 -0.0415 -0.0192
  544ERGO    C1 8057   4.850  17.553   7.718 -0.2192 -0.0937  0.0493
  544ERGO    C2 8058   4.938  17.468   8.091  0.0287  0.1221 -0.1882
  545ERGO   ROH 8059   6.086  14.252  10.316 -0.1048  0.0614  0.0331
  545ERGO    R1 8060   6.194  14.233  10.055  0.0119  0.0608  0.0806
  545ERGO    R2 8061   6.135  14.024   9.884  0.1097  0.0447  0.0624
  545ERGO    R3 8062   6.065  14.225   9.715  0.1603  0.0300  0.0247
  545ERGO    R4 8063   6.150  14.007   9.539  0.2086  0.0168  0.0681
  545ERGO    R5 8064   6.224  14.212   9.537  0.2101  0.0143  0.0717
  545ERGO    C1 8065   6.093  14.187   9.180  0.3137 -0.0132  0.0360
  545ERGO    C2 8066   5.990  14.233   8.894 -0.1470  0.0769 -0.0097
  546ERGO   ROH 8067  10.633  10.728  10.286  0.0265  0.1604  0.0724
  546ERGO    R1 8068  10.471  10.616  10.083 -0.0517  0.2270  0.0982
  546ERGO    R2 8069  10.343  10.771   9.893  0.0578  0.2744  0.0612
  546ERGO    R3 8070  10.471  10.607   9.719 -0.0554  0.1415  0.1008
  546ERGO    R4 8071  10.251  10.723   9.563  0.0868  0.3289  0.0447
  546ERGO    R5 8072  10.296  10.511   9.587 -0.1134  0.2909  0.0706
  546ERGO    C1 8073  10.319  10.541   9.208 -0.0026  0.2361  0.0723
  546ERGO    C2 8074  10.258  10.697   8.863  0.1026 -0.1869  0.0027
  547ERGO   ROH 8075   8.635  12.523  10.202 -0.1878 -0.2311  0.0871
  547ERGO    R1 8076   8.498  12.471   9.960  0.0068 -0.2430 -0.0216
  547ERGO    R2 8077   8.350  12.665   9.828 -0.1522 -0.3382  0.0286
  547ERGO    R3 8078   8.509  12.596   9.618  0.0425 -0.0109  0.0596
  547ERGO    R4 8079   8.260  12.691   9.496 -0.1439 -0.4825  0.0139
  547ERGO    R5 8080   8.358  12.500   9.459  0.2519 -0.3018  0.0184
  547ERGO    C1 8081   8.356  12.641   9.105  0.0436 -0.2592  0.0345
  547ERGO    C2 8082   8.380  12.690   8.717  0.2555 -0.2347  0.2040
  548ERGO   ROH 8083   8.636  10.118  10.413 -0.0836 -0.3053 -0.0359
  548ERGO    R1 8084   8.811  10.234  10.222 -0.1738 -0.0216  0.0499
  548ERGO    R2 8085   8.923  10.088  10.015  0.1318  0.1653  0.0846
  548ERGO    R3 8086   8.813  10.284   9.862 -0.0954  0.0202  0.0544
  548ERGO    R4 8087   8.976  10.126   9.676 -0.2291 -0.0633 -0.0047
  548ERGO    R5 8088   8.986  10.342   9.707 -0.2683 -0.0318 -0.1689
  548ERGO    C1 8089   8.904  10.332   9.334 -0.6526 -0.3329 -0.0851
  548ERGO    C2 8090   8.874  10.392   8.969  0.1842  0.0808  0.3591
  549ERGO   ROH 8091   2.002   1.656  10.673  0.0884 -0.1872  0.0502
  549ERGO    R1 8092   2.085   1.484  10.464 -0.0731 -0.2594  0.0444
  549ERGO    R2 8093   1.916   1.300  10.347 -0.3089  0.0403 -0.0977
  549ERGO    R3 8094   1.990   1.425  10.117  0.0111 -0.0072 -0.0243
  549ERGO    R4 8095   1.843   1.187  10.028 -0.2198  0.1821 -0.1691
  549ERGO    R5 8096   2.044   1.246   9.967 -0.0982 -0.0506 -0.0147
  549ERGO    C1 8097   1.871   1.239   9.627  0.1325  0.2201 -0.1418
  549ERGO    C2 8098   1.846   1.263   9.251  0.0594  0.0499 -0.5423
  550ERGO   ROH 8099  16.608   0.591  10.151 -0.1603  0.1963  0.1095
  550ERGO    R1 8100  16.761   0.518   9.925  0.0307  0.2585  0.2176
  550ERGO    R2 8101  16.652   0.497   9.672  0.1896  0.0808  0.1688
  550ERGO    R3 8102  16.852   0.669   9.607  0.0763  0.2342  0.2165
  550ERGO    R4 8103  16.729   0.596   9.350  0.2498  0.0430  0.1705
  550ERGO    R5 8104  16.941   0.582   9.402  0.2470  0.2386  0.2800
  550ERGO    C1 8105  16.961   0.815   9.101  0.1785  0.1651  0.2164
  550ERGO    C2 8106  16.877   0.912   8.736 -0.0424 -0.2802  0.3212
  551ERGO   ROH 8107   2.541  10.555   6.450 -0.1376  0.0253  0.0382
  551ERGO    R1 8108   2.465  10.732   6.657  0.0385  0.0751  0.0615
  551ERGO    R2 8109   2.256  10.679   6.830 -0.0929  0.3113 -0.0182
  551ERGO    R3 8110   2.445  10.722   7.021 -0.0895  0.0015  0.0524
  551ERGO    R4 8111   2.196  10.684   7.171 -0.1922  0.3247 -0.0355
  551ERGO    R5 8112   2.334  10.852   7.187  0.0441  0.1270  0.0437
  551ERGO    C1 8113   2.339  10.726   7.547 -0.2468  0.0416  0.0207
  551ERGO    C2 8114   2.443  10.638   7.895  0.1940  0.4700  0.0724
  552ERGO   ROH 8115   2.807  17.591   6.902  0.1163  0.0956 -0.0127
  552ERGO    R1 8116   2.932  17.760   7.091 -0.0836  0.1209  0.1022
  552ERGO    R2 8117   2.828  17.804   7.343 -0.1131 -0.2131  0.1602
  552ERGO    R3 8118   3.076  17.724   7.423  0.0077  0.0484  0.0534
  552ERGO    R4 8119   2.974  17.887   7.645 -0.0442 -0.0350  0.0781
  552ERGO    R5 8120   3.164  17.913   7.541 -0.1243  0.1457 -0.0117
  552ERGO    C1 8121   3.292  17.860   7.896  0.1093  0.3138 -0.0700
  552ERGO    C2 8122   3.345  17.926   8.156 -0.1264  0.1099  0.0176
  553ERGO   ROH 8123  10.070   3.615   9.788 -0.2297  0.2037 -0.0222
  553ERGO    R1 8124  10.101   3.513   9.526  0.0416  0.1076  0.0428
  553ERGO    R2 8125   9.888   3.484   9.351  0.1794 -0.1908 -0.0842
  553ERGO    R3 8126  10.045   3.635   9.187  0.1342 -0.1101 -0.0525
  553ERGO    R4 8127   9.895   3.458   9.007 -0.0278  0.0782 -0.1115
  553ERGO    R5 8128  10.112   3.483   9.014 -0.0133  0.0024 -0.2128
  553ERGO    C1 8129  10.046   3.584   8.652 -0.1907  0.3108 -0.0976
  553ERGO    C2 8130  10.071   3.742   8.368  0.3439 -0.0559  0.1593
  554ERGO   ROH 8131   1.959   9.036   9.978  0.2827 -0.0199  0.0719
  554ERGO    R1 8132   1.885   9.061   9.706  0.2080 -0.1309  0.0797
  554ERGO    R2 8133   1.895   9.302   9.570 -0.0278 -0.1366  0.0303
  554ERGO    R3 8134   2.048   9.160   9.396  0.0677 -0.0401  0.0372
  554ERGO    R4 8135   1.864   9.311   9.226 -0.1202 -0.2908  0.0347
  554ERGO    R5 8136   1.896   9.096   9.222  0.0943 -0.2527  0.0978
  554ERGO    C1 8137   1.989   9.183   8.862 -0.0843 -0.2901  0.0439
  554ERGO    C2 8138   1.984   9.118   8.594  0.2162 -0.0714 -0.2257
  555ERGO   ROH 8139   0.165   7.408   9.887 -0.1303  0.2075  0.0101
  555ERGO    R1 8140   0.230   7.357   9.616 -0.0561  0.2967  0.0105
  555ERGO    R2 8141   0.058   7.226   9.444  0.1351  0.0249  0.0173
  555ERGO    R3 8142   0.095   7.447   9.291 -0.2045  0.0832  0.0107
  555ERGO    R4 8143   0.009   7.239   9.102  0.2630 -0.1025 -0.0065
  555ERGO    R5 8144   0.188   7.363   9.087  0.0465  0.2307  0.0614
  555ERGO    C1 8145   0.016   7.454   8.759  0.0187 -0.1220 -0.0267
  555ERGO    C2 8146  -0.048   7.396   8.433  0.1030 -0.1204  0.2762
  556ERGO   ROH 8147   4.081   1.200  10.390 -0.0352  0.2544  0.2778
  556ERGO    R1 8148   3.919   1.097  10.182 -0.1128  0.2328  0.3487
  556ERGO    R2 8149   3.795   1.259   9.996  0.1378  0.1945  0.1412
  556ERGO    R3 8150   3.923   1.099   9.818 -0.0147 -0.1636  0.3436
  556ERGO    R4 8151   3.730   1.250   9.657  0.5368  0.2678  0.0571
  556ERGO    R5 8152   3.752   1.033   9.664  0.0105  0.2058  0.1482
  556ERGO    C1 8153   3.812   1.093   9.292  0.6261 -0.0257  0.1981
  556ERGO    C2 8154   3.698   1.138   9.063  0.0908  0.2800  0.0253
  557ERGO   ROH 8155  14.460  13.112   6.887 -0.1162 -0.2742  0.0147
  557ERGO    R1 8156  14.462  13.227   7.145 -0.0941 -0.1606 -0.0358
  557ERGO    R2 8157  14.231  13.310   7.272 -0.0881 -0.1541 -0.0321
  557ERGO    R3 8158  14.320  13.147   7.471 -0.0187 -0.0478  0.0256
  557ERGO    R4 8159  14.098  13.295   7.591 -0.1572 -0.1813 -0.0614
  557ERGO    R5 8160  14.300  13.279   7.670 -0.1633 -0.0180 -0.0070
  557ERGO    C1 8161  14.104  13.134   7.963 -0.1323 -0.0974 -0.0244
  557ERGO    C2 8162  14.065  12.917   8.228 -0.2308  0.0497 -0.1068
  558ERGO   ROH 8163   3.713   2.266   9.885 -0.1101  0.2378  0.0967
  558ERGO    R1 8164   3.739   2.326   9.609 -0.0208  0.0944  0.0741
  558ERGO    R2 8165   3.878   2.163   9.434 -0.0455 -0.0444  0.1886
  558ERGO    R3 8166   3.645   2.168   9.295 -0.0087 -0.0181  0.1249
  558ERGO    R4 8167   3.852   2.134   9.091  0.0499 -0.0502  0.1805
  558ERGO    R5 8168   3.697   2.288   9.094  0.0654 -0.0273  0.1348
  558ERGO    C1 8169   3.617   2.122   8.760  0.1401 -0.0289  0.1160
  558ERGO    C2 8170   3.670   1.973   8.461 -0.0863  0.0916 -0.2010
  559ERGO   ROH 8171  11.566   6.018  10.065 -0.2385  0.4525  0.2290
  559ERGO    R1 8172  11.636   6.042   9.792 -0.1611  0.1885  0.2227
  559ERGO    R2 8173  11.489   5.925   9.590 -0.2553  0.2105  0.2768
  559ERGO    R3 8174  11.484   6.178   9.491  0.0418  0.1527  0.1025
  559ERGO    R4 8175  11.509   6.006   9.254 -0.3679 -0.0558  0.2031
  559ERGO    R5 8176  11.639   6.174   9.308 -0.0873 -0.1994 -0.0048
  559ERGO    C1 8177  11.516   6.291   8.966 -0.1545 -0.2651 -0.0033
  559ERGO    C2 8178  11.468   6.295   8.558  0.1319  0.1018  0.1546
  560ERGO   ROH 8179   1.904  15.539  10.873  0.1964  0.0058  0.0495
  560ERGO    R1 8180   2.011  15.477  10.619  0.1524 -0.0854  0.0549
  560ERGO    R2 8181   1.907  15.279  10.458 -0.0733  0.0732  0.0164
  560ERGO    R3 8182   1.892  15.479  10.274  0.2003  0.1175  0.0357
  560ERGO    R4 8183   1.920  15.233  10.115 -0.3953  0.0423  0.0031
  560ERGO    R5 8184   2.045  15.412  10.102 -0.0374 -0.1927 -0.0723
  560ERGO    C1 8185   1.914  15.395   9.744 -0.3259  0.0659  0.0136
  560ERGO    C2 8186   1.959  15.454   9.375 -0.1569  0.0066 -0.1683
  561ERGO   ROH 8187  16.613  13.830   6.844 -0.0338 -0.1773  0.0235
  561ERGO    R1 8188  16.466  13.866   7.083 -0.0351 -0.0699  0.0072
  561ERGO    R2 8189  16.553  13.769   7.327 -0.0904 -0.0579  0.0333
  561ERGO    R3 8190  16.521  14.028   7.405  0.0108 -0.0286 -0.0217
  561ERGO    R4 8191  16.486  13.871   7.650 -0.0256  0.0412  0.0156
  561ERGO    R5 8192  16.348  14.019   7.569  0.0222  0.0731 -0.0050
  561ERGO    C1 8193  16.417  14.174   7.911  0.1071  0.1264 -0.0464
  561ERGO    C2 8194  16.497  14.202   8.212  0.0724 -0.2420  0.1012
  562ERGO   ROH 8195   7.022   0.494   9.923 -0.0501  0.0318 -0.0233
  562ERGO    R1 8196   6.917   0.451   9.663 -0.0259  0.0153 -0.0317
  562ERGO    R2 8197   6.894   0.654   9.477 -0.0474  0.0153 -0.0364
  562ERGO    R3 8198   7.036   0.483   9.321 -0.0055  0.0381 -0.0210
  562ERGO    R4 8199   6.866   0.630   9.133 -0.0034  0.0048 -0.0383
  562ERGO    R5 8200   6.882   0.413   9.152  0.0285  0.0120 -0.0365
  562ERGO    C1 8201   6.983   0.455   8.787  0.0615  0.0200 -0.0251
  562ERGO    C2 8202   6.910   0.492   8.443  0.2527 -0.1226  0.2038
  563ERGO   ROH 8203   3.705  14.065  10.465 -0.0230 -0.1072  0.0266
  563ERGO    R1 8204   3.688  14.237  10.241 -0.3648 -0.0785  0.0707
  563ERGO    R2 8205   3.886  14.250  10.048 -0.3589  0.4068  0.1129
  563ERGO    R3 8206   3.680  14.200   9.879 -0.2237  0.0019  0.0553
  563ERGO    R4 8207   3.894  14.302   9.707 -0.3422  0.4216  0.1142
  563ERGO    R5 8208   3.690  14.377   9.718 -0.5094  0.0355  0.0566
  563ERGO    C1 8209   3.705  14.285   9.349 -0.2056  0.0502  0.0609
  563ERGO    C2 8210   3.751  14.378   9.165 -0.0952 -0.0569 -0.0372
  564ERGO   ROH 8211  12.784  17.712   9.771 -0.1175  0.2549  0.1493
  564ERGO    R1 8212  12.988  17.855   9.637 -0.0275  0.1020  0.1197
  564ERGO    R2 8213  13.012  17.858   9.362 -0.0772  0.0996  0.1131
  564ERGO    R3 8214  13.005  18.127   9.396  0.1411  0.1040  0.1338
  564ERGO    R4 8215  13.202  18.084   9.183  0.0359 -0.0306  0.0666
  564ERGO    R5 8216  13.232  18.197   9.367  0.1841 -0.0662  0.0625
  564ERGO    C1 8217  13.306  18.469   9.111  0.3065 -0.1022  0.0590
  564ERGO    C2 8218  13.199  18.716   8.970  0.0935 -0.1629 -0.1323
  565ERGO   ROH 8219   4.756   8.471  10.029  0.0310 -0.0043  0.0703
  565ERGO    R1 8220   4.646   8.494   9.770  0.0405  0.1385  0.0786
  565ERGO    R2 8221   4.737   8.678   9.584  0.2144  0.0721  0.0987
  565ERGO    R3 8222   4.764   8.458   9.427 -0.0117  0.0639  0.0675
  565ERGO    R4 8223   4.754   8.682   9.239  0.2784  0.1151  0.1020
  565ERGO    R5 8224   4.628   8.504   9.236  0.0709  0.2557  0.0507
  565ERGO    C1 8225   4.789   8.478   8.891  0.1033  0.1323  0.0745
  565ERGO    C2 8226   4.870   8.317   8.604  0.1000 -0.1720  0.0915
  566ERGO   ROH 8227   4.435   6.157  10.103 -0.1283  0.1584 -0.0940
  566ERGO    R1 8228   4.475   6.239   9.835 -0.2235  0.0302 -0.1491
  566ERGO    R2 8229   4.677   6.137   9.677 -0.0696  0.1924 -0.0667
  566ERGO    R3 8230   4.472   6.082   9.507  0.0098 -0.2051 -0.0408
  566ERGO    R4 8231   4.714   6.055   9.343  0.0397  0.3652 -0.0978
  566ERGO    R5 8232   4.539   6.179   9.298 -0.2416  0.0038 -0.0272
  566ERGO    C1 8233   4.543   5.955   8.989  0.1779  0.0926 -0.0917
  566ERGO    C2 8234   4.570   5.798   8.684  0.2046  0.1981  0.1029
  567ERGO   ROH 8235  12.729   8.685   6.707 -0.0956 -0.2313 -0.0528
  567ERGO    R1 8236  12.676   8.839   6.939  0.2370 -0.1224 -0.0461
  567ERGO    R2 8237  12.489   8.764   7.128  0.1242  0.2385 -0.0239
  567ERGO    R3 8238  12.698   8.791   7.299  0.2039 -0.1557 -0.0447
  567ERGO    R4 8239  12.460   8.822   7.468  0.2369  0.5218 -0.0584
  567ERGO    R5 8240  12.628   8.961   7.453  0.5898  0.1286 -0.1502
  567ERGO    C1 8241  12.641   8.882   7.826  0.3775  0.3167 -0.0981
  567ERGO    C2 8242  12.776   8.894   8.183  0.0460 -0.0064 -0.0387
  568ERGO   ROH 8243   2.285   7.288   9.737 -0.0574 -0.3145 -0.0030
  568ERGO    R1 8244   2.355   7.371   9.476  0.0491 -0.2334  0.0501
  568ERGO    R2 8245   2.442   7.195   9.281 -0.0490 -0.2039 -0.0288
  568ERGO    R3 8246   2.240   7.305   9.137  0.0527  0.0222 -0.0010
  568ERGO    R4 8247   2.398   7.157   8.940 -0.1920 -0.2082 -0.0100
  568ERGO    R5 8248   2.341   7.367   8.929  0.0700 -0.1437 -0.0363
  568ERGO    C1 8249   2.183   7.239   8.607 -0.1798  0.0014  0.0270
  568ERGO    C2 8250   2.167   7.275   8.307 -0.0787  0.0132  0.0409
  569ERGO   ROH 8251  11.452  16.328   9.962  0.0501  0.1468  0.0701
  569ERGO    R1 8252  11.523  16.323   9.688 -0.0508  0.0198  0.0449
  569ERGO    R2 8253  11.690  16.131   9.580  0.0251  0.0525  0.1019
  569ERGO    R3 8254  11.482  16.094   9.408 -0.0189 -0.1797  0.2015
  569ERGO    R4 8255  11.716  15.992   9.265  0.0493  0.1729  0.0503
  569ERGO    R5 8256  11.574  16.141   9.192 -0.1921  0.0053  0.1643
  569ERGO    C1 8257  11.537  15.876   8.920  0.0220  0.0251  0.1138
  569ERGO    C2 8258  11.501  15.685   8.631  0.2078 -0.1682  0.3859
  570ERGO   ROH 8259  13.125   6.782   6.535  0.0601 -0.2126  0.0007
  570ERGO    R1 8260  13.145   6.738   6.813  0.1444 -0.0674  0.0178
  570ERGO    R2 8261  13.271   6.916   6.983 -0.0301  0.1498 -0.0767
  570ERGO    R3 8262  13.034   6.907   7.117 -0.0057 -0.0545 -0.0432
  570ERGO    R4 8263  13.230   6.992   7.318 -0.0832  0.3168 -0.1199
  570ERGO    R5 8264  13.092   6.824   7.334  0.1231  0.1549  0.0049
  570ERGO    C1 8265  12.984   7.028   7.638 -0.0912  0.2224 -0.1135
  570ERGO    C2 8266  12.990   7.037   8.085 -0.2737 -0.1737 -0.0395
  571ERGO   ROH 8267   2.825   0.309  10.561  0.1268 -0.1976  0.0848
  571ERGO    R1 8268   2.912   0.190  10.319  0.1419 -0.0717  0.0273
  571ERGO    R2 8269   2.739   0.062  10.145  0.1677 -0.0648 -0.0033
  571ERGO    R3 8270   2.846   0.234   9.964  0.0860  0.0449  0.0515
  571ERGO    R4 8271   2.733   0.016   9.803  0.0419  0.1237 -0.0275
  571ERGO    R5 8272   2.937   0.092   9.794  0.0336  0.1447 -0.0624
  571ERGO    C1 8273   2.829   0.151   9.433 -0.1080  0.3365  0.0098
  571ERGO    C2 8274   2.760   0.120   9.062 -0.0351  0.1083  0.2404
  572ERGO   ROH 8275   0.618  15.701  10.780  0.2054  0.0525  0.0070
  572ERGO    R1 8276   0.586  15.590  10.521  0.2253  0.0830 -0.0090
  572ERGO    R2 8277   0.389  15.675  10.346  0.1005 -0.0439  0.0657
  572ERGO    R3 8278   0.600  15.711  10.178  0.0234  0.1744  0.0134
  572ERGO    R4 8279   0.365  15.706  10.003 -0.0091 -0.2206  0.0565
  572ERGO    R5 8280   0.543  15.583   9.984  0.1597  0.0129  0.0774
  572ERGO    C1 8281   0.548  15.759   9.646 -0.1452 -0.1188  0.0019
  572ERGO    C2 8282   0.524  15.723   9.388  0.0239  0.0373 -0.0584
  573ERGO   ROH 8283   3.346  11.252   9.936  0.2128 -0.0060 -0.0446
  573ERGO    R1 8284   3.285  11.420   9.717  0.0391 -0.0282 -0.0144
  573ERGO    R2 8285   3.408  11.395   9.471  0.0784  0.1521 -0.0135
  573ERGO    R3 8286   3.152  11.379   9.380  0.0967 -0.1073 -0.0280
  573ERGO    R4 8287   3.312  11.440   9.142  0.0414  0.1575 -0.0022
  573ERGO    R5 8288   3.137  11.550   9.213 -0.0896 -0.0628  0.0301
  573ERGO    C1 8289   3.016  11.452   8.865  0.0371 -0.0828 -0.0093
  573ERGO    C2 8290   2.940  11.420   8.533  0.1315  0.1906  0.2181
  574ERGO   ROH 8291   0.972   6.742   9.723 -0.1704  0.0772 -0.0230
  574ERGO    R1 8292   1.039   6.747   9.448  0.0579  0.2043  0.0306
  574ERGO    R2 8293   0.883   6.625   9.255  0.4038 -0.0290 -0.1217
  574ERGO    R3 8294   0.888   6.872   9.142  0.1141 -0.0038 -0.0818
  574ERGO    R4 8295   0.864   6.688   8.916  0.2368  0.0210 -0.1025
  574ERGO    R5 8296   1.014   6.843   8.941  0.0802  0.1688 -0.1233
  574ERGO    C1 8297   0.857   6.956   8.612 -0.1323  0.0738 -0.0538
  574ERGO    C2 8298   0.727   7.157   8.227  0.4047 -0.3257 -0.1923
  575ERGO   ROH 8299   4.144  11.232  10.175 -0.2162 -0.3042 -0.1986
  575ERGO    R1 8300   4.181  11.391   9.943 -0.0641 -0.2298 -0.1225
  575ERGO    R2 8301   4.395  11.355   9.772 -0.0883 -0.3387 -0.1211
  575ERGO    R3 8302   4.199  11.334   9.584 -0.0945 -0.0769 -0.1503
  575ERGO    R4 8303   4.433  11.431   9.436  0.0196 -0.2299 -0.0866
  575ERGO    R5 8304   4.235  11.522   9.439  0.0979 -0.0425 -0.0679
  575ERGO    C1 8305   4.271  11.455   9.066  0.0767  0.0791 -0.0938
  575ERGO    C2 8306   4.287  11.454   8.695  0.0042  0.1500  0.1617
  576ERGO   ROH 8307  11.045   7.492  10.225 -0.0730 -0.1271 -0.0418
  576ERGO    R1 8308  11.009   7.628   9.979  0.0972 -0.0135 -0.0041
  576ERGO    R2 8309  11.220   7.691   9.812  0.1761 -0.2288  0.0191
  576ERGO    R3 8310  11.071   7.559   9.627  0.0134  0.0092 -0.0249
  576ERGO    R4 8311  11.308   7.650   9.480  0.1767 -0.2921  0.0264
  576ERGO    R5 8312  11.100   7.686   9.426  0.2254  0.0114  0.0003
  576ERGO    C1 8313  11.220   7.503   9.114  0.0243 -0.1055 -0.0109
  576ERGO    C2 8314  11.163   7.530   8.794  0.0720  0.0087  0.1493
  577ERGO   ROH 8315   5.108   5.278   9.942  0.2869  0.2149  0.0473
  577ERGO    R1 8316   5.155   5.158   9.689  0.0798  0.1210  0.0506
  577ERGO    R2 8317   5.049   5.259   9.455  0.1005  0.1895  0.0678
  577ERGO    R3 8318   5.308   5.257   9.374  0.0747 -0.0884 -0.0183
  577ERGO    R4 8319   5.153   5.248   9.126 -0.0161  0.0950  0.0337
  577ERGO    R5 8320   5.311   5.109   9.186 -0.1460 -0.0804 -0.0278
  577ERGO    C1 8321   5.457   5.240   8.858 -0.1082 -0.2209 -0.0670
  577ERGO    C2 8322   5.509   5.433   8.527  0.0812 -0.2323 -0.0805
  578ERGO   ROH 8323  10.729  14.991   9.957 -0.0101 -0.1170 -0.1842
  578ERGO    R1 8324  10.814  15.144   9.736 -0.0805  0.0359 -0.1069
  578ERGO    R2 8325  10.906  15.030   9.501  0.0697  0.1968 -0.1285
  578ERGO    R3 8326  10.714  15.185   9.388 -0.0300  0.0838 -0.1162
  578ERGO    R4 8327  10.855  15.064   9.161  0.0170  0.1526 -0.1250
  578ERGO    R5 8328  10.819  15.276   9.193 -0.1001  0.1346 -0.1307
  578ERGO    C1 8329  10.644  15.229   8.857 -0.1073  0.0207 -0.1114
  578ERGO    C2 8330  10.620  15.253   8.508 -0.0603  0.0574 -0.0708
  579ERGO   ROH 8331   8.571  11.589   6.633 -0.2804 -0.1838  0.0736
  579ERGO    R1 8332   8.596  11.634   6.911 -0.2699 -0.2795  0.0894
  579ERGO    R2 8333   8.573  11.885   7.024  0.1836 -0.2401  0.1260
  579ERGO    R3 8334   8.386  11.762   7.179 -0.1048  0.0876  0.0469
  579ERGO    R4 8335   8.560  11.901   7.369  0.3117 -0.5477  0.1482
  579ERGO    R5 8336   8.506  11.690   7.373 -0.2392 -0.4230 -0.0496
  579ERGO    C1 8337   8.376  11.796   7.715  0.1154 -0.4192  0.0869
  579ERGO    C2 8338   8.193  11.817   8.007 -0.0993  0.1186 -0.0532
  580ERGO   ROH 8339   5.150   7.570  10.212  0.1149 -0.0452  0.0730
  580ERGO    R1 8340   5.269   7.660   9.971  0.0673 -0.0316  0.0532
  580ERGO    R2 8341   5.285   7.502   9.745  0.1614 -0.0775  0.0853
  580ERGO    R3 8342   5.162   7.714   9.628  0.0375 -0.1737  0.0408
  580ERGO    R4 8343   5.251   7.546   9.404  0.2597 -0.0919  0.0742
  580ERGO    R5 8344   5.294   7.758   9.432  0.0768 -0.0609  0.0962
  580ERGO    C1 8345   5.116   7.771   9.095  0.2007 -0.1906  0.0261
  580ERGO    C2 8346   5.015   7.832   8.694 -0.1240 -0.0455  0.1061
  581ERGO   ROH 8347  13.982   1.253   9.997 -0.0833  0.2461 -0.0601
  581ERGO    R1 8348  14.173   1.144   9.819 -0.0472  0.2601 -0.0297
  581ERGO    R2 8349  14.131   0.908   9.681  0.1014  0.1174  0.1661
  581ERGO    R3 8350  14.187   1.062   9.464 -0.0843 -0.0042  0.0286
  581ERGO    R4 8351  14.159   0.790   9.358  0.0223 -0.0962  0.2349
  581ERGO    R5 8352  14.328   0.924   9.329 -0.0668 -0.0191  0.0627
  581ERGO    C1 8353  14.227   0.865   8.966 -0.1978 -0.3347  0.1460
  581ERGO    C2 8354  14.391   0.769   8.638 -0.1032  0.0429  0.0691
  582ERGO   ROH 8355  10.100  17.707   9.771 -0.0304  0.1356 -0.1374
  582ERGO    R1 8356  10.028  17.560   9.540 -0.2442  0.0674 -0.0312
  582ERGO    R2 8357   9.796  17.609   9.399 -0.1677  0.3196 -0.0774
  582ERGO    R3 8358   9.967  17.634   9.188 -0.1135 -0.0987 -0.0899
  582ERGO    R4 8359   9.701  17.612   9.066 -0.1616  0.3402 -0.0786
  582ERGO    R5 8360   9.875  17.489   9.021 -0.3847 -0.0123 -0.0212
  582ERGO    C1 8361   9.806  17.636   8.675 -0.1072 -0.0407 -0.0910
  582ERGO    C2 8362   9.758  17.670   8.322 -0.0363  0.2057  0.1562
  583ERGO   ROH 8363   2.663  16.533   6.962  0.3551 -0.2032 -0.1521
  583ERGO    R1 8364   2.682  16.715   7.178  0.1789 -0.2169 -0.1235
  583ERGO    R2 8365   2.682  16.633   7.442  0.0733 -0.2433 -0.1282
  583ERGO    R3 8366   2.913  16.776   7.453  0.0177 -0.1621  0.0002
  583ERGO    R4 8367   2.840  16.732   7.733 -0.0609 -0.2755 -0.0438
  583ERGO    R5 8368   2.883  16.924   7.639 -0.0977 -0.2324  0.0349
  583ERGO    C1 8369   3.148  16.924   7.912 -0.1913 -0.2179  0.1259
  583ERGO    C2 8370   3.368  16.876   8.085 -0.0884 -0.2737  0.3076
  584ERGO   ROH 8371   8.360   9.959   6.896 -0.1449  0.2738  0.1106
  584ERGO    R1 8372   8.296   9.847   7.148 -0.1350  0.1826  0.0723
  584ERGO    R2 8373   8.454   9.884   7.371 -0.0989  0.0558  0.0645
  584ERGO    R3 8374   8.222   9.972   7.482 -0.0649  0.0580  0.1364
  584ERGO    R4 8375   8.381   9.876   7.709 -0.0292 -0.0410  0.0782
  584ERGO    R5 8376   8.177   9.816   7.658 -0.0521  0.0055  0.0972
  584ERGO    C1 8377   8.119   9.954   8.009  0.0432 -0.0951  0.1536
  584ERGO    C2 8378   7.877   9.968   8.349  0.1031 -0.0909 -0.4276
  585ERGO   ROH 8379   7.495   4.598   6.347 -0.0891  0.0974  0.1292
  585ERGO    R1 8380   7.643   4.534   6.579 -0.0002  0.1076  0.0761
  585ERGO    R2 8381   7.766   4.725   6.736 -0.1456  0.1364  0.1559
  585ERGO    R3 8382   7.623   4.608   6.935 -0.0172 -0.0901  0.1177
  585ERGO    R4 8383   7.829   4.764   7.074 -0.1294  0.0199  0.1663
  585ERGO    R5 8384   7.786   4.552   7.101  0.0573 -0.0336  0.0648
  585ERGO    C1 8385   7.731   4.676   7.457  0.0006 -0.2607  0.1366
  585ERGO    C2 8386   7.836   4.949   7.748  0.0633  0.4701 -0.1535
  586ERGO   ROH 8387   8.170  11.086  10.425  0.1056 -0.1138 -0.0720
  586ERGO    R1 8388   8.141  10.893  10.219 -0.0731 -0.1088 -0.0539
  586ERGO    R2 8389   7.901  10.847  10.090 -0.1152  0.1114 -0.0596
  586ERGO    R3 8390   8.049  10.894   9.867 -0.0580 -0.0540 -0.0575
  586ERGO    R4 8391   7.805  10.766   9.768 -0.2149  0.2435 -0.0637
  586ERGO    R5 8392   8.010  10.704   9.728 -0.2882 -0.0009 -0.0682
  586ERGO    C1 8393   7.889  10.764   9.371 -0.2193  0.1653 -0.0641
  586ERGO    C2 8394   7.941  10.792   9.087  0.0241 -0.2216  0.1312
  587ERGO   ROH 8395  11.999   7.864   6.574 -0.0468  0.1281  0.0719
  587ERGO    R1 8396  12.098   7.744   6.811 -0.0481 -0.0086  0.0047
  587ERGO    R2 8397  12.274   7.873   6.981  0.0797 -0.1669 -0.0011
  587ERGO    R3 8398  12.085   7.815   7.168  0.0964 -0.1163  0.0309
  587ERGO    R4 8399  12.300   7.946   7.318  0.0720 -0.0163 -0.0324
  587ERGO    R5 8400  12.211   7.752   7.362  0.1081 -0.0091  0.0553
  587ERGO    C1 8401  12.138   7.933   7.689  0.0832  0.1189 -0.0207
  587ERGO    C2 8402  12.457   7.946   7.976 -0.1295  0.1243 -0.3911
  588ERGO   ROH 8403  13.888   7.762   6.908 -0.0892 -0.1361  0.1396
  588ERGO    R1 8404  13.895   7.738   7.190  0.0137 -0.2767  0.1260
  588ERGO    R2 8405  14.006   7.520   7.319  0.3425 -0.1992 -0.0173
  588ERGO    R3 8406  14.151   7.710   7.447  0.1202 -0.0673  0.0445
  588ERGO    R4 8407  14.159   7.478   7.626  0.4184 -0.1272 -0.0446
  588ERGO    R5 8408  14.098   7.680   7.678  0.1734 -0.2208  0.0372
  588ERGO    C1 8409  14.385   7.632   7.925  0.2537  0.0386 -0.0025
  588ERGO    C2 8410  14.494   7.601   8.253 -0.0243 -0.0385  0.0056
  589ERGO   ROH 8411   8.099  12.634  10.607 -0.3027  0.1186 -0.0754
  589ERGO    R1 8412   8.075  12.483  10.368 -0.1109  0.0794 -0.0718
  589ERGO    R2 8413   7.835  12.453  10.235 -0.0663 -0.1899 -0.0993
  589ERGO    R3 8414   7.977  12.547  10.024 -0.1426 -0.0417 -0.0850
  589ERGO    R4 8415   7.837  12.311   9.920  0.0453 -0.1352 -0.1229
  589ERGO    R5 8416   8.051  12.350   9.909  0.0139  0.0371 -0.1187
  589ERGO    C1 8417   7.973  12.318   9.537  0.0386  0.0359 -0.1233
  589ERGO    C2 8418   7.946  12.315   9.222 -0.1162 -0.0556 -0.2369
  590ERGO   ROH 8419   4.489   6.230   6.770 -0.0814 -0.1772 -0.0283
  590ERGO    R1 8420   4.627   6.387   6.961 -0.0765 -0.0375 -0.1464
  590ERGO    R2 8421   4.504   6.487   7.187  0.0065 -0.1416 -0.0629
  590ERGO    R3 8422   4.707   6.361   7.315  0.2287  0.0615 -0.2035
  590ERGO    R4 8423   4.606   6.554   7.511 -0.2094 -0.3956  0.0630
  590ERGO    R5 8424   4.812   6.532   7.445 -0.1356  0.0992  0.0688
  590ERGO    C1 8425   4.856   6.474   7.819 -0.1265 -0.3529  0.0043
  590ERGO    C2 8426   4.947   6.451   8.144  0.1680 -0.1196 -0.0477
  591ERGO   ROH 8427  16.312   9.326  10.123  0.1641  0.1317 -0.0190
  591ERGO    R1 8428  16.453   9.395   9.888  0.1022  0.0067 -0.0936
  591ERGO    R2 8429  16.507   9.213   9.687 -0.0069 -0.0835 -0.0381
  591ERGO    R3 8430  16.386   9.399   9.530 -0.0138 -0.1178 -0.0744
  591ERGO    R4 8431  16.552   9.242   9.345  0.2481  0.0524  0.0035
  591ERGO    R5 8432  16.553   9.459   9.369  0.0777  0.0502  0.0763
  591ERGO    C1 8433  16.463   9.433   8.999  0.3902  0.0994 -0.0062
  591ERGO    C2 8434  16.514   9.455   8.655  0.2519 -0.0673 -0.0254
  592ERGO   ROH 8435   5.230  13.355  10.345 -0.0258  0.0970  0.1330
  592ERGO    R1 8436   5.170  13.510  10.116 -0.1631 -0.0175  0.0905
  592ERGO    R2 8437   5.359  13.571   9.924 -0.1541  0.2913  0.1934
  592ERGO    R3 8438   5.176  13.462   9.755  0.1204 -0.0347  0.0946
  592ERGO    R4 8439   5.347  13.629   9.583 -0.1469  0.3756  0.2072
  592ERGO    R5 8440   5.129  13.637   9.598 -0.1808 -0.0722  0.1342
  592ERGO    C1 8441   5.169  13.560   9.226  0.1148  0.1188  0.1225
  592ERGO    C2 8442   5.111  13.689   8.874 -0.3657  0.0020 -0.0738
  593ERGO   ROH 8443  16.895  12.145  10.192 -0.0918 -0.0200  0.2050
  593ERGO    R1 8444  16.919  12.117   9.911 -0.2468 -0.1144  0.1999
  593ERGO    R2 8445  16.715  12.184   9.737 -0.1919  0.2431  0.2655
  593ERGO    R3 8446  16.907  12.338   9.622  0.0627 -0.1346  0.1690
  593ERGO    R4 8447  16.714  12.287   9.407 -0.1591  0.2537  0.2688
  593ERGO    R5 8448  16.929  12.250   9.401 -0.2293 -0.1773  0.1542
  593ERGO    C1 8449  16.895  12.491   9.107  0.0991 -0.0947  0.1800
  593ERGO    C2 8450  16.855  12.607   8.872  0.0895 -0.2430 -0.1781
  594ERGO   ROH 8451  17.067  14.831  10.505 -0.0337  0.0341 -0.1644
  594ERGO    R1 8452  16.973  14.865  10.241 -0.0174 -0.0461 -0.1808
  594ERGO    R2 8453  17.025  15.093  10.092 -0.1542 -0.0170 -0.1838
  594ERGO    R3 8454  17.121  14.913   9.912 -0.0003  0.0405 -0.1612
  594ERGO    R4 8455  17.047  15.148   9.752 -0.3015 -0.0750 -0.2033
  594ERGO    R5 8456  16.981  14.943   9.719 -0.0845 -0.1603 -0.1347
  594ERGO    C1 8457  17.149  15.012   9.384 -0.2426 -0.0548 -0.1934
  594ERGO    C2 8458  17.099  15.071   9.039  0.1516 -0.1579 -0.2875
  595ERGO   ROH 8459   4.854  11.140   9.675 -0.0222 -0.2468 -0.0839
  595ERGO    R1 8460   4.819  11.230   9.409  0.1143 -0.0925 -0.0499
  595ERGO    R2 8461   4.968  11.133   9.198  0.0596 -0.1389 -0.0600
  595ERGO    R3 8462   4.723  11.083   9.090  0.0318  0.1446 -0.1385
  595ERGO    R4 8463   4.907  11.080   8.862  0.1382 -0.1981 -0.0661
  595ERGO    R5 8464   4.726  11.199   8.881  0.2823  0.0604 -0.1911
  595ERGO    C1 8465   4.642  11.002   8.565  0.1580  0.0335 -0.1435
  595ERGO    C2 8466   4.536  10.656   8.318  0.1638 -0.0951  0.0310
  596ERGO   ROH 8467  14.181  15.872  10.041 -0.0841 -0.0246 -0.0213
  596ERGO    R1 8468  14.048  15.927   9.797 -0.0494  0.0309 -0.0299
  596ERGO    R2 8469  14.032  16.182   9.691  0.0590  0.0464 -0.0344
  596ERGO    R3 8470  14.139  16.062   9.472  0.0287 -0.0035 -0.0197
  596ERGO    R4 8471  13.964  16.272   9.364 -0.1152 -0.1608 -0.0566
  596ERGO    R5 8472  13.961  16.060   9.312 -0.0259 -0.1800  0.0518
  596ERGO    C1 8473  14.026  16.212   8.968 -0.2450 -0.3284 -0.0556
  596ERGO    C2 8474  13.871  16.311   8.612 -0.1727 -0.1426  0.1294
  597ERGO   ROH 8475   6.895   6.150  10.020  0.0553  0.0356 -0.1965
  597ERGO    R1 8476   6.900   6.021   9.768 -0.0067  0.0117 -0.1861
  597ERGO    R2 8477   6.747   6.107   9.554 -0.0216  0.0229 -0.1727
  597ERGO    R3 8478   6.987   6.113   9.426 -0.0382 -0.0354 -0.2063
  597ERGO    R4 8479   6.791   6.183   9.220 -0.0537 -0.0531 -0.1942
  597ERGO    R5 8480   6.940   6.025   9.208 -0.0772 -0.0742 -0.1812
  597ERGO    C1 8481   7.041   6.233   8.905 -0.0880 -0.1521 -0.2383
  597ERGO    C2 8482   7.032   6.289   8.583  0.1713 -0.1381  0.0740
  598ERGO   ROH 8483  14.137   9.654   9.811 -0.2439 -0.1083  0.0430
  598ERGO    R1 8484  14.041   9.652   9.545 -0.1444 -0.1348  0.0075
  598ERGO    R2 8485  14.202   9.711   9.328 -0.0616 -0.1667  0.0625
  598ERGO    R3 8486  14.115   9.469   9.239 -0.0383 -0.1730  0.0548
  598ERGO    R4 8487  14.213   9.607   8.999  0.0366 -0.1910  0.0725
  598ERGO    R5 8488  14.016   9.517   9.026  0.0257 -0.1866  0.0203
  598ERGO    C1 8489  14.137   9.319   8.723  0.1155 -0.2110  0.0709
  598ERGO    C2 8490  14.109   9.158   8.333 -0.1623 -0.2695 -0.0473
  599ERGO   ROH 8491   5.612  13.452   6.507 -0.0012  0.1912  0.0316
  599ERGO    R1 8492   5.643  13.214   6.657 -0.2151  0.1626  0.0333
  599ERGO    R2 8493   5.890  13.114   6.730 -0.2936 -0.1436 -0.0993
  599ERGO    R3 8494   5.783  13.121   6.980 -0.1466  0.0150 -0.0386
  599ERGO    R4 8495   5.954  12.883   6.979 -0.0726  0.0699  0.0467
  599ERGO    R5 8496   5.744  12.891   7.034 -0.0418  0.0438  0.1656
  599ERGO    C1 8497   5.891  12.755   7.359  0.1942  0.3433  0.1886
  599ERGO    C2 8498   6.220  12.594   7.595 -0.0495 -0.0178 -0.0155
  600ERGO   ROH 8499   0.921  16.794  10.851 -0.0104 -0.0804 -0.1269
  600ERGO    R1 8500   1.042  16.687  10.618  0.0567 -0.0139 -0.1222
  600ERGO    R2 8501   0.945  16.463  10.489  0.0861  0.0319 -0.2215
  600ERGO    R3 8502   0.944  16.628  10.273  0.1622  0.0979 -0.1723
  600ERGO    R4 8503   0.980  16.360  10.161 -0.1104  0.0965 -0.2642
  600ERGO    R5 8504   1.106  16.533  10.125  0.0326 -0.0031 -0.2526
  600ERGO    C1 8505   0.999  16.455   9.767 -0.1534  0.1961 -0.2430
  600ERGO    C2 8506   1.012  16.461   9.451  0.1392 -0.3062  0.0238
  601ERGO   ROH 8507   3.172  10.833   9.931 -0.0160 -0.2245 -0.1598
  601ERGO    R1 8508   3.213  10.952   9.678 -0.1406 -0.0700 -0.1103
  601ERGO    R2 8509   3.422  10.879   9.512 -0.0618  0.2166 -0.1480
  601ERGO    R3 8510   3.222  10.839   9.332 -0.0269  0.0853 -0.1579
  601ERGO    R4 8511   3.467  10.844   9.171 -0.0119  0.0411 -0.1241
  601ERGO    R5 8512   3.289  10.966   9.140 -0.0251 -0.0089 -0.2160
  601ERGO    C1 8513   3.306  10.786   8.803  0.0500 -0.1846 -0.1195
  601ERGO    C2 8514   3.169  10.666   8.479  0.0506 -0.0564 -0.2011
  602ERGO   ROH 8515   1.477   2.360   6.660  0.0098  0.0216 -0.0331
  602ERGO    R1 8516   1.585   2.423   6.914  0.1083  0.1893 -0.1142
  602ERGO    R2 8517   1.567   2.675   7.025 -0.2165  0.1655 -0.0958
  602ERGO    R3 8518   1.457   2.541   7.234  0.1590 -0.0265 -0.0130
  602ERGO    R4 8519   1.572   2.783   7.353 -0.4475  0.3465 -0.1496
  602ERGO    R5 8520   1.610   2.577   7.415  0.1006  0.4632 -0.0510
  602ERGO    C1 8521   1.472   2.720   7.741 -0.2294  0.2717 -0.1032
  602ERGO    C2 8522   1.527   2.608   8.119  0.0786 -0.1214 -0.1404
  603ERGO   ROH 8523  15.363   9.469   9.929 -0.0128  0.0361 -0.2325
  603ERGO    R1 8524  15.505   9.453   9.684  0.1591 -0.1046 -0.1268
  603ERGO    R2 8525  15.517   9.221   9.534 -0.0863 -0.0810 -0.1928
  603ERGO    R3 8526  15.424   9.383   9.336  0.3193  0.1361 -0.2138
  603ERGO    R4 8527  15.531   9.149   9.196 -0.0255 -0.0307 -0.2004
  603ERGO    R5 8528  15.583   9.357   9.159  0.3765 -0.1126 -0.1284
  603ERGO    C1 8529  15.452   9.260   8.814  0.3906  0.2023 -0.2245
  603ERGO    C2 8530  15.477   9.322   8.484  0.2274  0.0439  0.0132
  604ERGO   ROH 8531   4.188   5.781  10.099  0.0764 -0.0200  0.0069
  604ERGO    R1 8532   4.218   5.823   9.821  0.0004 -0.0635 -0.0093
  604ERGO    R2 8533   4.402   5.684   9.668  0.1531  0.1010  0.0105
  604ERGO    R3 8534   4.183   5.625   9.518  0.2000 -0.1968  0.0541
  604ERGO    R4 8535   4.381   5.722   9.325 -0.0154  0.1931  0.0308
  604ERGO    R5 8536   4.178   5.796   9.351 -0.1281 -0.1435  0.1173
  604ERGO    C1 8537   4.163   5.689   8.985 -0.0695 -0.0327  0.0835
  604ERGO    C2 8538   4.045   5.650   8.633 -0.0000 -0.3129  0.1067
  605ERGO   ROH 8539   7.902   0.033   6.237 -0.0806 -0.0294  0.0372
  605ERGO    R1 8540   7.966   0.210   6.448 -0.2567  0.0306  0.0424
  605ERGO    R2 8541   7.915   0.150   6.713 -0.1276 -0.0623  0.0480
  605ERGO    R3 8542   8.180   0.204   6.743 -0.1849  0.2655 -0.0032
  605ERGO    R4 8543   8.061   0.273   7.002 -0.1937 -0.0895  0.0927
  605ERGO    R5 8544   8.186   0.402   6.878 -0.4026  0.1734  0.1462
  605ERGO    C1 8545   8.394   0.396   7.197 -0.2860  0.2024  0.0707
  605ERGO    C2 8546   8.435   0.391   7.609  0.0209  0.1455 -0.2312
  606ERGO   ROH 8547  15.008  17.859   9.908 -0.1166 -0.0222 -0.0043
  606ERGO    R1 8548  14.940  17.782   9.645  0.1982 -0.2797 -0.0185
  606ERGO    R2 8549  14.810  17.952   9.469 -0.0408 -0.6069 -0.1779
  606ERGO    R3 8550  15.021  17.893   9.308  0.1902 -0.2600 -0.0123
  606ERGO    R4 8551  14.814  17.992   9.126  0.3743 -0.0970 -0.1246
  606ERGO    R5 8552  14.921  17.804   9.110  0.4843 -0.0176 -0.2759
  606ERGO    C1 8553  15.014  17.961   8.775  0.8329  0.5257  0.0617
  606ERGO    C2 8554  15.214  18.098   8.508  0.1562  0.0966 -0.0327
  607ERGO   ROH 8555   0.877  13.832  10.608 -0.1853 -0.0357 -0.0328
  607ERGO    R1 8556   0.836  14.039  10.419 -0.2443 -0.0852 -0.0735
  607ERGO    R2 8557   1.041  14.200  10.328 -0.3368  0.1347  0.1055
  607ERGO    R3 8558   0.953  14.118  10.084 -0.0333  0.0338  0.0251
  607ERGO    R4 8559   1.080  14.378  10.034 -0.4145  0.2639  0.1717
  607ERGO    R5 8560   0.878  14.319   9.977 -0.2886 -0.0592  0.0165
  607ERGO    C1 8561   1.021  14.404   9.634 -0.1750  0.2444  0.1348
  607ERGO    C2 8562   1.083  14.419   9.405  0.0589  0.1413  0.0104
  608ERGO   ROH 8563   6.824  11.892  10.363  0.0872  0.0219 -0.0344
  608ERGO    R1 8564   6.957  11.966  10.124  0.1542 -0.0757 -0.0279
  608ERGO    R2 8565   7.033  11.782   9.933 -0.1160 -0.1181 -0.0987
  608ERGO    R3 8566   6.890  11.943   9.767  0.0726  0.1277 -0.0269
  608ERGO    R4 8567   7.073  11.798   9.590 -0.2297 -0.1559 -0.1143
  608ERGO    R5 8568   7.049  12.014   9.602  0.1227 -0.1131 -0.0855
  608ERGO    C1 8569   6.963  11.960   9.235 -0.1188  0.0528 -0.0561
  608ERGO    C2 8570   6.979  11.885   8.892  0.1213  0.2037 -0.0280
  609ERGO   ROH 8571  10.211   5.072   6.297  0.0591  0.0580 -0.0245
  609ERGO    R1 8572  10.171   5.206   6.543 -0.2024  0.1395 -0.1059
  609ERGO    R2 8573   9.930   5.201   6.679 -0.2027 -0.2579 -0.0961
  609ERGO    R3 8574  10.085   5.113   6.884 -0.0081  0.1712 -0.0486
  609ERGO    R4 8575   9.841   5.211   7.012 -0.1424 -0.1338 -0.0844
  609ERGO    R5 8576  10.045   5.269   7.060 -0.2304  0.2499 -0.1709
  609ERGO    C1 8577   9.935   5.134   7.399  0.0754  0.3412 -0.0330
  609ERGO    C2 8578   9.923   5.144   7.604  0.1009  0.0247 -0.2073
  610ERGO   ROH 8579  16.388  10.356  10.224 -0.0706 -0.0267  0.0866
  610ERGO    R1 8580  16.498  10.456   9.983  0.0365 -0.1498  0.0808
  610ERGO    R2 8581  16.577  10.291   9.776 -0.1070 -0.2498  0.0898
  610ERGO    R3 8582  16.410  10.448   9.630  0.0390 -0.1027  0.0824
  610ERGO    R4 8583  16.558  10.292   9.431  0.0259 -0.0824  0.0834
  610ERGO    R5 8584  16.539  10.509   9.438  0.1382 -0.0860  0.1641
  610ERGO    C1 8585  16.391  10.440   9.093  0.2403  0.1532  0.0728
  610ERGO    C2 8586  16.410  10.534   8.721  0.0718 -0.1776  0.3687
  611ERGO   ROH 8587   6.322   1.562   9.840 -0.1168  0.2285  0.0929
  611ERGO    R1 8588   6.271   1.443   9.588  0.0571  0.1702  0.0845
  611ERGO    R2 8589   6.039   1.489   9.445  0.0457 -0.0552  0.0269
  611ERGO    R3 8590   6.213   1.558   9.248  0.0294  0.1031  0.0663
  611ERGO    R4 8591   5.963   1.500   9.108  0.0561  0.0825  0.0279
  611ERGO    R5 8592   6.158   1.413   9.066  0.0886  0.1720 -0.0072
  611ERGO    C1 8593   6.082   1.571   8.727  0.0468  0.3114  0.0656
  611ERGO    C2 8594   5.991   1.593   8.421  0.0032 -0.1833 -0.0785
  612ERGO   ROH 8595  12.649  16.634   9.792 -0.1549  0.0902  0.0533
  612ERGO    R1 8596  12.567  16.575   9.527 -0.1555  0.0255  0.0678
  612ERGO    R2 8597  12.391  16.734   9.386 -0.0843  0.0418 -0.0043
  612ERGO    R3 8598  12.590  16.735   9.201 -0.0684 -0.0999  0.0113
  612ERGO    R4 8599  12.346  16.792   9.049 -0.0136  0.1090 -0.0024
  612ERGO    R5 8600  12.491  16.635   9.008 -0.1349 -0.0041 -0.0054
  612ERGO    C1 8601  12.507  16.826   8.678  0.0426  0.0150  0.0134
  612ERGO    C2 8602  12.546  16.920   8.415 -0.0948 -0.1974 -0.0041
  613ERGO   ROH 8603  17.830  13.054   6.983 -0.0278  0.1184  0.1378
  613ERGO    R1 8604  17.795  13.169   7.239 -0.2319  0.0666  0.1349
  613ERGO    R2 8605  17.580  13.107   7.401 -0.0834 -0.3841  0.1778
  613ERGO    R3 8606  17.775  13.049   7.582  0.0817  0.0418  0.1462
  613ERGO    R4 8607  17.537  13.101   7.744  0.0244 -0.3766  0.1918
  613ERGO    R5 8608  17.731  13.196   7.766 -0.1518  0.0087  0.1161
  613ERGO    C1 8609  17.695  13.043   8.113  0.2423  0.0277  0.1703
  613ERGO    C2 8610  17.781  13.008   8.450 -0.1309  0.0250  0.3538
  614ERGO   ROH 8611  10.790   5.374   9.991 -0.1531  0.1242 -0.0834
  614ERGO    R1 8612  10.831   5.434   9.718 -0.0477  0.0394 -0.0862
  614ERGO    R2 8613  11.013   5.297   9.561 -0.1114 -0.1223 -0.0149
  614ERGO    R3 8614  10.797   5.259   9.401 -0.1013  0.0005 -0.0601
  614ERGO    R4 8615  11.014   5.327   9.217 -0.0115 -0.1432 -0.0172
  614ERGO    R5 8616  10.820   5.424   9.229  0.0416 -0.0205 -0.0660
  614ERGO    C1 8617  10.812   5.308   8.866  0.0561 -0.0400 -0.0611
  614ERGO    C2 8618  10.979   5.475   8.488  0.1448  0.1659 -0.2583
  615ERGO   ROH 8619  13.318  17.681   6.709  0.1342 -0.2802  0.0086
  615ERGO    R1 8620  13.331  17.576   6.972  0.1092 -0.2009  0.0410
  615ERGO    R2 8621  13.267  17.725   7.195 -0.0761 -0.1861 -0.0255
  615ERGO    R3 8622  13.098  17.518   7.246  0.0474 -0.2894 -0.0280
  615ERGO    R4 8623  13.074  17.692   7.480 -0.2726 -0.1484 -0.1513
  615ERGO    R5 8624  13.121  17.479   7.481 -0.1013 -0.1180  0.0201
  615ERGO    C1 8625  12.804  17.478   7.693 -0.2708 -0.2236 -0.2267
  615ERGO    C2 8626  12.569  17.555   7.910 -0.1533  0.2420 -0.3108
  616ERGO   ROH 8627  14.127   6.717   6.762 -0.0569 -0.2566 -0.0073
  616ERGO    R1 8628  14.111   6.563   6.999  0.1624 -0.0745  0.1273
  616ERGO    R2 8629  14.222   6.647   7.238 -0.1142  0.3845  0.0995
  616ERGO    R3 8630  13.971   6.605   7.332 -0.0762 -0.0598  0.0288
  616ERGO    R4 8631  14.142   6.578   7.567 -0.0959  0.5988  0.1514
  616ERGO    R5 8632  13.996   6.434   7.497  0.2421  0.1778  0.2475
  616ERGO    C1 8633  13.860   6.499   7.847 -0.0497  0.3065  0.1153
  616ERGO    C2 8634  13.756   6.628   8.167  0.2066 -0.0023  0.2092
  617ERGO   ROH 8635   8.021   1.509   9.617 -0.2738  0.2023  0.0618
  617ERGO    R1 8636   7.932   1.575   9.357 -0.0270  0.1524 -0.0393
  617ERGO    R2 8637   8.106   1.633   9.150  0.1764 -0.0358  0.0688
  617ERGO    R3 8638   7.968   1.437   9.022  0.1598 -0.0065  0.0457
  617ERGO    R4 8639   8.073   1.609   8.807  0.0162  0.1090  0.0740
  617ERGO    R5 8640   7.865   1.549   8.837  0.0470  0.0504  0.1462
  617ERGO    C1 8641   7.924   1.410   8.486 -0.0929  0.2207  0.0553
  617ERGO    C2 8642   7.995   1.496   8.084 -0.1443 -0.0576 -0.0561
  618ERGO   ROH 8643   0.937   9.470   9.783 -0.2449  0.1906 -0.0236
  618ERGO    R1 8644   0.995   9.311   9.556 -0.0463  0.1795  0.0340
  618ERGO    R2 8645   0.799   9.181   9.411  0.0949  0.0702 -0.0537
  618ERGO    R3 8646   0.910   9.315   9.202  0.1520  0.0815 -0.0175
  618ERGO    R4 8647   0.846   9.049   9.096  0.1695  0.0807 -0.0478
  618ERGO    R5 8648   1.040   9.149   9.088  0.1784  0.0792  0.0081
  618ERGO    C1 8649   0.978   9.098   8.715  0.2667  0.0974 -0.0102
  618ERGO    C2 8650   0.872   8.935   8.578 -0.2466  0.0246  0.2579
  619ERGO   ROH 8651  16.294   1.701   6.261 -0.1698 -0.1299  0.0447
  619ERGO    R1 8652  16.319   1.769   6.535 -0.1570 -0.0440  0.0226
  619ERGO    R2 8653  16.420   2.012   6.619 -0.0602 -0.0556 -0.0574
  619ERGO    R3 8654  16.186   2.024   6.757 -0.0633  0.0909 -0.0738
  619ERGO    R4 8655  16.370   2.195   6.908  0.0903 -0.1641  0.0383
  619ERGO    R5 8656  16.253   2.029   6.987 -0.0763 -0.0988 -0.0636
  619ERGO    C1 8657  16.121   2.312   7.206  0.1750 -0.0897  0.0786
  619ERGO    C2 8658  15.949   2.542   7.376  0.2150 -0.0134 -0.1171
  620ERGO   ROH 8659   7.352  16.032  10.273 -0.1205  0.0286 -0.0858
  620ERGO    R1 8660   7.456  16.032  10.010 -0.0845  0.1610 -0.0731
  620ERGO    R2 8661   7.396  15.834   9.826  0.2241  0.0537 -0.0705
  620ERGO    R3 8662   7.321  16.045   9.672 -0.0666 -0.0597 -0.0891
  620ERGO    R4 8663   7.386  15.833   9.481  0.1585 -0.0007 -0.0683
  620ERGO    R5 8664   7.467  16.036   9.483 -0.0925  0.0979 -0.1140
  620ERGO    C1 8665   7.310  16.030   9.135 -0.1526 -0.1389 -0.0844
  620ERGO    C2 8666   7.395  16.117   8.806 -0.0858 -0.1192 -0.0283
  621ERGO   ROH 8667   1.747  17.234  10.598  0.0524 -0.0545 -0.0882
  621ERGO    R1 8668   1.890  17.214  10.354  0.1177 -0.2365 -0.0365
  621ERGO    R2 8669   1.943  16.972  10.231 -0.2274 -0.3007 -0.0628
  621ERGO    R3 8670   1.824  17.092  10.018  0.0473 -0.0621 -0.0880
  621ERGO    R4 8671   2.028  16.918   9.901 -0.2007 -0.4030 -0.0395
  621ERGO    R5 8672   2.003  17.131   9.864  0.1761 -0.3459 -0.0196
  621ERGO    C1 8673   1.967  16.999   9.508  0.0726 -0.2388 -0.0496
  621ERGO    C2 8674   1.925  17.038   9.142 -0.1032  0.1302  0.3240
  622ERGO   ROH 8675   0.232  10.785  10.042 -0.0289  0.1147  0.0202
  622ERGO    R1 8676   0.099  10.789   9.793  0.0183  0.1599 -0.0062
  622ERGO    R2 8677   0.208  10.905   9.567  0.1380  0.0552 -0.0125
  622ERGO    R3 8678   0.161  10.661   9.458  0.0024  0.0633  0.0300
  622ERGO    R4 8679   0.189  10.839   9.228  0.0443  0.0014  0.0043
  622ERGO    R5 8680   0.023  10.705   9.268 -0.0061  0.0914  0.0509
  622ERGO    C1 8681   0.134  10.571   8.929 -0.1375 -0.0223  0.0539
  622ERGO    C2 8682   0.187  10.505   8.579  0.0749 -0.0601  0.1380
  623ERGO   ROH 8683   4.509   4.517   9.987  0.0817  0.1289  0.0037
  623ERGO    R1 8684   4.412   4.456   9.729  0.0631  0.1075  0.0160
  623ERGO    R2 8685   4.184   4.573   9.624  0.0212  0.0516  0.0479
  623ERGO    R3 8686   4.351   4.637   9.419 -0.0230  0.0953  0.0250
  623ERGO    R4 8687   4.095   4.573   9.290 -0.0693  0.1727  0.0711
  623ERGO    R5 8688   4.290   4.486   9.244 -0.0920  0.1595 -0.0087
  623ERGO    C1 8689   4.200   4.633   8.903 -0.1637  0.2841  0.0631
  623ERGO    C2 8690   4.011   4.623   8.605 -0.1642  0.0097  0.0248
  624ERGO   ROH 8691   7.750   9.826  10.242  0.0152 -0.0006  0.1245
  624ERGO    R1 8692   7.883   9.863   9.995  0.0002  0.0455  0.1241
  624ERGO    R2 8693   8.025   9.661   9.870 -0.0050  0.0730  0.0829
  624ERGO    R3 8694   7.863   9.720   9.660 -0.0137  0.1057  0.0976
  624ERGO    R4 8695   8.124   9.664   9.540 -0.0893 -0.2122  0.0510
  624ERGO    R5 8696   8.003   9.843   9.510  0.0664 -0.1085 -0.0142
  624ERGO    C1 8697   8.030   9.722   9.150 -0.1466 -0.3478  0.0462
  624ERGO    C2 8698   7.883   9.718   8.860 -0.1391  0.1262  0.0188
  625ERGO   ROH 8699  15.410   3.422   9.931 -0.0052  0.0624 -0.0306
  625ERGO    R1 8700  15.383   3.488   9.657 -0.0066  0.1637 -0.0062
  625ERGO    R2 8701  15.546   3.674   9.532  0.1383  0.0492  0.0095
  625ERGO    R3 8702  15.592   3.470   9.359 -0.0901  0.0533 -0.0586
  625ERGO    R4 8703  15.603   3.711   9.194  0.4053  0.1227  0.0602
  625ERGO    R5 8704  15.479   3.535   9.159  0.1354  0.3366 -0.0990
  625ERGO    C1 8705  15.679   3.540   8.834  0.3463  0.1694  0.0258
  625ERGO    C2 8706  15.686   3.502   8.459  0.0241 -0.0299  0.1012
  626ERGO   ROH 8707   2.738   4.344  10.173 -0.0463 -0.0085  0.0150
  626ERGO    R1 8708   2.763   4.459   9.916 -0.0452  0.0075  0.0221
  626ERGO    R2 8709   2.921   4.348   9.718  0.0461  0.0797  0.0501
  626ERGO    R3 8710   2.691   4.359   9.573  0.0678 -0.0207  0.0075
  626ERGO    R4 8711   2.905   4.347   9.373  0.1098  0.2496  0.0455
  626ERGO    R5 8712   2.746   4.496   9.385 -0.0040  0.1190  0.0912
  626ERGO    C1 8713   2.680   4.357   9.036  0.1672  0.2542  0.0028
  626ERGO    C2 8714   2.739   4.294   8.681 -0.0706  0.0417  0.1176
  627ERGO   ROH 8715  11.016  15.795   6.262  0.3556  0.0308 -0.1251
  627ERGO    R1 8716  10.918  15.662   6.491  0.1401  0.1205 -0.1631
  627ERGO    R2 8717  11.055  15.456   6.614 -0.1133 -0.0310 -0.1266
  627ERGO    R3 8718  11.027  15.612   6.835 -0.0235 -0.0106 -0.1288
  627ERGO    R4 8719  11.041  15.338   6.939 -0.3334 -0.0334 -0.1355
  627ERGO    R5 8720  10.885  15.485   6.980 -0.1995  0.1249 -0.1779
  627ERGO    C1 8721  11.006  15.416   7.335 -0.3773 -0.0158 -0.1428
  627ERGO    C2 8722  11.117  15.251   7.646 -0.0408  0.1152  0.1334
  628ERGO   ROH 8723  10.895  17.461   9.795  0.0833  0.1657 -0.1463
  628ERGO    R1 8724  10.977  17.550   9.540  0.0477  0.0971 -0.1828
  628ERGO    R2 8725  11.127  17.393   9.369  0.1888  0.1186 -0.0857
  628ERGO    R3 8726  10.925  17.448   9.194  0.1653 -0.1221 -0.1364
  628ERGO    R4 8727  11.171  17.471   9.035  0.2058  0.4832 -0.0021
  628ERGO    R5 8728  11.014  17.621   9.054 -0.0959  0.1694  0.0502
  628ERGO    C1 8729  11.008  17.568   8.677  0.1936  0.4695 -0.0010
  628ERGO    C2 8730  11.285  17.508   8.374 -0.1282 -0.2508  0.1399
  629ERGO   ROH 8731  17.816   4.796   9.885  0.2712 -0.2230 -0.1689
  629ERGO    R1 8732  17.753   4.918   9.638  0.0083 -0.2861 -0.1359
  629ERGO    R2 8733  17.943   4.970   9.444 -0.1152  0.0762 -0.1667
  629ERGO    R3 8734  17.773   4.828   9.286  0.0912 -0.1922 -0.1562
  629ERGO    R4 8735  17.957   4.960   9.099 -0.2873  0.3422 -0.1835
  629ERGO    R5 8736  17.739   4.969   9.095 -0.3236 -0.1258 -0.0456
  629ERGO    C1 8737  17.805   4.822   8.750 -0.1937  0.2452 -0.1834
  629ERGO    C2 8738  17.900   4.915   8.365  0.1943  0.0023 -0.3367
  630ERGO   ROH 8739  11.318   1.471   6.439 -0.1697 -0.0947 -0.0612
  630ERGO    R1 8740  11.485   1.426   6.663 -0.0093 -0.0677 -0.1758
  630ERGO    R2 8741  11.415   1.505   6.918  0.1750 -0.0384 -0.1425
  630ERGO    R3 8742  11.463   1.243   6.977  0.2208 -0.0301 -0.1330
  630ERGO    R4 8743  11.440   1.374   7.238  0.0249 -0.0394 -0.1289
  630ERGO    R5 8744  11.605   1.251   7.169  0.1109  0.0105 -0.0437
  630ERGO    C1 8745  11.499   1.054   7.478 -0.0195 -0.0322 -0.1121
  630ERGO    C2 8746  11.541   0.754   7.739  0.2136 -0.0796  0.0077
  631ERGO   ROH 8747  12.151   2.843   9.914 -0.1812 -0.1172  0.0513
  631ERGO    R1 8748  11.995   2.803   9.681 -0.0628 -0.0606 -0.0381
  631ERGO    R2 8749  11.935   3.008   9.505 -0.0311 -0.0031  0.0168
  631ERGO    R3 8750  12.044   2.839   9.322  0.0966  0.0979 -0.0021
  631ERGO    R4 8751  11.944   3.065   9.165 -0.1667 -0.0066  0.0121
  631ERGO    R5 8752  11.898   2.855   9.133  0.0365 -0.0553  0.0309
  631ERGO    C1 8753  12.051   2.940   8.794 -0.1258  0.0861 -0.0085
  631ERGO    C2 8754  12.051   3.072   8.398 -0.2675  0.0630  0.3208
  632ERGO   ROH 8755   5.019   8.334   6.480 -0.1249  0.0705 -0.0010
  632ERGO    R1 8756   5.207   8.375   6.688 -0.0623 -0.1165 -0.0182
  632ERGO    R2 8757   5.253   8.623   6.800  0.2181 -0.1541 -0.0405
  632ERGO    R3 8758   5.199   8.492   7.032  0.0920 -0.0777 -0.0275
  632ERGO    R4 8759   5.407   8.689   7.103  0.2045 -0.1910 -0.0268
  632ERGO    R5 8760   5.413   8.474   7.140  0.0623 -0.1899  0.0145
  632ERGO    C1 8761   5.445   8.605   7.497  0.0783 -0.1407 -0.0066
  632ERGO    C2 8762   5.379   8.776   7.793  0.0300  0.1679 -0.0576
  633ERGO   ROH 8763   0.796  15.988   7.314 -0.0162  0.0889  0.1174
  633ERGO    R1 8764   0.843  16.050   7.587 -0.0374  0.1847  0.0999
  633ERGO    R2 8765   0.640  16.123   7.760 -0.0804  0.0621  0.1056
  633ERGO    R3 8766   0.739  15.919   7.910  0.0980  0.1692  0.1368
  633ERGO    R4 8767   0.586  16.082   8.099 -0.1560 -0.0130  0.0845
  633ERGO    R5 8768   0.794  16.019   8.120 -0.0933  0.2234  0.1597
  633ERGO    C1 8769   0.647  15.865   8.436 -0.0326  0.0439  0.1016
  633ERGO    C2 8770   0.336  15.626   8.625 -0.1845 -0.1186 -0.3125
  634ERGO   ROH 8771   1.673   5.855   9.960 -0.2501  0.1756 -0.0117
  634ERGO    R1 8772   1.656   5.977   9.705 -0.3743  0.0808 -0.0499
  634ERGO    R2 8773   1.823   5.908   9.495 -0.1164  0.3701  0.0507
  634ERGO    R3 8774   1.588   5.868   9.365  0.0206 -0.1519 -0.0601
  634ERGO    R4 8775   1.765   5.986   9.164 -0.0999  0.0968 -0.0187
  634ERGO    R5 8776   1.567   6.057   9.220 -0.2746 -0.2578 -0.1605
  634ERGO    C1 8777   1.510   5.994   8.848  0.0384 -0.5523 -0.1633
  634ERGO    C2 8778   1.415   6.054   8.554  0.0718 -0.0519  0.0384
  635ERGO   ROH 8779  15.285   8.482  10.091 -0.2488 -0.0335  0.1019
  635ERGO    R1 8780  15.190   8.305   9.891 -0.1847  0.0002  0.0386
  635ERGO    R2 8781  14.932   8.318   9.791 -0.1403  0.0615 -0.0976
  635ERGO    R3 8782  15.060   8.335   9.553 -0.0046  0.0597 -0.0230
  635ERGO    R4 8783  14.809   8.201   9.490  0.0567  0.0477 -0.1720
  635ERGO    R5 8784  15.009   8.131   9.441  0.0805  0.0626 -0.0513
  635ERGO    C1 8785  14.859   8.149   9.091  0.2988  0.0378 -0.1452
  635ERGO    C2 8786  14.811   8.111   8.733  0.0444  0.0253 -0.2447
  636ERGO   ROH 8787   2.336  10.817   9.739  0.2543 -0.0134  0.0180
  636ERGO    R1 8788   2.205  10.908   9.505  0.1962 -0.0719  0.0271
  636ERGO    R2 8789   2.334  11.057   9.311  0.1062  0.0222  0.0365
  636ERGO    R3 8790   2.242  10.861   9.146  0.2207 -0.0212  0.0236
  636ERGO    R4 8791   2.279  11.095   8.972  0.1296 -0.0063  0.0295
  636ERGO    R5 8792   2.097  10.976   8.993  0.1851 -0.0926  0.0056
  636ERGO    C1 8793   2.161  10.933   8.619  0.2506 -0.0636  0.0133
  636ERGO    C2 8794   2.215  10.959   8.321  0.2032  0.1561 -0.0925
  637ERGO   ROH 8795   3.844  13.252  10.387 -0.0002  0.3014 -0.0041
  637ERGO    R1 8796   3.809  13.139  10.130 -0.0119  0.1304  0.0710
  637ERGO    R2 8797   3.617  13.229   9.953 -0.0700 -0.0350  0.0458
  637ERGO    R3 8798   3.829  13.255   9.785 -0.1048 -0.0765 -0.0051
  637ERGO    R4 8799   3.595  13.245   9.608 -0.1436 -0.0317  0.0504
  637ERGO    R5 8800   3.772  13.118   9.596 -0.1727 -0.0645  0.0087
  637ERGO    C1 8801   3.781  13.278   9.250 -0.2192 -0.0687  0.0054
  637ERGO    C2 8802   3.657  13.433   9.003  0.0209  0.1419  0.0040
  638ERGO   ROH 8803   1.491  13.720  10.502 -0.1080  0.1267  0.1468
  638ERGO    R1 8804   1.344  13.837  10.290 -0.1082  0.0147  0.0852
  638ERGO    R2 8805   1.439  14.052  10.145 -0.1933  0.0598  0.0985
  638ERGO    R3 8806   1.393  13.888   9.933 -0.0176  0.0111  0.0961
  638ERGO    R4 8807   1.479  14.142   9.813 -0.3555  0.1350  0.0983
  638ERGO    R5 8808   1.296  14.032   9.767 -0.2267 -0.0964  0.1192
  638ERGO    C1 8809   1.459  14.041   9.422 -0.2852  0.1331  0.0961
  638ERGO    C2 8810   1.464  14.161   9.048  0.0188  0.2425  0.0086
  639ERGO   ROH 8811  17.498  15.880   7.231 -0.0019 -0.2000  0.0073
  639ERGO    R1 8812  17.542  15.910   7.510  0.0882 -0.0887 -0.0176
  639ERGO    R2 8813  17.401  15.764   7.698 -0.0123  0.1477  0.0948
  639ERGO    R3 8814  17.650  15.697   7.784 -0.0557 -0.0456  0.0734
  639ERGO    R4 8815  17.487  15.709   8.028 -0.0533 -0.0495  0.0736
  639ERGO    R5 8816  17.675  15.815   7.992  0.0135 -0.1508  0.1251
  639ERGO    C1 8817  17.771  15.614   8.302 -0.1181 -0.3458  0.0413
  639ERGO    C2 8818  17.789  15.752   8.752  0.0959  0.1317 -0.0407
  640ERGO   ROH 8819   1.989   8.367   6.458  0.1330  0.0558  0.0175
  640ERGO    R1 8820   1.981   8.347   6.740  0.1787 -0.0094  0.0149
  640ERGO    R2 8821   2.069   8.549   6.906 -0.0104  0.0515  0.0499
  640ERGO    R3 8822   1.821   8.525   7.014  0.0193 -0.2248  0.0627
  640ERGO    R4 8823   1.970   8.690   7.205 -0.2709  0.2793 -0.1392
  640ERGO    R5 8824   1.860   8.507   7.250  0.0349  0.1492  0.0911
  640ERGO    C1 8825   1.679   8.750   7.481 -0.3948  0.1525 -0.2373
  640ERGO    C2 8826   1.521   8.914   7.732  0.1723 -0.2212  0.2446
  641ERGO   ROH 8827   8.874   6.536   6.375  0.0395  0.4670  0.0209
  641ERGO    R1 8828   8.724   6.675   6.570 -0.0628  0.2895  0.0706
  641ERGO    R2 8829   8.457   6.622   6.618 -0.0606  0.1715 -0.0420
  641ERGO    R3 8830   8.542   6.590   6.874 -0.1253  0.0286 -0.0374
  641ERGO    R4 8831   8.249   6.599   6.893 -0.1291 -0.0031 -0.1067
  641ERGO    R5 8832   8.391   6.722   7.004 -0.1669 -0.0576  0.0019
  641ERGO    C1 8833   8.208   6.555   7.294 -0.2297 -0.2387 -0.1401
  641ERGO    C2 8834   8.078   6.716   7.620 -0.0669 -0.1355  0.1327
  642ERGO   ROH 8835   5.589  15.403  10.199  0.1878  0.3807  0.1922
  642ERGO    R1 8836   5.490  15.427   9.935  0.0908  0.0364  0.1911
  642ERGO    R2 8837   5.560  15.636   9.768 -0.3097  0.0677  0.0417
  642ERGO    R3 8838   5.630  15.434   9.599  0.0220  0.0744  0.1643
  642ERGO    R4 8839   5.572  15.662   9.423 -0.2839 -0.1117  0.0287
  642ERGO    R5 8840   5.485  15.462   9.410  0.0160 -0.2483  0.1201
  642ERGO    C1 8841   5.643  15.488   9.064  0.0425 -0.2099  0.1362
  642ERGO    C2 8842   5.558  15.648   8.761  0.0312 -0.1650 -0.0719
  643ERGO   ROH 8843  17.190   6.622   9.800 -0.3382  0.0160 -0.0368
  643ERGO    R1 8844  17.294   6.612   9.537 -0.1522 -0.0624  0.0379
  643ERGO    R2 8845  17.184   6.454   9.339 -0.1273  0.0196 -0.0402
  643ERGO    R3 8846  17.173   6.689   9.202  0.1491  0.0276 -0.0538
  643ERGO    R4 8847  17.263   6.490   9.005 -0.3011 -0.1453 -0.1012
  643ERGO    R5 8848  17.361   6.679   9.054  0.0371 -0.2900 -0.1863
  643ERGO    C1 8849  17.299   6.732   8.681 -0.1430 -0.2339 -0.1496
  643ERGO    C2 8850  17.311   6.591   8.188  0.0335  0.3863  0.0048
  644ERGO   ROH 8851  16.029   6.240  10.052  0.1852 -0.1269 -0.0990
  644ERGO    R1 8852  16.054   6.413   9.830  0.1188 -0.0618 -0.0569
  644ERGO    R2 8853  16.206   6.349   9.608  0.1986  0.0788 -0.0467
  644ERGO    R3 8854  15.975   6.401   9.475  0.1882 -0.0342 -0.0730
  644ERGO    R4 8855  16.181   6.400   9.267  0.2261  0.1770 -0.0340
  644ERGO    R5 8856  16.037   6.559   9.306  0.1110  0.0648 -0.0078
  644ERGO    C1 8857  15.949   6.479   8.944  0.2324  0.1281 -0.0512
  644ERGO    C2 8858  15.810   6.613   8.540  0.1954  0.0921 -0.1260
  645ERGO   ROH 8859   0.031   3.904   9.807 -0.1291 -0.0719  0.0667
  645ERGO    R1 8860  -0.145   3.812   9.606 -0.1295  0.0623  0.0049
  645ERGO    R2 8861  -0.278   3.983   9.434  0.1210  0.1607 -0.0934
  645ERGO    R3 8862  -0.164   3.828   9.242  0.0549  0.0046 -0.0084
  645ERGO    R4 8863  -0.385   3.964   9.106  0.2914  0.2545 -0.1559
  645ERGO    R5 8864  -0.349   3.749   9.112  0.0358  0.2084 -0.1097
  645ERGO    C1 8865  -0.340   3.807   8.735  0.3289  0.1627 -0.1125
  645ERGO    C2 8866  -0.376   3.613   8.380  0.0010  0.1499  0.2687
  646ERGO   ROH 8867  12.315  11.161   9.827 -0.2000  0.0824  0.0141
  646ERGO    R1 8868  12.200  11.200   9.572 -0.1325  0.0222 -0.0267
  646ERGO    R2 8869  12.259  11.419   9.415 -0.2005  0.0606 -0.0020
  646ERGO    R3 8870  12.319  11.230   9.229 -0.0262  0.0969  0.0168
  646ERGO    R4 8871  12.174  11.437   9.080 -0.2165 -0.0513 -0.0036
  646ERGO    R5 8872  12.127  11.223   9.086 -0.0208 -0.0941  0.0171
  646ERGO    C1 8873  12.181  11.268   8.711 -0.0623 -0.0824  0.0131
  646ERGO    C2 8874  12.204  11.623   8.473 -0.2141 -0.0941  0.0232
  647ERGO   ROH 8875   9.397   0.624   9.462  0.0048 -0.0604  0.0532
  647ERGO    R1 8876   9.421   0.768   9.219 -0.1503 -0.0816  0.0252
  647ERGO    R2 8877   9.573   0.678   9.006 -0.0549  0.0373  0.0465
  647ERGO    R3 8878   9.341   0.712   8.869 -0.0925 -0.2354  0.0348
  647ERGO    R4 8879   9.548   0.693   8.662 -0.0206  0.2018  0.0497
  647ERGO    R5 8880   9.401   0.853   8.685 -0.2738 -0.0289  0.1253
  647ERGO    C1 8881   9.315   0.734   8.332 -0.0360  0.0414  0.0406
  647ERGO    C2 8882   9.374   0.591   7.976 -0.0252  0.0625 -0.0138
  648ERGO   ROH 8883   6.649  17.542  10.056 -0.1329  0.0192  0.0600
  648ERGO    R1 8884   6.626  17.448   9.790 -0.0364  0.0289  0.0484
  648ERGO    R2 8885   6.424  17.530   9.620 -0.0155 -0.0215  0.0037
  648ERGO    R3 8886   6.631  17.594   9.457  0.0060  0.0496  0.0571
  648ERGO    R4 8887   6.415  17.513   9.275 -0.0033  0.2035 -0.0099
  648ERGO    R5 8888   6.618  17.434   9.279 -0.0145  0.1638 -0.0493
  648ERGO    C1 8889   6.605  17.563   8.921  0.0241  0.4012  0.0324
  648ERGO    C2 8890   6.541  17.623   8.579  0.3242  0.0446  0.0908
  649ERGO   ROH 8891   9.490  12.852  10.090 -0.2346  0.0973  0.1072
  649ERGO    R1 8892   9.554  12.706   9.856 -0.0883  0.0282  0.1891
  649ERGO    R2 8893   9.364  12.571   9.708  0.0011  0.0027  0.0983
  649ERGO    R3 8894   9.465  12.719   9.504  0.1490 -0.0621  0.1235
  649ERGO    R4 8895   9.255  12.556   9.380 -0.1402  0.2890  0.1285
  649ERGO    R5 8896   9.463  12.571   9.316 -0.1351  0.0097  0.0639
  649ERGO    C1 8897   9.287  12.686   8.998 -0.0835  0.3950  0.1698
  649ERGO    C2 8898   9.251  12.685   8.605 -0.0893 -0.1508 -0.0190
  650ERGO   ROH 8899   7.956  13.243   6.837 -0.1004  0.0615 -0.0049
  650ERGO    R1 8900   7.776  13.212   7.054 -0.0242 -0.0364  0.0471
  650ERGO    R2 8901   7.805  13.014   7.244  0.0582 -0.1120 -0.0327
  650ERGO    R3 8902   7.796  13.224   7.417  0.1057 -0.1740  0.0431
  650ERGO    R4 8903   7.748  12.987   7.584  0.0796 -0.2109 -0.0377
  650ERGO    R5 8904   7.623  13.165   7.572  0.1132 -0.1918  0.0358
  650ERGO    C1 8905   7.707  13.168   7.944  0.1366 -0.3265  0.0305
  650ERGO    C2 8906   7.687  13.328   8.206 -0.1105  0.4191  0.0674
  651ERGO   ROH 8907  15.141   4.351   9.722  0.0672  0.1568 -0.1610
  651ERGO    R1 8908  15.016   4.414   9.476  0.0153  0.0764 -0.1550
  651ERGO    R2 8909  15.150   4.535   9.267 -0.0482  0.0722 -0.1943
  651ERGO    R3 8910  15.058   4.322   9.126 -0.0112  0.0225 -0.1450
  651ERGO    R4 8911  15.145   4.513   8.922  0.0381 -0.0386 -0.1895
  651ERGO    R5 8912  14.949   4.418   8.936  0.0327 -0.0383 -0.2047
  651ERGO    C1 8913  15.055   4.299   8.589  0.1231 -0.1497 -0.1405
  651ERGO    C2 8914  15.100   4.129   8.350  0.0869  0.2527  0.1110
  652ERGO   ROH 8915   3.311   7.750   7.598 -0.1952 -0.0748 -0.2072
  652ERGO    R1 8916   3.376   7.864   7.849 -0.0557 -0.2212 -0.1757
  652ERGO    R2 8917   3.308   8.123   7.917  0.1761 -0.1888 -0.0678
  652ERGO    R3 8918   3.194   8.002   8.132  0.1110 -0.1680 -0.0926
  652ERGO    R4 8919   3.211   8.285   8.206  0.3759 -0.2059  0.0112
  652ERGO    R5 8920   3.287   8.116   8.320  0.2499 -0.3180 -0.0669
  652ERGO    C1 8921   3.047   8.267   8.576  0.4311 -0.1964  0.0339
  652ERGO    C2 8922   3.007   8.494   8.882 -0.0707  0.0142 -0.0122
  653ERGO   ROH 8923  12.979   2.294   7.954 -0.3002 -0.0566  0.0065
  653ERGO    R1 8924  13.055   2.379   8.213 -0.0761 -0.0935 -0.0449
  653ERGO    R2 8925  12.874   2.480   8.396  0.1240  0.1405  0.0307
  653ERGO    R3 8926  12.976   2.285   8.556 -0.0105  0.0536  0.0112
  653ERGO    R4 8927  12.869   2.485   8.742 -0.0579  0.0103  0.0310
  653ERGO    R5 8928  13.071   2.403   8.741 -0.0781 -0.0409  0.1074
  653ERGO    C1 8929  12.962   2.305   9.093 -0.2902 -0.1471  0.0129
  653ERGO    C2 8930  12.842   2.257   9.390  0.1973 -0.0950  0.0895
  654ERGO   ROH 8931  14.276   3.357   6.314 -0.2133 -0.1586 -0.1143
  654ERGO    R1 8932  14.272   3.445   6.583  0.0219  0.0047 -0.1632
  654ERGO    R2 8933  14.104   3.335   6.773  0.1145  0.1974  0.0176
  654ERGO    R3 8934  14.336   3.300   6.910  0.1930  0.1777 -0.1139
  654ERGO    R4 8935  14.125   3.259   7.110  0.2791  0.1795  0.0058
  654ERGO    R5 8936  14.294   3.396   7.125  0.3052  0.1776 -0.0812
  654ERGO    C1 8937  14.356   3.182   7.434  0.4488  0.1506 -0.1246
  654ERGO    C2 8938  14.454   3.145   7.758 -0.1585 -0.0128  0.1762
  655ERGO   ROH 8939   6.443  11.643  10.205 -0.2813 -0.1528 -0.0189
  655ERGO    R1 8940   6.585  11.669   9.962 -0.1383  0.0486  0.0826
  655ERGO    R2 8941   6.571  11.480   9.761  0.1563  0.1009  0.0066
  655ERGO    R3 8942   6.501  11.695   9.609  0.0752  0.0938  0.0340
  655ERGO    R4 8943   6.590  11.492   9.416 -0.0258  0.0893 -0.0046
  655ERGO    R5 8944   6.663  11.697   9.432 -0.0190  0.0889 -0.0513
  655ERGO    C1 8945   6.535  11.700   9.072 -0.2080  0.0758  0.0147
  655ERGO    C2 8946   6.478  11.779   8.737  0.3927 -0.2308 -0.1773
  656ERGO   ROH 8947   0.255   6.263   9.726  0.2205 -0.2066  0.0781
  656ERGO    R1 8948   0.279   6.382   9.470 -0.1279 -0.1756  0.0554
  656ERGO    R2 8949   0.499   6.344   9.308 -0.0727  0.3158 -0.0009
  656ERGO    R3 8950   0.312   6.266   9.127  0.0457 -0.1456  0.0609
  656ERGO    R4 8951   0.526   6.386   8.966 -0.1779  0.1466 -0.0314
  656ERGO    R5 8952   0.315   6.439   8.961 -0.2834 -0.2400 -0.0518
  656ERGO    C1 8953   0.366   6.338   8.597 -0.1281 -0.3851  0.0091
  656ERGO    C2 8954   0.472   6.147   8.311  0.0343 -0.0564  0.1454
  657ERGO   ROH 8955  16.564   5.352   6.317  0.1433 -0.1659  0.1697
  657ERGO    R1 8956  16.469   5.382   6.581  0.2578  0.0836  0.1849
  657ERGO    R2 8957  16.379   5.169   6.733 -0.1727  0.2904  0.2375
  657ERGO    R3 8958  16.563   5.262   6.912  0.0696 -0.0679  0.1850
  657ERGO    R4 8959  16.392   5.082   7.067 -0.1680  0.1666  0.2054
  657ERGO    R5 8960  16.439   5.289   7.115  0.2031  0.0794  0.2489
  657ERGO    C1 8961  16.571   5.118   7.429  0.0619 -0.2418  0.1375
  657ERGO    C2 8962  16.588   5.083   7.789 -0.0960  0.1267  0.1167
  658ERGO   ROH 8963   4.910  17.282  10.439  0.1602 -0.0713 -0.0856
  658ERGO    R1 8964   4.776  17.309  10.191  0.0305  0.0359 -0.0051
  658ERGO    R2 8965   4.713  17.555  10.082  0.2502  0.0912 -0.0112
  658ERGO    R3 8966   4.847  17.459   9.867 -0.0003 -0.1131 -0.0818
  658ERGO    R4 8967   4.628  17.617   9.753  0.2012  0.2625  0.0328
  658ERGO    R5 8968   4.676  17.410   9.707 -0.1588  0.1821 -0.0107
  658ERGO    C1 8969   4.705  17.563   9.359 -0.0625  0.1706 -0.0080
  658ERGO    C2 8970   4.627  17.509   8.996  0.0634  0.1514  0.1630
  659ERGO   ROH 8971  17.314   9.851  10.095 -0.1187  0.0202  0.0844
  659ERGO    R1 8972  17.393   9.956   9.844  0.0048  0.0355  0.1276
  659ERGO    R2 8973  17.519   9.802   9.651 -0.0201  0.0102  0.1249
  659ERGO    R3 8974  17.315   9.890   9.495  0.0646  0.1500  0.0935
  659ERGO    R4 8975  17.534   9.841   9.308  0.0299 -0.0731  0.1183
  659ERGO    R5 8976  17.421  10.025   9.328  0.1857  0.0249  0.0716
  659ERGO    C1 8977  17.352   9.947   8.962  0.1386  0.0095  0.0850
  659ERGO    C2 8978  17.331  10.054   8.717  0.0207  0.2464  0.4147
  660ERGO   ROH 8979   0.809   9.782  10.110 -0.2125 -0.0936  0.0282
  660ERGO    R1 8980   0.673   9.826   9.866  0.0283  0.1639 -0.0647
  660ERGO    R2 8981   0.791   9.955   9.652  0.4178 -0.0481  0.0109
  660ERGO    R3 8982   0.718   9.730   9.518  0.0851  0.0809 -0.0345
  660ERGO    R4 8983   0.835   9.905   9.313  0.3034 -0.0299 -0.0069
  660ERGO    R5 8984   0.638   9.810   9.306  0.1673  0.2438 -0.0052
  660ERGO    C1 8985   0.792   9.664   8.989 -0.0756  0.1017 -0.0599
  660ERGO    C2 8986   0.980   9.587   8.761 -0.1013  0.2491 -0.0158
  661ERGO   ROH 8987  13.122   7.508   9.948 -0.1198  0.0321 -0.2371
  661ERGO    R1 8988  13.240   7.343   9.751 -0.0661  0.0653 -0.2311
  661ERGO    R2 8989  13.292   7.076   9.793  0.0229  0.0909 -0.2217
  661ERGO    R3 8990  13.146   7.044   9.566  0.0365  0.0260 -0.2235
  661ERGO    R4 8991  13.272   6.782   9.612  0.1010  0.0549 -0.1752
  661ERGO    R5 8992  13.281   6.901   9.429  0.0807  0.0345 -0.1971
  661ERGO    C1 8993  13.122   6.581   9.293  0.1593 -0.0269 -0.1497
  661ERGO    C2 8994  13.146   6.328   9.076 -0.1176 -0.3348 -0.0068
  662ERGO   ROH 8995   0.876   1.773  10.575 -0.0250  0.1956  0.0321
  662ERGO    R1 8996   0.988   1.656  10.343  0.2299  0.2162  0.1419
  662ERGO    R2 8997   0.834   1.560  10.135  0.4328 -0.2301  0.1852
  662ERGO    R3 8998   0.990   1.725   9.986  0.1605 -0.0551  0.0865
  662ERGO    R4 8999   0.853   1.555   9.790  0.4344 -0.4061  0.1870
  662ERGO    R5 9000   1.068   1.587   9.806  0.3884 -0.0382  0.1688
  662ERGO    C1 9001   1.010   1.708   9.449  0.1796 -0.3444  0.0952
  662ERGO    C2 9002   0.955   1.781   9.164  0.3051 -0.1354 -0.0968
  663ERGO   ROH 9003  11.839   9.824  10.271 -0.0651  0.0604 -0.0102
  663ERGO    R1 9004  11.744   9.755  10.013  0.1625 -0.0691 -0.0615
  663ERGO    R2 9005  11.607   9.934   9.852 -0.1999 -0.3155 -0.0337
  663ERGO    R3 9006  11.800   9.868   9.672  0.0090  0.1806 -0.0070
  663ERGO    R4 9007  11.570   9.949   9.509 -0.1798 -0.3680 -0.0391
  663ERGO    R5 9008  11.681   9.763   9.493  0.2971 -0.1038 -0.0413
  663ERGO    C1 9009  11.730   9.897   9.140  0.0281  0.0672 -0.0171
  663ERGO    C2 9010  11.599   9.903   8.785  0.0301  0.2308  0.0723
  664ERGO   ROH 9011  16.998   2.007  10.155 -0.0275  0.1741 -0.0516
  664ERGO    R1 9012  16.895   2.048   9.895 -0.0620  0.0496 -0.0587
  664ERGO    R2 9013  16.970   2.262   9.737 -0.1510  0.0265 -0.1383
  664ERGO    R3 9014  17.029   2.066   9.557 -0.0922 -0.0140 -0.0737
  664ERGO    R4 9015  16.981   2.304   9.394 -0.0275 -0.0518 -0.1439
  664ERGO    R5 9016  16.885   2.110   9.371 -0.0233 -0.0527 -0.1347
  664ERGO    C1 9017  17.043   2.146   9.026  0.0999 -0.1354 -0.0864
  664ERGO    C2 9018  16.982   2.250   8.718 -0.0862 -0.1572 -0.0934
  665ERGO   ROH 9019  17.580   8.743  10.328  0.1703 -0.0831 -0.0551
  665ERGO    R1 9020  17.509   8.736  10.054  0.1029 -0.0013 -0.0400
  665ERGO    R2 9021  17.320   8.905   9.945  0.1889  0.1355  0.0260
  665ERGO    R3 9022  17.521   8.966   9.772  0.1871  0.0278 -0.0142
  665ERGO    R4 9023  17.285   8.932   9.602  0.1714 -0.0549  0.0120
  665ERGO    R5 9024  17.476   8.831   9.579  0.1685 -0.0810  0.0619
  665ERGO    C1 9025  17.452   9.004   9.240  0.1598 -0.2670 -0.0338
  665ERGO    C2 9026  17.447   9.064   8.803  0.3910 -0.0774  0.2135
  666ERGO   ROH 9027  13.224   5.234   9.924 -0.0668 -0.0305  0.0716
  666ERGO    R1 9028  13.190   5.192   9.646  0.0378 -0.1118  0.0712
  666ERGO    R2 9029  13.202   5.398   9.462 -0.0216 -0.1484  0.0309
  666ERGO    R3 9030  13.390   5.239   9.345  0.0994 -0.0710  0.1172
  666ERGO    R4 9031  13.304   5.424   9.133 -0.1164 -0.3045 -0.0122
  666ERGO    R5 9032  13.308   5.206   9.122  0.0789 -0.3160  0.1562
  666ERGO    C1 9033  13.539   5.291   8.831 -0.0579 -0.3227  0.0436
  666ERGO    C2 9034  13.575   5.336   8.524  0.2303 -0.1333 -0.0895
  667ERGO   ROH 9035  10.257   6.846  10.089  0.1434  0.2289  0.0125
  667ERGO    R1 9036  10.280   6.771   9.817  0.1281  0.2022  0.0194
  667ERGO    R2 9037  10.123   6.882   9.618  0.0992  0.1579  0.0262
  667ERGO    R3 9038  10.364   6.937   9.504  0.0788  0.1749 -0.0109
  667ERGO    R4 9039  10.167   6.993   9.294  0.0397 -0.0655 -0.0603
  667ERGO    R5 9040  10.340   6.862   9.278  0.1029 -0.0101  0.0400
  667ERGO    C1 9041  10.418   7.109   8.997 -0.0141 -0.1796 -0.1455
  667ERGO    C2 9042  10.559   7.232   8.682 -0.0597  0.0322 -0.2849
  668ERGO   ROH 9043  16.151   4.891   9.537  0.2188 -0.2408 -0.0506
  668ERGO    R1 9044  16.284   4.933   9.291  0.0598  0.0026 -0.0974
  668ERGO    R2 9045  16.382   4.726   9.137  0.4270  0.1777 -0.1048
  668ERGO    R3 9046  16.230   4.841   8.943  0.1302 -0.1383 -0.0726
  668ERGO    R4 9047  16.431   4.684   8.798  0.4882  0.3276 -0.1156
  668ERGO    R5 9048  16.387   4.896   8.770 -0.0036  0.2450 -0.0855
  668ERGO    C1 9049  16.318   4.768   8.417  0.2455  0.1183 -0.0916
  668ERGO    C2 9050  16.294   4.672   8.051 -0.0785  0.1909 -0.0923
  669ERGO   ROH 9051  10.361   2.882   6.081  0.0833 -0.1915  0.0173
  669ERGO    R1 9052  10.398   2.929   6.358 -0.0422 -0.3186  0.0586
  669ERGO    R2 9053  10.479   2.732   6.533  0.3040 -0.3064 -0.0708
  669ERGO    R3 9054  10.674   2.910   6.594 -0.0297  0.0211  0.0737
  669ERGO    R4 9055  10.619   2.772   6.847  0.1023 -0.1519  0.0005
  669ERGO    R5 9056  10.618   2.988   6.814 -0.2588 -0.1416  0.0712
  669ERGO    C1 9057  10.884   2.964   7.087 -0.3285  0.2454  0.1777
  669ERGO    C2 9058  11.031   3.012   7.412 -0.3877 -0.0014 -0.0415
  670ERGO   ROH 9059   7.910   1.079   9.590 -0.0904 -0.0130 -0.0493
  670ERGO    R1 9060   7.976   1.093   9.315  0.0055 -0.0654 -0.0301
  670ERGO    R2 9061   8.053   0.872   9.169 -0.0340 -0.1112  0.0159
  670ERGO    R3 9062   7.850   0.949   9.006  0.0490 -0.0457 -0.0569
  670ERGO    R4 9063   8.066   0.872   8.824  0.0925 -0.1043  0.0208
  670ERGO    R5 9064   7.959   1.061   8.825  0.1487 -0.0729 -0.0136
  670ERGO    C1 9065   7.883   0.944   8.469  0.2440 -0.0388 -0.0448
  670ERGO    C2 9066   7.706   0.884   8.212  0.3519  0.2930  0.2858
  671ERGO   ROH 9067  10.693  16.092   9.925  0.3265 -0.1339 -0.0139
  671ERGO    R1 9068  10.547  16.206   9.711  0.0913 -0.2374  0.0854
  671ERGO    R2 9069  10.657  16.389   9.535 -0.2116 -0.0114  0.1046
  671ERGO    R3 9070  10.570  16.211   9.348 -0.0475 -0.0627  0.0804
  671ERGO    R4 9071  10.693  16.428   9.193 -0.1151 -0.0178  0.1162
  671ERGO    R5 9072  10.492  16.348   9.168 -0.0542 -0.1236  0.0469
  671ERGO    C1 9073  10.633  16.284   8.819  0.0953 -0.0701  0.1003
  671ERGO    C2 9074  10.615  16.228   8.527  0.0191 -0.1017 -0.2062
  672ERGO   ROH 9075   8.849  17.327   9.645 -0.0519 -0.0881 -0.0845
  672ERGO    R1 9076   8.900  17.422   9.383  0.1581 -0.1399 -0.0653
  672ERGO    R2 9077   9.045  17.277   9.198  0.0658 -0.3091 -0.0186
  672ERGO    R3 9078   8.825  17.316   9.044  0.1599 -0.0501 -0.0915
  672ERGO    R4 9079   9.025  17.207   8.860  0.0415 -0.3989  0.0022
  672ERGO    R5 9080   8.911  17.390   8.833  0.3129 -0.2501 -0.0947
  672ERGO    C1 9081   8.806  17.202   8.519  0.1156 -0.2080 -0.0541
  672ERGO    C2 9082   8.761  17.201   8.220 -0.0093  0.3211  0.0670
  673ERGO   ROH 9083  12.862  15.428   6.424  0.0547  0.1184  0.0581
  673ERGO    R1 9084  12.958  15.499   6.681  0.1342 -0.1043  0.0921
  673ERGO    R2 9085  12.796  15.615   6.873  0.3082  0.1909  0.0647
  673ERGO    R3 9086  12.884  15.408   7.025 -0.1361 -0.0114  0.0617
  673ERGO    R4 9087  12.791  15.608   7.218  0.4305  0.2670  0.0692
  673ERGO    R5 9088  12.987  15.512   7.215  0.2067 -0.2240  0.0029
  673ERGO    C1 9089  12.870  15.409   7.563  0.0846  0.1213  0.0690
  673ERGO    C2 9090  12.608  15.411   7.808 -0.2836  0.2308 -0.0205
  674ERGO   ROH 9091   5.633   2.510   6.529  0.0174  0.0926  0.0942
  674ERGO    R1 9092   5.622   2.357   6.766  0.0034  0.0626  0.0753
  674ERGO    R2 9093   5.502   2.108   6.777 -0.1276  0.1206  0.0727
  674ERGO    R3 9094   5.743   2.032   6.877 -0.1372 -0.0193 -0.0106
  674ERGO    R4 9095   5.569   1.799   6.917 -0.2255  0.0440 -0.0500
  674ERGO    R5 9096   5.688   1.900   7.069 -0.1465 -0.0617 -0.0449
  674ERGO    C1 9097   5.834   1.548   7.093 -0.2915 -0.1320 -0.1997
  674ERGO    C2 9098   5.835   1.236   7.073 -0.0712  0.2125 -0.0756
  675PSPI    C1 9099   9.898  10.882   6.142 -0.0509 -0.1229  0.0538
  675PSPI    C2 9100   9.774  11.150   5.872 -0.1807 -0.2293  0.0069
  675PSPI    C3 9101   9.804  10.764   5.772 -0.3584 -0.2899  0.1820
  675PSPI   PO4 9102   9.981  11.026   6.286  0.3082  0.0539 -0.0442
  675PSPI   GL1 9103   9.911  11.391   6.595 -0.1714 -0.0975  0.0601
  675PSPI   GL2 9104   9.649  11.234   6.665 -0.4992  0.1669  0.0440
  675PSPI   C1A 9105  10.197  11.227   6.797  0.3838  0.0491 -0.0394
  675PSPI   C2A 9106  10.289  11.117   7.164  0.0329 -0.0099 -0.1257
  675PSPI   C3A 9107  10.240  11.238   7.511  0.0920 -0.2350 -0.0466
  675PSPI   C4A 9108  10.433  11.258   7.938 -0.1883 -0.0445 -0.1897
  675PSPI   C1B 9109   9.748  10.985   7.096 -0.2930 -0.0704 -0.0435
  675PSPI   C2B 9110   9.746  11.156   7.483 -0.3536 -0.0542  0.0910
  675PSPI   C3B 9111   9.930  11.310   7.870  0.1305 -0.0340  0.2764
  675PSPI   C4B 9112   9.970  11.327   8.252 -0.3017 -0.0121 -0.0732
  676PSPI    C1 9113  11.591  11.154   5.895 -0.0242 -0.0949 -0.0005
  676PSPI    C2 9114  11.198  11.125   5.964 -0.0197 -0.0498  0.0448
  676PSPI    C3 9115  11.330  11.236   5.603 -0.0554  0.1931  0.1047
  676PSPI   PO4 9116  11.732  10.941   6.044  0.0172  0.2207  0.1949
  676PSPI   GL1 9117  11.737  10.625   6.526  0.5102  0.2146  0.0291
  676PSPI   GL2 9118  11.985  10.833   6.492 -0.0888 -0.2048 -0.0394
  676PSPI   C1A 9119  11.687  10.697   6.923 -0.0545 -0.1852 -0.0252
  676PSPI   C2A 9120  11.504  10.754   7.229  0.2414  0.0229  0.0449
  676PSPI   C3A 9121  11.270  10.878   7.693 -0.0745  0.0117  0.0472
  676PSPI   C4A 9122  11.380  11.072   8.162 -0.0328  0.0724  0.0819
  676PSPI   C1B 9123  12.108  11.034   6.819  0.1302  0.0907  0.1111
  676PSPI   C2B 9124  11.881  11.110   7.226  0.0590 -0.0635  0.0349
  676PSPI   C3B 9125  11.816  10.935   7.726  0.2688  0.0488 -0.0309
  676PSPI   C4B 9126  11.569  10.631   8.030 -0.0003  0.0845  0.0920
  677PSPI    C1 9127   5.355   6.926   5.942  0.0709 -0.2044 -0.2867
  677PSPI    C2 9128   5.650   7.190   5.886  0.0582 -0.1480 -0.0934
  677PSPI    C3 9129   5.290   7.256   5.724  0.0845 -0.0985 -0.1318
  677PSPI   PO4 9130   5.342   6.952   6.315  0.1144  0.0799 -0.0455
  677PSPI   GL1 9131   5.243   6.900   6.750 -0.0774  0.3560 -0.4348
  677PSPI   GL2 9132   4.977   6.616   6.647 -0.0439  0.1966 -0.1208
  677PSPI   C1A 9133   5.448   7.028   7.007 -0.0963  0.0965  0.0018
  677PSPI   C2A 9134   5.493   7.241   7.414 -0.1413  0.2038 -0.1477
  677PSPI   C3A 9135   5.688   7.461   7.562 -0.1169 -0.0273 -0.1614
  677PSPI   C4A 9136   5.739   7.637   8.029  0.1482 -0.0439 -0.2128
  677PSPI   C1B 9137   5.086   6.524   7.035  0.3458  0.2345 -0.0636
  677PSPI   C2B 9138   5.334   6.699   7.421 -0.0706  0.1527  0.3160
  677PSPI   C3B 9139   5.173   6.831   7.705  0.0458 -0.1192 -0.0018
  677PSPI   C4B 9140   5.305   6.765   8.182  0.0185  0.2271 -0.0126
  678PSPI    C1 9141   8.710   0.109   5.299  0.0608 -0.0951 -0.0747
  678PSPI    C2 9142   8.918   0.450   5.320 -0.2123  0.0928 -0.3273
  678PSPI    C3 9143   9.012   0.175   5.045  0.1127 -0.1146 -0.0183
  678PSPI   PO4 9144   8.709   0.004   5.556  0.0275 -0.2087  0.2308
  678PSPI   GL1 9145   8.768  -0.033   5.965  0.0521  0.0834 -0.1353
  678PSPI   GL2 9146   8.378   0.026   5.920 -0.0597 -0.2874 -0.1665
  678PSPI   C1A 9147   9.069   0.181   6.131 -0.2802  0.0255 -0.0428
  678PSPI   C2A 9148   9.316   0.493   6.046 -0.4489  0.1617  0.1138
  678PSPI   C3A 9149   9.821   0.631   6.074 -0.0891  0.0133  0.0260
  678PSPI   C4A 9150  10.189   0.580   6.402  0.1470 -0.0633 -0.0598
  678PSPI   C1B 9151   8.416  -0.118   6.310 -0.1981 -0.2510  0.1014
  678PSPI   C2B 9152   8.222  -0.289   6.675 -0.1068  0.2150  0.0106
  678PSPI   C3B 9153   8.016  -0.241   6.994 -0.0645  0.4040  0.1914
  678PSPI   C4B 9154   7.853  -0.414   7.384  0.2711 -0.2124  0.1468
  679PSPI    C1 9155   4.114   6.316   5.836 -0.0995 -0.0345  0.2310
  679PSPI    C2 9156   4.231   5.983   5.648  0.1039  0.1151  0.0875
  679PSPI    C3 9157   3.855   6.017   5.780  0.0493 -0.1226 -0.0021
  679PSPI   PO4 9158   4.069   6.442   6.101 -0.1713 -0.2462 -0.2016
  679PSPI   GL1 9159   4.087   6.593   6.445  0.0261  0.0232  0.1101
  679PSPI   GL2 9160   4.025   6.906   6.608 -0.0131  0.0120  0.1941
  679PSPI   C1A 9161   4.122   6.486   6.868 -0.1905  0.1341 -0.2545
  679PSPI   C2A 9162   3.982   6.515   7.354 -0.1182 -0.0989  0.0502
  679PSPI   C3A 9163   3.779   6.351   7.681 -0.0759  0.2756 -0.0373
  679PSPI   C4A 9164   3.502   6.134   7.874  0.2293 -0.0569 -0.1194
  679PSPI   C1B 9165   3.613   6.682   6.730  0.1123  0.1870 -0.2824
  679PSPI   C2B 9166   3.669   6.285   6.980 -0.0620  0.2860  0.1348
  679PSPI   C3B 9167   3.809   6.006   7.272 -0.2288 -0.0004  0.2058
  679PSPI   C4B 9168   3.836   5.874   7.620 -0.4189 -0.0671 -0.0483
  680PSPI    C1 9169  15.704  13.179   6.559 -0.0780  0.2681 -0.1859
  680PSPI    C2 9170  15.790  12.818   6.411 -0.0997  0.1918 -0.0144
  680PSPI    C3 9171  15.562  13.071   6.201 -0.0635  0.1163 -0.1463
  680PSPI   PO4 9172  15.944  13.256   6.624 -0.0187  0.1397  0.1988
  680PSPI   GL1 9173  16.083  13.613   6.878  0.1469 -0.3718 -0.1836
  680PSPI   GL2 9174  16.147  13.257   7.051  0.3222 -0.1009 -0.2503
  680PSPI   C1A 9175  15.958  13.743   7.304  0.1325  0.0307  0.0081
  680PSPI   C2A 9176  15.951  13.746   7.682 -0.1461  0.0022 -0.2392
  680PSPI   C3A 9177  15.787  13.807   7.991 -0.3924  0.4549 -0.0377
  680PSPI   C4A 9178  15.594  13.596   8.293 -0.0098  0.1684  0.0151
  680PSPI   C1B 9179  16.256  13.405   7.490 -0.1301 -0.0178  0.1673
  680PSPI   C2B 9180  16.279  13.319   7.947  0.0670  0.0271 -0.4171
  680PSPI   C3B 9181  16.152  13.270   8.434 -0.0171  0.1217 -0.1255
  680PSPI   C4B 9182  16.260  13.412   8.850  0.0904 -0.0948  0.3221
  681PSPI    C1 9183  15.631   1.067   5.921  0.3091 -0.0454  0.1117
  681PSPI    C2 9184  15.739   1.364   5.676 -0.0376  0.1469  0.1850
  681PSPI    C3 9185  15.925   1.011   5.656  0.0942  0.2329 -0.1947
  681PSPI   PO4 9186  15.580   1.201   6.122  0.1166  0.3225 -0.1067
  681PSPI   GL1 9187  15.732   1.024   6.481  0.1073 -0.2923  0.0594
  681PSPI   GL2 9188  15.808   0.727   6.596  0.2132  0.3590 -0.0319
  681PSPI   C1A 9189  15.759   1.316   6.779  0.0381  0.0745  0.0088
  681PSPI   C2A 9190  15.827   1.291   7.197  0.0898 -0.1057  0.0702
  681PSPI   C3A 9191  15.702   1.312   7.626 -0.1911 -0.2099  0.1200
  681PSPI   C4A 9192  15.711   1.237   8.090  0.0287 -0.2320  0.2491
  681PSPI   C1B 9193  15.773   0.728   6.962 -0.1075  0.1609 -0.1390
  681PSPI   C2B 9194  15.418   0.929   7.219 -0.0438 -0.0192 -0.0831
  681PSPI   C3B 9195  15.012   0.812   7.447 -0.0036 -0.0398  0.1691
  681PSPI   C4B 9196  14.813   0.473   7.675  0.1652 -0.1484 -0.0853
  682PSPI    C1 9197   1.159  15.065   6.690 -0.2589 -0.2095 -0.2588
  682PSPI    C2 9198   1.019  15.366   6.467 -0.1332  0.1734  0.1656
  682PSPI    C3 9199   1.411  15.284   6.470 -0.1592  0.0445  0.1001
  682PSPI   PO4 9200   0.928  14.975   6.762  0.0467 -0.1778 -0.0500
  682PSPI   GL1 9201   0.846  15.074   7.180 -0.0805  0.1071  0.2333
  682PSPI   GL2 9202   1.220  15.055   7.175 -0.1447  0.2398 -0.0223
  682PSPI   C1A 9203   0.729  14.925   7.608 -0.0114  0.0083 -0.1705
  682PSPI   C2A 9204   0.560  14.656   7.901 -0.1980  0.0206 -0.1091
  682PSPI   C3A 9205   0.295  14.303   8.129  0.1644  0.0970  0.2793
  682PSPI   C4A 9206  -0.189  14.365   7.972  0.1455 -0.0641  0.2153
  682PSPI   C1B 9207   1.213  15.072   7.598  0.0819 -0.0406 -0.1547
  682PSPI   C2B 9208   1.088  15.035   7.972 -0.4066  0.3923 -0.2145
  682PSPI   C3B 9209   0.812  14.878   8.287  0.1195 -0.1056 -0.4705
  682PSPI   C4B 9210   0.493  14.913   8.470  0.3006  0.0458  0.0196
  683PSPI    C1 9211   3.959  10.179   6.179 -0.2405  0.0827 -0.1079
  683PSPI    C2 9212   3.823  10.199   5.803 -0.0340  0.1216 -0.1818
  683PSPI    C3 9213   4.182  10.039   5.878 -0.1922 -0.1433  0.0306
  683PSPI   PO4 9214   3.921  10.415   6.263 -0.4518 -0.0167  0.2332
  683PSPI   GL1 9215   4.097  10.665   6.577  0.1072 -0.0310  0.0326
  683PSPI   GL2 9216   4.241  10.926   6.644  0.0426 -0.0745  0.0576
  683PSPI   C1A 9217   4.030  10.548   6.991 -0.2032  0.4555 -0.1996
  683PSPI   C2A 9218   4.093  10.627   7.387  0.0845 -0.0819 -0.0328
  683PSPI   C3A 9219   4.231  10.755   7.739  0.0684 -0.1080 -0.0972
  683PSPI   C4A 9220   4.582  10.863   7.811  0.0686 -0.2528 -0.0789
  683PSPI   C1B 9221   4.342  11.028   7.059 -0.3339 -0.0195  0.2442
  683PSPI   C2B 9222   4.358  11.213   7.509 -0.1914  0.1921 -0.0485
  683PSPI   C3B 9223   4.606  11.379   7.865 -0.2252  0.1457 -0.1430
  683PSPI   C4B 9224   4.428  11.434   8.224 -0.2067  0.0899 -0.2128
  684PSPI    C1 9225   5.286  10.497   5.814  0.1820 -0.1448  0.1893
  684PSPI    C2 9226   5.292  10.880   5.696 -0.2187 -0.1879  0.0133
  684PSPI    C3 9227   5.554  10.619   5.543 -0.1362 -0.0470 -0.0878
  684PSPI   PO4 9228   5.287  10.530   6.049 -0.1533  0.1351 -0.4801
  684PSPI   GL1 9229   5.524  10.230   6.305 -0.0773 -0.0022  0.2853
  684PSPI   GL2 9230   5.535  10.560   6.514 -0.0259  0.3100  0.1561
  684PSPI   C1A 9231   5.681  10.076   6.624 -0.1064 -0.2975  0.0285
  684PSPI   C2A 9232   5.782  10.008   7.026 -0.0128  0.2540 -0.0534
  684PSPI   C3A 9233   5.784  10.027   7.477  0.0674  0.3386 -0.1233
  684PSPI   C4A 9234   5.742  10.147   7.885  0.1375  0.1578 -0.1946
  684PSPI   C1B 9235   5.569  10.481   6.905  0.2752  0.1773  0.1616
  684PSPI   C2B 9236   5.682  10.512   7.265 -0.2218  0.0386  0.1518
  684PSPI   C3B 9237   5.888  10.682   7.599 -0.0162 -0.2571 -0.0901
  684PSPI   C4B 9238   5.868  11.152   7.628  0.0836 -0.1317  0.3089
  685PSPI    C1 9239  15.326   9.778   6.042  0.0126  0.1201 -0.3460
  685PSPI    C2 9240  14.976   9.671   5.879 -0.2091  0.2682  0.0211
  685PSPI    C3 9241  15.055  10.057   5.948 -0.0980  0.2125  0.2145
  685PSPI   PO4 9242  15.339   9.585   6.298  0.0243 -0.0083  0.1839
  685PSPI   GL1 9243  15.163   9.732   6.741  0.2623 -0.2738 -0.1029
  685PSPI   GL2 9244  15.452   9.892   6.772  0.1246 -0.1450 -0.0399
  685PSPI   C1A 9245  14.976   9.767   7.135  0.1894  0.1405 -0.2455
  685PSPI   C2A 9246  15.065  10.070   7.443 -0.4522 -0.2918  0.2303
  685PSPI   C3A 9247  15.090  10.228   7.778 -0.0090  0.0660 -0.0246
  685PSPI   C4A 9248  15.359  10.301   8.131  0.0481  0.1800 -0.0288
  685PSPI   C1B 9249  15.535   9.946   7.177  0.2022  0.1751 -0.2827
  685PSPI   C2B 9250  15.399   9.678   7.526 -0.0763  0.1123  0.2228
  685PSPI   C3B 9251  15.050   9.716   7.822 -0.0247 -0.0699  0.3674
  685PSPI   C4B 9252  14.739   9.440   7.905 -0.0293  0.2786  0.1154
  686PSPI    C1 9253  14.548   8.918   6.250 -0.0096  0.0874  0.0707
  686PSPI    C2 9254  14.152   8.913   6.193  0.0070  0.0492 -0.0454
  686PSPI    C3 9255  14.389   8.686   5.965  0.0687 -0.1773  0.2387
  686PSPI   PO4 9256  14.619   8.943   6.525  0.1481 -0.1854 -0.0323
  686PSPI   GL1 9257  14.727   9.313   6.840  0.1556 -0.2742 -0.0249
  686PSPI   GL2 9258  14.637   9.576   6.778 -0.1645  0.1194 -0.3203
  686PSPI   C1A 9259  14.406   9.167   7.188  0.1327 -0.0653 -0.1426
  686PSPI   C2A 9260  14.418   9.108   7.584  0.3321  0.0243  0.0867
  686PSPI   C3A 9261  14.213   9.262   7.891 -0.1125  0.0264  0.2785
  686PSPI   C4A 9262  14.229   9.686   8.007  0.1752  0.1488 -0.1276
  686PSPI   C1B 9263  14.455   9.698   7.098  0.1646  0.3452  0.0215
  686PSPI   C2B 9264  14.172  10.078   7.119  0.1529 -0.1307 -0.1552
  686PSPI   C3B 9265  14.223  10.503   7.388  0.1876  0.2049  0.1090
  686PSPI   C4B 9266  14.149  10.881   7.573  0.2937  0.1370  0.0398
  687PSPI    C1 9267  14.228   3.642   5.876  0.3205  0.0155 -0.0273
  687PSPI    C2 9268  14.177   3.768   5.499  0.0068 -0.0537 -0.0107
  687PSPI    C3 9269  13.859   3.709   5.735  0.2002 -0.0252  0.2617
  687PSPI   PO4 9270  14.401   3.759   5.965  0.0293 -0.1394 -0.3425
  687PSPI   GL1 9271  14.475   4.133   6.242  0.4752  0.0122 -0.1571
  687PSPI   GL2 9272  14.299   3.901   6.439 -0.0410  0.3923 -0.0966
  687PSPI   C1A 9273  14.718   4.079   6.721 -0.1647  0.2733 -0.0801
  687PSPI   C2A 9274  14.843   4.057   7.159 -0.1718 -0.0561 -0.3838
  687PSPI   C3A 9275  15.052   4.128   7.561 -0.0269  0.1244 -0.0953
  687PSPI   C4A 9276  14.963   4.342   7.920 -0.1643  0.1188  0.4087
  687PSPI   C1B 9277  14.315   3.857   6.935  0.0876  0.0461  0.1019
  687PSPI   C2B 9278  14.385   3.885   7.251  0.3027  0.0642  0.0790
  687PSPI   C3B 9279  14.304   3.696   7.637  0.0155  0.2617 -0.0875
  687PSPI   C4B 9280  14.309   3.562   7.996  0.0386  0.0305 -0.2364
  688PSPI    C1 9281   8.059   7.280   6.107  0.0600 -0.2358 -0.1269
  688PSPI    C2 9282   8.304   7.312   5.793  0.1538  0.0986 -0.0241
  688PSPI    C3 9283   7.931   7.452   5.769  0.1131 -0.0103 -0.0341
  688PSPI   PO4 9284   8.025   7.108   6.203 -0.0249 -0.0186  0.0136
  688PSPI   GL1 9285   8.218   6.997   6.509  0.1886  0.0659  0.0737
  688PSPI   GL2 9286   8.538   7.161   6.632 -0.1957 -0.1814 -0.2332
  688PSPI   C1A 9287   8.003   7.032   6.865 -0.0624 -0.0552 -0.0085
  688PSPI   C2A 9288   8.219   7.090   7.325 -0.0537 -0.0077  0.0677
  688PSPI   C3A 9289   8.075   7.165   7.722 -0.2467 -0.0607  0.0596
  688PSPI   C4A 9290   8.250   7.272   8.171 -0.2085  0.0323 -0.1109
  688PSPI   C1B 9291   8.635   7.119   7.038 -0.2747  0.0457 -0.1744
  688PSPI   C2B 9292   8.612   7.316   7.475  0.3132 -0.3707  0.0855
  688PSPI   C3B 9293   8.613   7.326   7.783  0.0515 -0.0606  0.0715
  688PSPI   C4B 9294   8.818   6.935   8.029  0.0852  0.2344 -0.2606
  689PSPI    C1 9295  17.798   2.183   5.634 -0.0926 -0.2181 -0.1534
  689PSPI    C2 9296  17.883   1.841   5.445  0.0464 -0.1358 -0.2412
  689PSPI    C3 9297  18.049   2.184   5.323 -0.0512 -0.0447 -0.1206
  689PSPI   PO4 9298  17.529   2.162   5.751 -0.1436 -0.3466  0.3206
  689PSPI   GL1 9299  17.245   2.184   6.143  0.1566 -0.1147  0.0736
  689PSPI   GL2 9300  17.413   2.369   6.244 -0.2933 -0.0884  0.3231
  689PSPI   C1A 9301  16.887   2.199   6.523  0.0740 -0.0946  0.1171
  689PSPI   C2A 9302  16.872   2.259   6.973 -0.0896  0.1596  0.2796
  689PSPI   C3A 9303  16.642   2.297   7.321  0.0994 -0.0242  0.1655
  689PSPI   C4A 9304  16.346   2.476   7.721  0.1216 -0.1353 -0.1207
  689PSPI   C1B 9305  17.285   2.421   6.689 -0.0542  0.2735 -0.1020
  689PSPI   C2B 9306  17.408   2.383   7.077  0.1869 -0.1791 -0.0586
  689PSPI   C3B 9307  17.336   2.607   7.538  0.0163 -0.3169  0.2861
  689PSPI   C4B 9308  17.320   2.744   7.996 -0.4248 -0.1665 -0.0970
  690PSPI    C1 9309   9.481  12.409   6.183  0.1566  0.2472 -0.0147
  690PSPI    C2 9310   9.323  12.461   5.819  0.1855  0.1078 -0.0478
  690PSPI    C3 9311   9.699  12.330   5.857  0.2002  0.1718  0.0324
  690PSPI   PO4 9312   9.451  12.687   6.336  0.0774 -0.0396 -0.2749
  690PSPI   GL1 9313   9.552  12.914   6.774  0.3282  0.1325  0.0547
  690PSPI   GL2 9314   9.642  13.249   6.921 -0.1954  0.0353  0.0647
  690PSPI   C1A 9315   9.604  12.550   7.081  0.0531  0.0653 -0.0290
  690PSPI   C2A 9316   9.642  12.383   7.417 -0.0159  0.0913 -0.3321
  690PSPI   C3A 9317   9.520  12.284   7.811  0.3234 -0.0586  0.0372
  690PSPI   C4A 9318   9.485  12.362   8.266  0.0134 -0.2788  0.1683
  690PSPI   C1B 9319   9.551  13.342   7.352 -0.2054  0.1360 -0.2169
  690PSPI   C2B 9320   9.625  13.383   7.789  0.0279  0.2680 -0.1252
  690PSPI   C3B 9321   9.742  13.557   8.188  0.2517  0.2147  0.0952
  690PSPI   C4B 9322  10.135  13.537   8.420  0.1026 -0.1516  0.1191
  691PSPI    C1 9323   3.152   0.116   6.134 -0.0481 -0.2050  0.0577
  691PSPI    C2 9324   3.423   0.134   5.841  0.0538  0.1900  0.1690
  691PSPI    C3 9325   3.104   0.374   5.832 -0.0668  0.0350  0.2620
  691PSPI   PO4 9326   3.311  -0.018   6.338 -0.1421  0.0236 -0.1808
  691PSPI   GL1 9327   3.513   0.041   6.677  0.0595 -0.0392  0.0235
  691PSPI   GL2 9328   3.269  -0.295   6.714  0.0372 -0.2752 -0.1464
  691PSPI   C1A 9329   3.420   0.124   7.116 -0.0888 -0.0480  0.0129
  691PSPI   C2A 9330   3.630   0.155   7.570  0.1486 -0.2470 -0.2641
  691PSPI   C3A 9331   3.598   0.363   7.853  0.3440 -0.1423  0.0357
  691PSPI   C4A 9332   3.519   0.479   8.325 -0.0812 -0.1140  0.0120
  691PSPI   C1B 9333   3.343  -0.444   7.151 -0.1403  0.2241 -0.2910
  691PSPI   C2B 9334   3.370  -0.472   7.619 -0.0633 -0.5320 -0.1807
  691PSPI   C3B 9335   3.544  -0.446   7.957  0.0126 -0.2055 -0.1128
  691PSPI   C4B 9336   3.836  -0.496   8.269  0.5932 -0.2285 -0.0468
  692PSPI    C1 9337   4.737   3.756   6.095  0.0724 -0.0938  0.1537
  692PSPI    C2 9338   4.423   3.924   5.912  0.0599 -0.0761  0.1914
  692PSPI    C3 9339   4.568   4.084   6.249  0.3191  0.1104 -0.0047
  692PSPI   PO4 9340   4.690   3.504   6.034 -0.3378  0.0608  0.4223
  692PSPI   GL1 9341   4.639   3.299   6.424 -0.1491  0.1670 -0.0135
  692PSPI   GL2 9342   4.762   3.009   6.595  0.0218  0.1692  0.2624
  692PSPI   C1A 9343   4.262   3.381   6.699 -0.1390  0.1467  0.0221
  692PSPI   C2A 9344   3.997   3.329   7.005  0.0211  0.2155  0.4780
  692PSPI   C3A 9345   4.025   3.373   7.463  0.1984  0.0047 -0.2474
  692PSPI   C4A 9346   4.009   3.314   7.887  0.3249  0.3040 -0.2077
  692PSPI   C1B 9347   4.775   3.200   6.978 -0.0625 -0.2868  0.2648
  692PSPI   C2B 9348   4.757   3.351   7.388  0.0116 -0.2254  0.1571
  692PSPI   C3B 9349   4.878   3.691   7.788  0.1952  0.0612 -0.0433
  692PSPI   C4B 9350   4.875   4.071   8.086 -0.1538 -0.1024  0.2781
  693PSPI    C1 9351   8.810  11.701   6.074 -0.0379 -0.1751  0.0685
  693PSPI    C2 9352   8.901  12.078   5.974  0.0588 -0.1946  0.0817
  693PSPI    C3 9353   8.911  11.790   5.697  0.1732 -0.2210  0.1130
  693PSPI   PO4 9354   8.967  11.531   6.379  0.2246  0.1291 -0.1158
  693PSPI   GL1 9355   9.245  11.501   6.759  0.0781  0.1202  0.0812
  693PSPI   GL2 9356   9.094  11.789   6.884 -0.1636  0.2263 -0.0573
  693PSPI   C1A 9357   9.451  11.398   7.135 -0.1786  0.0889 -0.0289
  693PSPI   C2A 9358   9.346  11.495   7.538  0.1392  0.1420  0.1219
  693PSPI   C3A 9359   9.470  11.564   7.933  0.2766 -0.0058  0.2944
  693PSPI   C4A 9360   9.299  11.823   8.105 -0.0161  0.0631  0.2329
  693PSPI   C1B 9361   9.025  11.791   7.273 -0.1761  0.0806  0.2027
  693PSPI   C2B 9362   8.977  11.946   7.692 -0.0156 -0.3223  0.2222
  693PSPI   C3B 9363   8.780  11.788   8.033 -0.1134 -0.1461  0.1169
  693PSPI   C4B 9364   8.416  11.552   8.313  0.0900 -0.2297  0.0370
  694PSPI    C1 9365   2.268  16.043   5.971  0.0844  0.2132  0.0852
  694PSPI    C2 9366   2.470  15.853   5.682 -0.1379  0.2493 -0.0966
  694PSPI    C3 9367   2.119  16.027   5.600 -0.1395  0.3748  0.1661
  694PSPI   PO4 9368   2.440  15.919   6.183 -0.1689 -0.3194 -0.0984
  694PSPI   GL1 9369   2.439  16.032   6.576  0.0237  0.0404  0.0218
  694PSPI   GL2 9370   2.433  16.298   6.590  0.2099  0.0948 -0.2054
  694PSPI   C1A 9371   2.583  15.625   6.809 -0.0773  0.2271  0.0559
  694PSPI   C2A 9372   2.735  15.547   7.349  0.0399 -0.0256  0.1215
  694PSPI   C3A 9373   2.757  15.793   7.695  0.1483 -0.5088  0.2690
  694PSPI   C4A 9374   2.721  16.097   7.908  0.0859 -0.0646 -0.0672
  694PSPI   C1B 9375   2.276  16.092   7.034  0.2744 -0.2368 -0.2562
  694PSPI   C2B 9376   2.254  15.776   7.389  0.3696 -0.0203  0.0781
  694PSPI   C3B 9377   2.235  15.785   7.760 -0.0699  0.2602  0.1010
  694PSPI   C4B 9378   2.442  15.706   8.059  0.0907 -0.2627 -0.0077
  695POPI    C1 9379  17.548   5.851   5.890 -0.0845  0.2617  0.1029
  695POPI    C2 9380  17.576   6.232   5.771 -0.0236  0.1399 -0.2863
  695POPI    C3 9381  17.713   5.938   5.536  0.2132 -0.1046  0.1452
  695POPI   PO4 9382  17.187   5.903   6.046  0.1115  0.2009 -0.1552
  695POPI   GL1 9383  16.778   5.862   6.262  0.1066  0.1843  0.0706
  695POPI   GL2 9384  16.406   5.896   6.204 -0.0926 -0.0774 -0.2148
  695POPI   C1A 9385  16.773   5.724   6.773  0.0885 -0.0777  0.2178
  695POPI   D2A 9386  16.948   5.522   7.155  0.0317  0.3127 -0.1748
  695POPI   C3A 9387  16.797   5.624   7.540  0.2235  0.1989 -0.0576
  695POPI   C4A 9388  16.581   5.585   7.938 -0.0120  0.1886  0.0454
  695POPI   C1B 9389  16.264   5.843   6.601 -0.1174 -0.2106  0.2130
  695POPI   C2B 9390  16.375   5.789   7.049 -0.1057  0.2009  0.0726
  695POPI   C3B 9391  16.422   5.938   7.525  0.2289  0.0131  0.1607
  695POPI   C4B 9392  16.405   6.201   7.912 -0.1040 -0.0314  0.2810
  696POPI    C1 9393  15.349   9.153   6.018  0.1588 -0.1417 -0.0113
  696POPI    C2 9394  15.689   9.116   5.810  0.1631  0.1023 -0.0508
  696POPI    C3 9395  15.444   9.425   5.740 -0.1472 -0.1569 -0.1351
  696POPI   PO4 9396  15.478   9.040   6.261 -0.0759  0.0446  0.1313
  696POPI   GL1 9397  15.606   9.411   6.676  0.0868  0.1056 -0.0825
  696POPI   GL2 9398  15.713   9.121   6.731  0.4014  0.0967 -0.1941
  696POPI   C1A 9399  15.459   9.401   7.130  0.4014 -0.1778  0.0895
  696POPI   D2A 9400  15.184   9.221   7.373 -0.0665 -0.3156 -0.1085
  696POPI   C3A 9401  14.847   9.420   7.459 -0.3239 -0.3372  0.0900
  696POPI   C4A 9402  14.367   9.596   7.547  0.2479 -0.0970 -0.1155
  696POPI   C1B 9403  15.865   9.069   7.146 -0.1857  0.2641 -0.2182
  696POPI   C2B 9404  15.673   9.178   7.594  0.2160 -0.3098 -0.3077
  696POPI   C3B 9405  15.405   9.300   7.939 -0.0102 -0.0449 -0.1525
  696POPI   C4B 9406  15.055   9.474   8.283  0.0330 -0.0222  0.1871
  697POPI    C1 9407   2.239   9.785   5.671 -0.0097  0.0669 -0.0849
  697POPI    C2 9408   2.372  10.150   5.576  0.1769 -0.0031 -0.0970
  697POPI    C3 9409   2.565   9.826   5.442 -0.0378 -0.1075 -0.1580
  697POPI   PO4 9410   2.212   9.804   5.986 -0.1625  0.1147  0.0328
  697POPI   GL1 9411   2.155   9.494   6.293  0.0521  0.0817 -0.0076
  697POPI   GL2 9412   2.490   9.431   6.362  0.0358  0.1742  0.0073
  697POPI   C1A 9413   2.221   9.610   6.706 -0.0501  0.0303 -0.2366
  697POPI   D2A 9414   2.194   9.548   7.107  0.0456  0.1188  0.0260
  697POPI   C3A 9415   2.123   9.811   7.458  0.0018  0.0886  0.0572
  697POPI   C4A 9416   2.203   9.728   7.841  0.0351 -0.1129  0.1449
  697POPI   C1B 9417   2.550   9.256   6.773  0.0206  0.5151 -0.1428
  697POPI   C2B 9418   2.685   9.186   7.248  0.0846 -0.1620  0.0855
  697POPI   C3B 9419   2.944   9.177   7.664 -0.1407 -0.1145  0.1610
  697POPI   C4B 9420   2.983   9.049   8.040  0.0042 -0.1123 -0.1992
  698POPI    C1 9421  10.842  10.452   5.847  0.2891 -0.0950  0.2772
  698POPI    C2 9422  10.730  10.112   5.669 -0.1969  0.2075 -0.0223
  698POPI    C3 9423  11.022  10.335   5.510 -0.0828  0.0823  0.0092
  698POPI   PO4 9424  10.813  10.364   6.098  0.2451  0.1231 -0.0809
  698POPI   GL1 9425  10.851  10.658   6.532 -0.1641 -0.1488  0.2114
  698POPI   GL2 9426  11.188  10.624   6.662  0.3113  0.1035  0.0470
  698POPI   C1A 9427  10.572  10.723   6.889  0.0672 -0.1451  0.1302
  698POPI   D2A 9428  10.512  10.654   7.347 -0.0473 -0.2324  0.2286
  698POPI   C3A 9429  10.700  10.937   7.702  0.0327 -0.2207 -0.0318
  698POPI   C4A 9430  10.788  10.958   8.147  0.3159  0.1007  0.3448
  698POPI   C1B 9431  11.007  10.805   7.100 -0.0126 -0.2196  0.0089
  698POPI   C2B 9432  10.999  10.628   7.398  0.1946  0.2517 -0.2103
  698POPI   C3B 9433  10.898  10.497   7.797  0.1739 -0.3448  0.3113
  698POPI   C4B 9434  11.076  10.602   8.228 -0.0922 -0.0129  0.0859
  699POPI    C1 9435   5.428  15.671   5.728 -0.1389 -0.3151 -0.1374
  699POPI    C2 9436   5.562  15.659   5.351 -0.1250 -0.1844 -0.1372
  699POPI    C3 9437   5.650  15.972   5.584 -0.2714 -0.1874 -0.0768
  699POPI   PO4 9438   5.515  15.504   5.979  0.1122  0.1162  0.2977
  699POPI   GL1 9439   5.764  15.559   6.388  0.0975 -0.1639  0.2019
  699POPI   GL2 9440   5.939  15.889   6.435 -0.1209  0.2658 -0.3634
  699POPI   C1A 9441   5.817  15.223   6.686 -0.1913 -0.1436  0.3832
  699POPI   D2A 9442   6.012  14.901   6.848 -0.1774 -0.0300  0.2817
  699POPI   C3A 9443   5.938  14.918   7.210 -0.0214 -0.4110 -0.0485
  699POPI   C4A 9444   5.874  14.963   7.579 -0.2136 -0.1093 -0.3583
  699POPI   C1B 9445   6.128  15.775   6.824  0.3807  0.0733 -0.1077
  699POPI   C2B 9446   6.243  15.822   7.164 -0.0683 -0.1062 -0.0821
  699POPI   C3B 9447   6.546  16.098   7.393  0.0497  0.1917 -0.3258
  699POPI   C4B 9448   6.589  16.294   7.772 -0.1818 -0.1516  0.1735
  700POPI    C1 9449  13.720   2.875   5.888  0.0794 -0.0185  0.3433
  700POPI    C2 9450  13.741   3.184   6.142 -0.1560  0.3396 -0.0587
  700POPI    C3 9451  13.967   3.181   5.812 -0.0447  0.0038  0.0162
  700POPI   PO4 9452  13.700   2.681   6.076 -0.2028 -0.1717  0.1343
  700POPI   GL1 9453  13.351   2.833   6.360  0.1071 -0.2734  0.0227
  700POPI   GL2 9454  13.128   2.694   6.410  0.0377  0.1292  0.1183
  700POPI   C1A 9455  13.425   3.189   6.497 -0.1443  0.2712  0.0409
  700POPI   D2A 9456  13.645   3.490   6.653  0.0614  0.2769  0.4073
  700POPI   C3A 9457  13.684   3.484   7.078  0.1262 -0.0651 -0.0102
  700POPI   C4A 9458  13.901   3.670   7.294 -0.4024  0.0124 -0.0864
  700POPI   C1B 9459  13.329   2.705   6.832 -0.0156 -0.2152  0.1592
  700POPI   C2B 9460  13.249   2.918   7.214  0.0714 -0.1373  0.3059
  700POPI   C3B 9461  13.038   3.109   7.489  0.3910  0.0077 -0.1469
  700POPI   C4B 9462  13.175   3.307   7.821  0.0979 -0.0063  0.0724
  701POPI    C1 9463  13.225   7.829   5.763  0.0519  0.3576 -0.0955
  701POPI    C2 9464  13.540   7.985   5.572  0.2032  0.1231 -0.0421
  701POPI    C3 9465  13.368   7.651   5.435  0.1125  0.1307  0.0517
  701POPI   PO4 9466  13.312   7.798   6.005  0.0138 -0.1406  0.0680
  701POPI   GL1 9467  13.339   7.871   6.469  0.0757  0.3867 -0.0487
  701POPI   GL2 9468  12.998   7.669   6.516 -0.0240 -0.1223  0.1774
  701POPI   C1A 9469  13.354   7.509   6.808 -0.1468  0.0894  0.0483
  701POPI   D2A 9470  13.568   7.329   7.083 -0.0470  0.0159  0.0714
  701POPI   C3A 9471  13.538   7.468   7.366  0.0671 -0.0140  0.0395
  701POPI   C4A 9472  13.637   7.698   7.690 -0.0371 -0.0623  0.1099
  701POPI   C1B 9473  12.830   7.769   6.892  0.1349 -0.0552 -0.0119
  701POPI   C2B 9474  12.966   7.907   7.346 -0.1423  0.0542  0.0625
  701POPI   C3B 9475  12.891   7.937   7.736  0.1794  0.0319 -0.1692
  701POPI   C4B 9476  12.960   7.940   8.100  0.0289  0.2030  0.2263
  702POPI    C1 9477   8.494   6.092   5.695  0.0576  0.1606  0.0638
  702POPI    C2 9478   8.703   6.001   5.366 -0.1016 -0.1687  0.0499
  702POPI    C3 9479   8.709   6.374   5.510  0.3392 -0.1286 -0.0593
  702POPI   PO4 9480   8.514   5.976   5.922 -0.1515 -0.2578  0.1707
  702POPI   GL1 9481   8.501   6.212   6.265 -0.0406  0.3560 -0.2173
  702POPI   GL2 9482   8.302   6.020   6.449 -0.1742  0.0327 -0.0783
  702POPI   C1A 9483   8.734   6.114   6.608  0.0299 -0.1786  0.0225
  702POPI   D2A 9484   8.486   6.137   7.008 -0.0438 -0.0472  0.0253
  702POPI   C3A 9485   8.774   5.964   7.343 -0.0449 -0.2271 -0.2539
  702POPI   C4A 9486   8.865   5.920   7.760  0.2942  0.0710 -0.0143
  702POPI   C1B 9487   8.000   6.097   6.865  0.1306 -0.3964 -0.0391
  702POPI   C2B 9488   7.923   6.197   7.247  0.1313 -0.1552 -0.1033
  702POPI   C3B 9489   7.884   6.141   7.699 -0.0949  0.3615 -0.2611
  702POPI   C4B 9490   7.807   5.909   7.983 -0.3575  0.0108  0.4993
  703POPI    C1 9491  13.652  12.954   6.243 -0.1789 -0.0539  0.0765
  703POPI    C2 9492  13.475  12.676   6.017 -0.1750 -0.1260  0.1615
  703POPI    C3 9493  13.566  13.033   5.860 -0.3053 -0.1234  0.0902
  703POPI   PO4 9494  13.542  13.017   6.442  0.0936 -0.3042  0.0976
  703POPI   GL1 9495  13.699  12.757   6.803  0.2592 -0.0956 -0.0280
  703POPI   GL2 9496  13.389  12.623   6.806 -0.2839  0.2548 -0.0852
  703POPI   C1A 9497  13.582  12.630   7.256  0.0774  0.2489 -0.0300
  703POPI   D2A 9498  13.572  12.405   7.707 -0.0911 -0.5040 -0.0984
  703POPI   C3A 9499  13.559  12.570   8.067  0.0045  0.1804  0.2614
  703POPI   C4A 9500  13.672  12.653   8.430 -0.0536 -0.3519 -0.0584
  703POPI   C1B 9501  13.562  12.258   6.892 -0.0477  0.0225 -0.2160
  703POPI   C2B 9502  13.499  12.149   7.288  0.0916 -0.0710 -0.0137
  703POPI   C3B 9503  13.405  11.942   7.721 -0.1558  0.3100 -0.1648
  703POPI   C4B 9504  13.113  11.814   8.043  0.2085 -0.1269  0.0098
  704POPI    C1 9505  12.803   7.001   5.868  0.0013 -0.0314 -0.1104
  704POPI    C2 9506  12.827   6.625   5.734  0.1119 -0.0242 -0.1118
  704POPI    C3 9507  12.470   6.799   5.780  0.0693 -0.0520 -0.3259
  704POPI   PO4 9508  12.932   7.015   6.090  0.0916  0.1037 -0.1841
  704POPI   GL1 9509  12.753   7.047   6.543  0.0691  0.2922  0.1298
  704POPI   GL2 9510  12.898   7.270   6.809 -0.0357  0.2247  0.2333
  704POPI   C1A 9511  12.623   6.858   6.845 -0.0585  0.0222  0.1127
  704POPI   D2A 9512  12.585   6.734   7.295  0.0554  0.1306  0.0134
  704POPI   C3A 9513  12.489   6.941   7.618  0.1550 -0.2751 -0.2512
  704POPI   C4A 9514  12.296   7.192   7.943  0.0564 -0.2767  0.2600
  704POPI   C1B 9515  13.076   7.421   7.203 -0.0413 -0.0724  0.1392
  704POPI   C2B 9516  13.112   7.522   7.646 -0.2965  0.1830  0.0494
  704POPI   C3B 9517  13.263   7.557   8.024 -0.2590 -0.1369  0.2268
  704POPI   C4B 9518  13.200   7.588   8.491  0.3795  0.4922  0.0355
  705POPI    C1 9519   6.418   0.705   5.937 -0.0088 -0.2273 -0.0928
  705POPI    C2 9520   6.227   0.521   5.637 -0.1179  0.0723 -0.2111
  705POPI    C3 9521   6.622   0.580   5.616 -0.1202  0.0631 -0.2810
  705POPI   PO4 9522   6.412   0.575   6.147 -0.0651 -0.3815  0.6465
  705POPI   GL1 9523   6.332   0.287   6.447 -0.0116  0.0120  0.1429
  705POPI   GL2 9524   6.407  -0.025   6.415  0.2492 -0.2261  0.0895
  705POPI   C1A 9525   6.615   0.194   6.771  0.0926 -0.2378 -0.0936
  705POPI   D2A 9526   6.935   0.359   7.121 -0.0874 -0.2792 -0.0422
  705POPI   C3A 9527   6.998   0.445   7.525 -0.0025  0.2478 -0.0231
  705POPI   C4A 9528   7.026   0.564   7.936  0.0058  0.0741 -0.0961
  705POPI   C1B 9529   6.212  -0.112   6.757  0.4204 -0.0305  0.0555
  705POPI   C2B 9530   6.259  -0.181   7.100 -0.0142  0.0084  0.0841
  705POPI   C3B 9531   6.142  -0.091   7.509 -0.1186  0.1369  0.0256
  705POPI   C4B 9532   6.318   0.038   7.903 -0.2146 -0.4203  0.0111
  706POPI    C1 9533   7.997   5.722   5.938 -0.1745 -0.1188  0.1519
  706POPI    C2 9534   8.051   6.112   6.012  0.1534 -0.0793 -0.2568
  706POPI    C3 9535   7.982   5.987   5.638 -0.1164 -0.4005 -0.1053
  706POPI   PO4 9536   8.170   5.633   6.032  0.0204  0.2051  0.1394
  706POPI   GL1 9537   8.281   5.420   6.452  0.0172 -0.1478  0.0503
  706POPI   GL2 9538   7.984   5.060   6.471  0.1373 -0.4722 -0.1681
  706POPI   C1A 9539   8.314   5.675   6.817  0.3009 -0.1066  0.3773
  706POPI   D2A 9540   8.312   5.627   7.121  0.1983  0.1716  0.1908
  706POPI   C3A 9541   8.235   5.872   7.418 -0.1708  0.0171 -0.1342
  706POPI   C4A 9542   8.373   6.202   7.574  0.1311 -0.4196  0.1308
  706POPI   C1B 9543   8.060   5.177   6.864 -0.0042  0.3514 -0.0246
  706POPI   C2B 9544   8.043   5.233   7.224  0.2869 -0.3991  0.0337
  706POPI   C3B 9545   8.200   5.312   7.614 -0.3989  0.0787 -0.0641
  706POPI   C4B 9546   8.232   5.687   7.968 -0.2279  0.0475 -0.4080
  707POPI    C1 9547  14.007  10.186   6.026 -0.1442 -0.5206  0.1061
  707POPI    C2 9548  13.734  10.128   5.740 -0.1095  0.1122 -0.0696
  707POPI    C3 9549  14.090  10.286   5.648  0.0147  0.0454  0.2797
  707POPI   PO4 9550  13.810  10.051   6.275 -0.2860  0.2113 -0.1670
  707POPI   GL1 9551  13.437  10.028   6.511  0.0511  0.0657 -0.0580
  707POPI   GL2 9552  13.401  10.334   6.555 -0.1000  0.1613 -0.2916
  707POPI   C1A 9553  13.631   9.992   6.892  0.1959 -0.1499 -0.0312
  707POPI   D2A 9554  13.914   9.673   7.177 -0.0478  0.0791 -0.0298
  707POPI   C3A 9555  13.795   9.516   7.628  0.2076 -0.3560 -0.3290
  707POPI   C4A 9556  13.646   9.827   7.913  0.3169  0.4704  0.3065
  707POPI   C1B 9557  13.673  10.475   6.971 -0.0275 -0.1076 -0.0983
  707POPI   C2B 9558  13.498  10.583   7.433 -0.1939 -0.1032 -0.0911
  707POPI   C3B 9559  13.622  10.322   7.821  0.3612  0.1883 -0.1656
  707POPI   C4B 9560  13.926  10.223   8.135  0.2447 -0.0536  0.1342
  708POPI    C1 9561   7.305  13.742   5.901 -0.0303  0.0275 -0.0764
  708POPI    C2 9562   7.681  13.700   5.773  0.0182  0.0662  0.0513
  708POPI    C3 9563   7.383  13.515   5.581  0.0736  0.2271 -0.1945
  708POPI   PO4 9564   7.373  13.714   6.169 -0.0012  0.1715  0.1335
  708POPI   GL1 9565   7.308  13.972   6.480  0.0019  0.0190 -0.1818
  708POPI   GL2 9566   7.030  14.043   6.473  0.1725 -0.0803  0.0060
  708POPI   C1A 9567   7.264  13.876   6.881  0.2140 -0.0835  0.0071
  708POPI   D2A 9568   7.255  13.837   7.214  0.0071 -0.3268 -0.1710
  708POPI   C3A 9569   7.450  14.123   7.624 -0.0578  0.1406  0.2350
  708POPI   C4A 9570   7.461  14.421   7.891  0.1628  0.2903 -0.0785
  708POPI   C1B 9571   6.818  14.168   6.843 -0.2153 -0.0538 -0.1369
  708POPI   C2B 9572   6.797  14.125   7.275 -0.0153  0.2479 -0.3299
  708POPI   C3B 9573   6.935  14.049   7.662 -0.1074  0.0314 -0.0708
  708POPI   C4B 9574   6.999  13.939   8.116 -0.0210 -0.1468 -0.0905
  709POPI    C1 9575   8.191  11.730   6.065 -0.0931  0.0448  0.0160
  709POPI    C2 9576   8.432  11.953   5.835 -0.1032  0.0619  0.0219
  709POPI    C3 9577   8.376  11.566   5.751  0.2076 -0.0320  0.2286
  709POPI   PO4 9578   8.283  11.805   6.315 -0.0073  0.0566 -0.2014
  709POPI   GL1 9579   8.255  11.972   6.667 -0.0747  0.0350 -0.2669
  709POPI   GL2 9580   8.363  12.311   6.708 -0.1514 -0.0257  0.1890
  709POPI   C1A 9581   8.010  11.609   6.898 -0.0667  0.2716 -0.3271
  709POPI   D2A 9582   7.948  11.628   7.393 -0.4564 -0.0304  0.0153
  709POPI   C3A 9583   7.818  11.754   7.757  0.2160 -0.2242 -0.0912
  709POPI   C4A 9584   7.461  11.907   8.085  0.0469  0.3397  0.2404
  709POPI   C1B 9585   8.420  12.365   7.087  0.3454  0.2640 -0.2127
  709POPI   C2B 9586   8.528  12.433   7.487  0.2177  0.1688  0.2138
  709POPI   C3B 9587   8.445  12.279   7.951  0.2332 -0.1118  0.0995
  709POPI   C4B 9588   8.431  12.200   8.339 -0.0191  0.1771  0.1882
  710POPI    C1 9589   0.703   5.223   5.572 -0.1753 -0.0491  0.0753
  710POPI    C2 9590   0.324   5.241   5.445 -0.0865 -0.1552 -0.2128
  710POPI    C3 9591   0.580   4.984   5.276  0.0982 -0.1308  0.0242
  710POPI   PO4 9592   0.647   5.342   5.848 -0.0989  0.0968 -0.0551
  710POPI   GL1 9593   0.716   5.201   6.293  0.0252 -0.2100  0.2936
  710POPI   GL2 9594   0.407   5.369   6.284  0.1523  0.1038  0.1029
  710POPI   C1A 9595   1.019   5.475   6.474 -0.1168 -0.0929 -0.2767
  710POPI   D2A 9596   1.227   5.453   6.768 -0.4187  0.4173  0.0155
  710POPI   C3A 9597   1.384   5.077   6.880  0.0589  0.0430  0.1897
  710POPI   C4A 9598   1.325   4.736   7.165 -0.3333 -0.2134 -0.2097
  710POPI   C1B 9599   0.499   5.355   6.753 -0.1127 -0.1997 -0.3608
  710POPI   C2B 9600   0.427   5.511   7.191 -0.1238 -0.1872 -0.0526
  710POPI   C3B 9601   0.211   5.742   7.528 -0.2192 -0.1419  0.0351
  710POPI   C4B 9602  -0.100   5.623   7.862  0.2942  0.2545 -0.2245
  711POPI    C1 9603   0.493   9.249   6.008 -0.0604 -0.1327  0.0300
  711POPI    C2 9604   0.803   9.433   6.183 -0.0094 -0.1606 -0.0305
  711POPI    C3 9605   0.821   9.336   5.796 -0.0358 -0.2937  0.0008
  711POPI   PO4 9606   0.431   9.054   6.189 -0.2007 -0.0632 -0.2050
  711POPI   GL1 9607   0.626   8.922   6.543  0.1670 -0.0884  0.3580
  711POPI   GL2 9608   0.919   9.021   6.486 -0.1354 -0.0458 -0.0111
  711POPI   C1A 9609   0.747   8.931   6.976 -0.0211  0.0099  0.0012
  711POPI   D2A 9610   1.111   8.918   7.248 -0.0694 -0.1493  0.1643
  711POPI   C3A 9611   1.290   8.565   7.260  0.0632 -0.1767 -0.2964
  711POPI   C4A 9612   1.485   8.209   7.486 -0.0310  0.0038  0.2624
  711POPI   C1B 9613   1.154   8.746   6.720  0.0478  0.1399 -0.1487
  711POPI   C2B 9614   1.421   8.267   6.699 -0.0397 -0.0461 -0.1467
  711POPI   C3B 9615   1.622   8.101   7.010 -0.1724 -0.0472  0.0536
  711POPI   C4B 9616   1.889   8.011   7.335  0.3390  0.0413 -0.1645
  712POPI    C1 9617  10.728   2.808   5.354  0.1211 -0.1510 -0.0073
  712POPI    C2 9618  10.607   2.427   5.351  0.3399 -0.2214 -0.0649
  712POPI    C3 9619  10.591   2.646   5.016  0.2108 -0.1778 -0.0310
  712POPI   PO4 9620  10.612   2.874   5.642  0.1580  0.1240  0.0237
  712POPI   GL1 9621  10.816   3.031   6.043  0.3423  0.0694 -0.0247
  712POPI   GL2 9622  10.893   2.759   6.070  0.2728 -0.4839 -0.1584
  712POPI   C1A 9623  10.671   3.370   6.337  0.0380 -0.0582 -0.4191
  712POPI   D2A 9624  10.661   3.456   6.883  0.1765 -0.1704  0.0782
  712POPI   C3A 9625  10.452   3.641   7.149 -0.0564 -0.1336 -0.2798
  712POPI   C4A 9626   9.998   3.749   7.191  0.3433  0.0172 -0.0313
  712POPI   C1B 9627  10.993   2.520   6.427 -0.1502 -0.2428  0.2230
  712POPI   C2B 9628  11.062   2.531   6.784  0.2298  0.2454 -0.0207
  712POPI   C3B 9629  11.075   2.490   7.216  0.2037  0.0492 -0.1721
  712POPI   C4B 9630  10.979   2.317   7.555 -0.3098 -0.0523  0.2201
  713POPI    C1 9631  13.424   4.138   5.752  0.1255  0.0023  0.0253
  713POPI    C2 9632  13.370   3.847   5.483 -0.0171 -0.0959  0.1583
  713POPI    C3 9633  13.058   4.065   5.608  0.0835  0.0931  0.0841
  713POPI   PO4 9634  13.546   3.992   5.983 -0.2843  0.1451  0.2638
  713POPI   GL1 9635  13.592   4.033   6.454  0.0261  0.1135  0.0779
  713POPI   GL2 9636  13.895   4.215   6.473  0.0652  0.2710  0.3630
  713POPI   C1A 9637  13.705   3.971   6.891  0.1135  0.2337  0.3574
  713POPI   D2A 9638  13.954   4.152   7.277 -0.2611 -0.1763 -0.1354
  713POPI   C3A 9639  13.949   3.988   7.686 -0.2919  0.1404 -0.0108
  713POPI   C4A 9640  13.518   3.655   7.677 -0.0813 -0.2520 -0.0272
  713POPI   C1B 9641  14.165   4.278   6.782  0.3315  0.0169 -0.1775
  713POPI   C2B 9642  14.475   4.441   7.058  0.0947  0.0999  0.1646
  713POPI   C3B 9643  14.677   4.470   7.362  0.1886  0.1512 -0.0775
  713POPI   C4B 9644  14.882   4.714   7.632  0.0349 -0.1110  0.0893
  714POPI    C1 9645   7.235  10.136   5.959  0.1122 -0.1083 -0.0096
  714POPI    C2 9646   7.251   9.817   5.719 -0.0269 -0.1342  0.0148
  714POPI    C3 9647   7.482  10.135   5.644 -0.2368 -0.0487 -0.2903
  714POPI   PO4 9648   6.949  10.163   6.020 -0.0202  0.0049  0.0387
  714POPI   GL1 9649   6.761  10.043   6.429 -0.1879 -0.1055 -0.0048
  714POPI   GL2 9650   6.510  10.282   6.440  0.2159 -0.2043  0.3579
  714POPI   C1A 9651   6.858   9.753   6.845  0.0455  0.1748 -0.2218
  714POPI   D2A 9652   6.739   9.619   7.267 -0.2360  0.0795 -0.1282
  714POPI   C3A 9653   7.030   9.686   7.586  0.3098 -0.1949 -0.3471
  714POPI   C4A 9654   7.350   9.717   7.810  0.2092 -0.0246  0.0586
  714POPI   C1B 9655   6.375   9.921   6.633 -0.1115 -0.0114  0.1968
  714POPI   C2B 9656   6.312   9.798   7.018  0.2557  0.1699 -0.1560
  714POPI   C3B 9657   6.237   9.799   7.380 -0.4074 -0.1748 -0.5449
  714POPI   C4B 9658   6.494   9.504   7.654  0.2693 -0.3388  0.1215
  715POPI    C1 9659   0.101   3.096   5.607 -0.0039 -0.2758 -0.1818
  715POPI    C2 9660  -0.279   3.059   5.727  0.0709 -0.1759  0.0929
  715POPI    C3 9661  -0.196   3.107   5.339 -0.2074 -0.0425  0.0470
  715POPI   PO4 9662   0.232   3.023   5.801  0.0966  0.1147 -0.2317
  715POPI   GL1 9663   0.155   3.077   6.173 -0.0561  0.1310 -0.3694
  715POPI   GL2 9664   0.449   2.859   6.308 -0.0600  0.0392 -0.2727
  715POPI   C1A 9665   0.111   3.369   6.504 -0.0838 -0.1740 -0.0123
  715POPI   D2A 9666   0.001   3.439   6.968  0.1957  0.1630  0.1934
  715POPI   C3A 9667   0.209   3.474   7.381  0.0407  0.1771  0.3176
  715POPI   C4A 9668   0.171   3.601   7.779 -0.0200 -0.1575 -0.0092
  715POPI   C1B 9669   0.333   2.944   6.723 -0.1890 -0.0001  0.1507
  715POPI   C2B 9670   0.261   3.020   7.167  0.2339 -0.2680  0.1258
  715POPI   C3B 9671   0.360   2.974   7.641  0.0422  0.1592  0.2350
  715POPI   C4B 9672   0.402   3.208   7.998  0.2127 -0.0764 -0.1094
  716POPI    C1 9673   3.418  13.432   5.742 -0.1186  0.2310  0.0811
  716POPI    C2 9674   3.750  13.477   5.524 -0.0715 -0.1911  0.0570
  716POPI    C3 9675   3.415  13.669   5.420 -0.0369 -0.3479 -0.3623
  716POPI   PO4 9676   3.442  13.427   5.955 -0.1662  0.0463 -0.0836
  716POPI   GL1 9677   3.597  13.237   6.290  0.1254  0.2160  0.2829
  716POPI   GL2 9678   3.288  13.317   6.445  0.1009  0.0218 -0.0387
  716POPI   C1A 9679   3.652  13.068   6.711 -0.1323 -0.0047 -0.1696
  716POPI   D2A 9680   3.664  12.936   7.079  0.2184  0.0848  0.0855
  716POPI   C3A 9681   3.733  13.017   7.472  0.0100  0.1137  0.1237
  716POPI   C4A 9682   4.086  13.153   7.780 -0.2561  0.0798  0.1338
  716POPI   C1B 9683   3.120  13.085   6.825  0.0339  0.1597 -0.0515
  716POPI   C2B 9684   3.150  12.882   7.246  0.0151 -0.0409  0.2224
  716POPI   C3B 9685   3.212  12.875   7.717 -0.0566  0.0020  0.0498
  716POPI   C4B 9686   3.102  12.610   7.984 -0.1441 -0.4084 -0.0688
  717POPI    C1 9687   4.288   5.378   6.332  0.3852 -0.1838 -0.1049
  717POPI    C2 9688   4.352   5.594   6.001 -0.0852 -0.0783 -0.1345
  717POPI    C3 9689   4.204   5.223   5.973  0.0698 -0.1476 -0.0498
  717POPI   PO4 9690   4.162   5.498   6.420 -0.0881 -0.0528  0.0942
  717POPI   GL1 9691   4.176   5.554   6.848 -0.0997  0.1570  0.3009
  717POPI   GL2 9692   4.027   5.895   6.805 -0.1157  0.1262 -0.0426
  717POPI   C1A 9693   4.226   5.508   7.205 -0.1461  0.0026 -0.2987
  717POPI   D2A 9694   4.447   5.604   7.658 -0.2170  0.1504 -0.0709
  717POPI   C3A 9695   4.653   5.394   7.939 -0.1562  0.0904  0.0051
  717POPI   C4A 9696   4.840   4.985   8.147 -0.2199  0.1606  0.1276
  717POPI   C1B 9697   4.282   6.009   7.189 -0.2739  0.2209  0.0541
  717POPI   C2B 9698   4.276   6.171   7.610 -0.0880 -0.1312 -0.1440
  717POPI   C3B 9699   4.239   6.383   7.902  0.1917  0.1496 -0.3882
  717POPI   C4B 9700   4.308   6.510   8.248 -0.0287 -0.4196  0.3685
  718POPI    C1 9701   8.457   2.791   5.540  0.0175 -0.1911  0.0447
  718POPI    C2 9702   8.095   2.702   5.685 -0.0271 -0.2182 -0.0826
  718POPI    C3 9703   8.133   2.968   5.388  0.0768 -0.0558  0.0740
  718POPI   PO4 9704   8.645   2.832   5.785  0.1488  0.1950 -0.0924
  718POPI   GL1 9705   8.935   2.961   6.147 -0.2409  0.1507 -0.1513
  718POPI   GL2 9706   8.843   2.671   6.218 -0.1685 -0.0892 -0.0945
  718POPI   C1A 9707   8.963   3.304   6.485  0.2949  0.0882  0.0273
  718POPI   D2A 9708   9.153   3.611   6.746 -0.4471  0.2522  0.2497
  718POPI   C3A 9709   8.960   3.699   7.122  0.0414 -0.1317 -0.1295
  718POPI   C4A 9710   9.053   3.755   7.495 -0.0064 -0.2371 -0.0362
  718POPI   C1B 9711   9.106   2.275   6.515  0.0567 -0.0909  0.3448
  718POPI   C2B 9712   9.168   2.108   6.915 -0.2192 -0.3391 -0.3995
  718POPI   C3B 9713   8.962   1.940   7.266 -0.2200  0.1638 -0.0048
  718POPI   C4B 9714   8.869   1.762   7.715  0.0250 -0.0877 -0.1738
  719POPI    C1 9715  16.886  11.541   6.489  0.0235 -0.0613 -0.0079
  719POPI    C2 9716  16.826  11.630   6.104  0.0784  0.0134  0.0006
  719POPI    C3 9717  16.754  11.904   6.387  0.0529 -0.0364  0.0424
  719POPI   PO4 9718  17.106  11.463   6.500  0.2179 -0.0631  0.1762
  719POPI   GL1 9719  17.276  11.291   6.874  0.1147  0.1015  0.1408
  719POPI   GL2 9720  17.513  11.351   7.068 -0.1261  0.0474 -0.0459
  719POPI   C1A 9721  17.094  11.313   7.353  0.1481  0.5714  0.0286
  719POPI   D2A 9722  16.897  11.511   7.706  0.0092  0.0812 -0.1641
  719POPI   C3A 9723  16.734  11.914   7.532 -0.4138  0.3446 -0.0367
  719POPI   C4A 9724  16.571  12.235   7.315  0.2867  0.1390 -0.2433
  719POPI   C1B 9725  17.638  11.278   7.530  0.0821  0.1687 -0.1601
  719POPI   C2B 9726  17.548  11.044   7.913 -0.1215  0.0165  0.2149
  719POPI   C3B 9727  17.468  10.799   8.216 -0.0334 -0.0900 -0.0108
  719POPI   C4B 9728  17.555  10.407   8.490 -0.3364 -0.0882  0.1857
  720POPI    C1 9729   0.274   6.017   5.739  0.0736 -0.0326  0.0753
  720POPI    C2 9730   0.663   6.067   5.818  0.0772  0.1932 -0.0794
  720POPI    C3 9731   0.541   5.750   5.606  0.1639  0.0635  0.0629
  720POPI   PO4 9732   0.143   6.038   5.952  0.0224 -0.1027  0.0043
  720POPI   GL1 9733   0.147   5.868   6.346  0.0176 -0.2067 -0.2599
  720POPI   GL2 9734  -0.030   5.612   6.493  0.2610  0.0067 -0.2594
  720POPI   C1A 9735   0.328   5.844   6.769  0.0594 -0.0319 -0.1038
  720POPI   D2A 9736   0.436   6.006   7.146  0.0244 -0.1553  0.3724
  720POPI   C3A 9737   0.704   5.902   7.448 -0.2496  0.2087 -0.0405
  720POPI   C4A 9738   1.048   5.842   7.708  0.2355  0.1680  0.2739
  720POPI   C1B 9739  -0.134   5.525   6.953  0.0013  0.0838  0.1877
  720POPI   C2B 9740  -0.236   5.552   7.354  0.0713 -0.1336 -0.1112
  720POPI   C3B 9741  -0.317   5.213   7.637 -0.0904  0.1100  0.1976
  720POPI   C4B 9742  -0.280   5.208   8.097  0.1126 -0.2817  0.1499
  721POPI    C1 9743   3.649  13.923   6.168 -0.0268 -0.1181  0.0350
  721POPI    C2 9744   3.842  13.872   5.821 -0.1221 -0.0861 -0.0231
  721POPI    C3 9745   3.446  13.933   5.823 -0.1561 -0.2999  0.1046
  721POPI   PO4 9746   3.593  13.745   6.305  0.0147 -0.2885  0.4555
  721POPI   GL1 9747   3.709  13.547   6.639 -0.0549  0.0001  0.0554
  721POPI   GL2 9748   4.088  13.705   6.486  0.0524  0.0733 -0.1393
  721POPI   C1A 9749   3.816  13.471   7.112  0.0103  0.4773 -0.1136
  721POPI   D2A 9750   3.824  13.532   7.567 -0.0684  0.2330  0.0043
  721POPI   C3A 9751   3.908  13.525   8.086 -0.0103  0.1426  0.2927
  721POPI   C4A 9752   3.672  13.564   8.443  0.0337  0.0647 -0.0014
  721POPI   C1B 9753   4.048  13.907   6.899 -0.0361  0.4058  0.0433
  721POPI   C2B 9754   4.011  14.003   7.326  0.0140 -0.0394 -0.1699
  721POPI   C3B 9755   3.817  14.013   7.771 -0.0157 -0.1358 -0.3212
  721POPI   C4B 9756   3.537  13.799   8.024 -0.0416 -0.1972 -0.0760
  722POPI    C1 9757   5.463   3.906   5.404  0.1747  0.0550 -0.1446
  722POPI    C2 9758   5.150   4.103   5.557  0.3564  0.1651  0.0925
  722POPI    C3 9759   5.107   3.885   5.224 -0.0709 -0.1542  0.3463
  722POPI   PO4 9760   5.619   3.825   5.701  0.0714  0.1095 -0.0820
  722POPI   GL1 9761   5.703   3.732   6.181  0.1091 -0.2446 -0.1425
  722POPI   GL2 9762   5.649   3.526   6.411  0.0370  0.0768  0.2328
  722POPI   C1A 9763   6.066   3.827   6.464 -0.1039 -0.0003 -0.1724
  722POPI   D2A 9764   6.155   3.636   6.813  0.0630 -0.2515 -0.2638
  722POPI   C3A 9765   5.850   3.500   7.188  0.2349  0.1010 -0.0521
  722POPI   C4A 9766   5.800   3.533   7.663 -0.3033  0.2157  0.1311
  722POPI   C1B 9767   5.543   3.460   6.766 -0.1480  0.1490 -0.2059
  722POPI   C2B 9768   5.257   3.258   7.148 -0.1296  0.2117 -0.0496
  722POPI   C3B 9769   5.205   3.281   7.623  0.1063 -0.1412  0.0471
  722POPI   C4B 9770   5.210   2.907   7.944  0.1197  0.1260  0.1210
  723POPI    C1 9771   7.087   0.214   5.584 -0.0044 -0.1099  0.0944
  723POPI    C2 9772   7.121  -0.175   5.502  0.0984 -0.0990  0.0845
  723POPI    C3 9773   7.417   0.076   5.406  0.0110 -0.0106  0.0454
  723POPI   PO4 9774   7.057   0.272   5.836  0.0101  0.1639  0.1344
  723POPI   GL1 9775   7.357   0.342   6.095 -0.0026 -0.1565  0.0450
  723POPI   GL2 9776   7.500   0.566   6.030  0.2686  0.1395  0.0568
  723POPI   C1A 9777   7.454   0.304   6.525 -0.1843 -0.2316 -0.0413
  723POPI   D2A 9778   7.391   0.309   6.985 -0.1210  0.1901  0.2943
  723POPI   C3A 9779   7.681   0.500   7.199  0.1304  0.0799 -0.3758
  723POPI   C4A 9780   7.971   0.504   7.576 -0.0098 -0.0208  0.2317
  723POPI   C1B 9781   7.304   0.771   6.346  0.3602  0.1031  0.1772
  723POPI   C2B 9782   7.003   0.962   6.408  0.3751  0.1856 -0.2951
  723POPI   C3B 9783   7.009   1.271   6.748 -0.0490 -0.0028  0.3147
  723POPI   C4B 9784   7.123   1.291   7.203  0.1895 -0.0593 -0.0280
  724POPI    C1 9785  17.111   1.738   5.768  0.0001  0.1527  0.2448
  724POPI    C2 9786  17.291   1.382   5.735 -0.3005  0.0188 -0.0010
  724POPI    C3 9787  17.419   1.691   5.516 -0.0470  0.0622  0.2032
  724POPI   PO4 9788  17.074   1.742   6.089  0.0182  0.1460 -0.1192
  724POPI   GL1 9789  16.785   1.709   6.305 -0.0887  0.1742  0.0291
  724POPI   GL2 9790  16.699   1.413   6.398  0.4243 -0.2141  0.2678
  724POPI   C1A 9791  16.843   1.762   6.686 -0.0095 -0.0740 -0.0558
  724POPI   D2A 9792  16.677   1.769   7.054 -0.1399  0.2197 -0.1589
  724POPI   C3A 9793  16.799   1.859   7.379  0.1232 -0.2880  0.2713
  724POPI   C4A 9794  16.664   2.027   7.753 -0.2962  0.0570  0.2137
  724POPI   C1B 9795  16.665   1.298   6.862  0.1265  0.0920 -0.2379
  724POPI   C2B 9796  16.561   1.312   7.325 -0.0595  0.1722 -0.3796
  724POPI   C3B 9797  16.747   1.520   7.745 -0.0414  0.1252 -0.1139
  724POPI   C4B 9798  16.585   1.623   8.218  0.0405 -0.2729  0.1078
  725POPI    C1 9799  12.108   0.971   5.838 -0.0991 -0.0184  0.0140
  725POPI    C2 9800  11.762   0.914   6.031 -0.0823 -0.0067  0.0475
  725POPI    C3 9801  11.785   1.185   5.737 -0.0793  0.0548  0.1041
  725POPI   PO4 9802  12.234   1.020   6.003  0.0315  0.1622  0.0719
  725POPI   GL1 9803  12.205   0.766   6.344  0.0415  0.0650 -0.3219
  725POPI   GL2 9804  12.470   0.950   6.462 -0.2059 -0.2455 -0.1703
  725POPI   C1A 9805  12.025   0.677   6.772  0.1946  0.0929 -0.2196
  725POPI   D2A 9806  11.774   0.837   7.039 -0.0681 -0.0606  0.1379
  725POPI   C3A 9807  11.798   0.558   7.364 -0.0597 -0.2432  0.1483
  725POPI   C4A 9808  11.973   0.261   7.666 -0.0519  0.1336  0.1020
  725POPI   C1B 9809  12.654   0.965   6.900 -0.3279 -0.1601  0.0270
  725POPI   C2B 9810  12.646   0.961   7.301  0.2267  0.0060 -0.0323
  725POPI   C3B 9811  12.502   1.203   7.645 -0.0545 -0.0752 -0.0304
  725POPI   C4B 9812  12.616   1.571   7.908 -0.1027 -0.0344  0.1078
  726POPI    C1 9813   4.331  13.838   6.000  0.1024 -0.0879  0.0850
  726POPI    C2 9814   4.414  14.015   5.651  0.1828 -0.0198  0.1383
  726POPI    C3 9815   4.270  13.642   5.657 -0.2157  0.1268  0.0139
  726POPI   PO4 9816   4.206  14.043   6.132 -0.1236  0.2740  0.0663
  726POPI   GL1 9817   4.029  14.177   6.452  0.0919  0.0803 -0.0938
  726POPI   GL2 9818   3.745  14.196   6.648 -0.0074 -0.1471 -0.3933
  726POPI   C1A 9819   4.230  14.389   6.775  0.1713 -0.0124  0.1612
  726POPI   D2A 9820   4.716  14.444   6.847 -0.0279  0.1000 -0.0793
  726POPI   C3A 9821   5.001  14.238   7.252  0.1462 -0.0172  0.1498
  726POPI   C4A 9822   5.140  14.448   7.464 -0.0023  0.1753  0.2030
  726POPI   C1B 9823   3.538  13.880   7.006  0.1274 -0.0159 -0.0632
  726POPI   C2B 9824   3.404  13.849   7.490 -0.0799 -0.2234  0.0477
  726POPI   C3B 9825   3.102  13.869   7.793  0.2146  0.1623 -0.2703
  726POPI   C4B 9826   2.705  13.720   8.006 -0.0815  0.0230 -0.0962
  727POPI    C1 9827  11.406   2.165   5.476 -0.0429 -0.2162  0.0839
  727POPI    C2 9828  11.769   2.029   5.378  0.0171 -0.1503  0.2130
  727POPI    C3 9829  11.448   1.907   5.173  0.1356 -0.0476 -0.0368
  727POPI   PO4 9830  11.368   2.137   5.750 -0.1837 -0.2246 -0.2524
  727POPI   GL1 9831  11.426   2.430   6.064 -0.0090  0.2325  0.0820
  727POPI   GL2 9832  11.389   2.761   6.082  0.1491  0.1015 -0.1422
  727POPI   C1A 9833  11.319   2.199   6.443  0.1079 -0.0162  0.2375
  727POPI   D2A 9834  11.556   1.990   6.663  0.1642 -0.1959 -0.0517
  727POPI   C3A 9835  11.575   1.950   7.086  0.1284  0.2589  0.1219
  727POPI   C4A 9836  11.550   1.739   7.538 -0.1158  0.0174  0.0404
  727POPI   C1B 9837  11.478   2.782   6.529 -0.2350 -0.0051  0.2636
  727POPI   C2B 9838  11.409   2.915   6.953 -0.1685 -0.1910  0.1868
  727POPI   C3B 9839  11.469   2.837   7.317  0.0597 -0.0425  0.2366
  727POPI   C4B 9840  11.366   2.737   7.673  0.1448 -0.2054  0.0660
  728POPI    C1 9841   3.102  11.320   6.164 -0.0380 -0.1452 -0.0425
  728POPI    C2 9842   3.358  11.611   6.064 -0.0950 -0.1200 -0.1157
  728POPI    C3 9843   2.968  11.651   5.985 -0.1151 -0.1793 -0.0483
  728POPI   PO4 9844   3.242  11.065   6.097  0.2852  0.0424  0.0953
  728POPI   GL1 9845   3.114  10.759   6.489  0.3568 -0.0820  0.2145
  728POPI   GL2 9846   2.847  10.956   6.531 -0.0722 -0.0427  0.1015
  728POPI   C1A 9847   2.941  10.753   6.925 -0.0107  0.0655 -0.0724
  728POPI   D2A 9848   2.814  10.801   7.373  0.0484  0.1953 -0.1690
  728POPI   C3A 9849   2.929  10.530   7.661 -0.3057  0.1044  0.2900
  728POPI   C4A 9850   2.982  10.248   7.810 -0.0549 -0.2374  0.5468
  728POPI   C1B 9851   2.725  11.206   6.865  0.0109  0.0845 -0.2908
  728POPI   C2B 9852   2.751  11.341   7.221  0.1535 -0.1243 -0.0913
  728POPI   C3B 9853   2.528  11.233   7.502  0.2837 -0.1338  0.0069
  728POPI   C4B 9854   2.272  11.107   7.823 -0.1869  0.0799 -0.1741
  729POPI    C1 9855   9.428   1.186   5.368  0.0905  0.0549  0.0770
  729POPI    C2 9856   9.388   1.230   4.972  0.1095 -0.0131  0.0674
  729POPI    C3 9857   9.191   0.938   5.162 -0.1356  0.2047  0.1533
  729POPI   PO4 9858   9.426   1.434   5.458 -0.0867 -0.2861 -0.0383
  729POPI   GL1 9859   9.447   1.550   5.941  0.2843 -0.0424 -0.0135
  729POPI   GL2 9860   9.523   1.877   6.048 -0.0161 -0.1984 -0.2779
  729POPI   C1A 9861   9.207   1.369   6.188  0.2241 -0.0912 -0.1989
  729POPI   D2A 9862   8.889   1.100   6.584 -0.0764 -0.2923  0.0905
  729POPI   C3A 9863   8.962   1.024   7.075 -0.1612 -0.1560 -0.2752
  729POPI   C4A 9864   9.326   0.944   7.263 -0.1109 -0.0710  0.0317
  729POPI   C1B 9865   9.433   1.827   6.488 -0.1596  0.0244 -0.0541
  729POPI   C2B 9866   9.530   1.744   6.919  0.0396  0.1482 -0.2427
  729POPI   C3B 9867   9.404   1.826   7.325  0.0091  0.0578  0.0702
  729POPI   C4B 9868   9.393   2.156   7.644  0.0486  0.1290 -0.0029
  730POPI    C1 9869  14.847   1.621   5.854 -0.0350  0.1060 -0.1467
  730POPI    C2 9870  15.219   1.618   5.708 -0.0188  0.0316 -0.1046
  730POPI    C3 9871  14.921   1.449   5.501  0.0006 -0.0563 -0.0616
  730POPI   PO4 9872  14.832   1.877   5.939 -0.4448  0.0777 -0.3413
  730POPI   GL1 9873  14.647   2.220   6.184  0.0030 -0.1784  0.0297
  730POPI   GL2 9874  14.618   2.476   6.452  0.3056 -0.2198 -0.0818
  730POPI   C1A 9875  15.034   2.167   6.560 -0.0700  0.1368 -0.0123
  730POPI   D2A 9876  15.438   2.042   6.816 -0.0030  0.0167  0.0389
  730POPI   C3A 9877  15.837   2.300   6.825 -0.2311 -0.1500  0.1284
  730POPI   C4A 9878  16.061   2.447   6.546  0.1251  0.1598  0.2332
  730POPI   C1B 9879  14.586   2.249   6.798 -0.0887 -0.1655  0.0723
  730POPI   C2B 9880  14.363   2.119   7.231  0.1264  0.1892  0.1347
  730POPI   C3B 9881  14.528   2.200   7.636 -0.0777  0.0397  0.0382
  730POPI   C4B 9882  14.435   2.244   8.058  0.2981 -0.0563  0.1801
  731POPI    C1 9883   4.779   5.788   5.810  0.0432  0.0881  0.1360
  731POPI    C2 9884   4.942   6.152   5.774  0.0835  0.0492 -0.0890
  731POPI    C3 9885   5.045   5.860   5.520 -0.2507 -0.0075 -0.1641
  731POPI   PO4 9886   4.892   5.609   6.007 -0.0865 -0.0475  0.0952
  731POPI   GL1 9887   4.816   5.533   6.423  0.1328  0.0533 -0.1725
  731POPI   GL2 9888   4.552   5.787   6.519  0.3593 -0.0779  0.1462
  731POPI   C1A 9889   5.049   5.709   6.730  0.0685  0.0612  0.1348
  731POPI   D2A 9890   5.020   6.056   7.039  0.1066  0.0191 -0.1576
  731POPI   C3A 9891   5.128   6.139   7.410  0.1454 -0.1176  0.0202
  731POPI   C4A 9892   5.315   6.351   7.773 -0.0766  0.1285  0.1989
  731POPI   C1B 9893   4.619   5.747   6.924 -0.0136 -0.0324 -0.2271
  731POPI   C2B 9894   4.704   5.881   7.366  0.5152 -0.0073  0.0444
  731POPI   C3B 9895   4.734   6.019   7.706 -0.1418 -0.1985 -0.0314
  731POPI   C4B 9896   4.547   6.013   8.156 -0.2700 -0.0652 -0.2839
  732POPI    C1 9897   9.858   8.145   5.924 -0.2175 -0.1531  0.1214
  732POPI    C2 9898   9.981   7.991   5.576  0.0968  0.1044  0.1129
  732POPI    C3 9899   9.877   8.377   5.599 -0.3709 -0.0203  0.2055
  732POPI   PO4 9900   9.973   8.079   6.091  0.1602 -0.0831 -0.0596
  732POPI   GL1 9901  10.074   7.915   6.511 -0.2434 -0.0170 -0.1754
  732POPI   GL2 9902   9.887   7.653   6.416  0.2111 -0.0432  0.1564
  732POPI   C1A 9903  10.174   8.033   6.930  0.2691  0.1089 -0.0639
  732POPI   D2A 9904  10.389   7.990   7.375  0.0419 -0.0040 -0.1399
  732POPI   C3A 9905  10.195   7.720   7.630  0.2007 -0.1730  0.0846
  732POPI   C4A 9906  10.156   7.343   7.797 -0.1005  0.1710 -0.1249
  732POPI   C1B 9907   9.909   7.625   6.866  0.1072  0.3291  0.0464
  732POPI   C2B 9908   9.810   7.447   7.297  0.0469 -0.0450 -0.1293
  732POPI   C3B 9909   9.698   7.407   7.680 -0.0171  0.0249  0.2785
  732POPI   C4B 9910   9.926   7.685   8.064 -0.5974  0.1302 -0.2499
  733POPI    C1 9911  17.760   9.426   6.405 -0.2459  0.1324 -0.0583
  733POPI    C2 9912  17.890   9.361   6.033 -0.1178 -0.1490  0.0324
  733POPI    C3 9913  17.528   9.520   6.094 -0.0199  0.1807 -0.2147
  733POPI   PO4 9914  17.913   9.177   6.507 -0.1690 -0.4187  0.0110
  733POPI   GL1 9915  18.151   9.115   6.887  0.0485 -0.1513 -0.2184
  733POPI   GL2 9916  18.149   8.808   6.899  0.0529  0.2738 -0.2925
  733POPI   C1A 9917  17.976   9.353   7.193 -0.2338  0.2471  0.1124
  733POPI   D2A 9918  17.710   9.248   7.571  0.1725 -0.0370 -0.0084
  733POPI   C3A 9919  17.578   9.227   7.992 -0.2207 -0.0025 -0.3043
  733POPI   C4A 9920  17.552   8.969   8.322  0.0262 -0.0278  0.0755
  733POPI   C1B 9921  18.241   8.894   7.324  0.1427  0.3970 -0.0739
  733POPI   C2B 9922  18.222   9.170   7.607  0.0992  0.1950  0.2854
  733POPI   C3B 9923  18.048   9.082   8.023 -0.2150  0.2365 -0.1910
  733POPI   C4B 9924  17.926   8.722   8.178  0.0929  0.0989 -0.0536
  734POPI    C1 9925   8.577   4.761   5.389  0.1569  0.0412 -0.2251
  734POPI    C2 9926   8.949   4.764   5.537  0.1016 -0.1434 -0.0800
  734POPI    C3 9927   8.700   5.067   5.616  0.1903 -0.0654 -0.0986
  734POPI   PO4 9928   8.518   4.468   5.466 -0.0615 -0.2371 -0.3176
  734POPI   GL1 9929   8.218   4.332   5.923  0.0739  0.3583 -0.2368
  734POPI   GL2 9930   8.532   4.092   6.007 -0.0022  0.7826 -0.1843
  734POPI   C1A 9931   8.120   4.322   6.361 -0.2153  0.0739 -0.2495
  734POPI   D2A 9932   8.054   4.296   6.759  0.2694 -0.1809  0.2421
  734POPI   C3A 9933   7.995   4.041   7.126 -0.1326  0.3276  0.0121
  734POPI   C4A 9934   8.108   3.930   7.567 -0.1245  0.0332 -0.2863
  734POPI   C1B 9935   8.595   4.244   6.462  0.0692  0.0790 -0.1412
  734POPI   C2B 9936   8.531   4.172   6.881  0.1331  0.0900  0.1199
  734POPI   C3B 9937   8.654   4.025   7.315 -0.1992  0.0430 -0.0291
  734POPI   C4B 9938   8.590   3.760   7.664  0.0688 -0.0662  0.1435
  735POPI    C1 9939  12.166   8.976   6.285 -0.3534  0.1926  0.1281
  735POPI    C2 9940  12.108   8.713   5.989 -0.0995  0.0876  0.1695
  735POPI    C3 9941  12.284   9.064   5.913 -0.2928  0.1803  0.1443
  735POPI   PO4 9942  12.220   8.749   6.474  0.2779  0.0114 -0.3340
  735POPI   GL1 9943  12.235   8.589   6.779  0.4915 -0.1098  0.1511
  735POPI   GL2 9944  12.296   8.268   6.688 -0.1915 -0.3330  0.0785
  735POPI   C1A 9945  12.107   8.394   7.140 -0.0332 -0.0862 -0.0325
  735POPI   D2A 9946  12.178   8.385   7.601  0.0336  0.0125  0.1213
  735POPI   C3A 9947  11.852   8.441   7.827  0.0048  0.3049  0.2407
  735POPI   C4A 9948  11.326   8.412   7.855 -0.2032  0.0950  0.0138
  735POPI   C1B 9949  12.627   8.243   6.960  0.1967 -0.0500 -0.0225
  735POPI   C2B 9950  12.634   8.296   7.407  0.2953 -0.0155  0.3383
  735POPI   C3B 9951  12.667   8.377   7.876  0.0806 -0.4390  0.0792
  735POPI   C4B 9952  12.779   8.343   8.281 -0.0706 -0.0773 -0.0961
  736POPI    C1 9953   0.668  12.492   5.825  0.0885  0.0098 -0.1848
  736POPI    C2 9954   0.374  12.732   5.950  0.1241 -0.1109  0.1385
  736POPI    C3 9955   0.396  12.627   5.565 -0.1864 -0.0061  0.0896
  736POPI   PO4 9956   0.626  12.266   6.033  0.2494 -0.2387 -0.7321
  736POPI   GL1 9957   1.042  12.186   6.333 -0.0164  0.1614  0.0553
  736POPI   GL2 9958   1.032  12.520   6.498  0.0410 -0.1583 -0.3241
  736POPI   C1A 9959   1.070  12.004   6.667 -0.2276 -0.1569  0.1528
  736POPI   D2A 9960   1.155  12.139   7.062 -0.2089 -0.0947  0.1081
  736POPI   C3A 9961   1.082  11.880   7.421  0.0209  0.1616  0.4463
  736POPI   C4A 9962   0.847  11.884   7.726  0.0908  0.1206 -0.2098
  736POPI   C1B 9963   1.200  12.727   6.890 -0.2455  0.1183  0.1961
  736POPI   C2B 9964   1.253  12.809   7.222  0.1185 -0.2479 -0.1686
  736POPI   C3B 9965   1.336  12.448   7.441 -0.1698 -0.0479 -0.0571
  736POPI   C4B 9966   1.051  12.291   7.824  0.1144 -0.1281  0.0743
  737POPI    C1 9967  10.822   2.015   5.624 -0.4169 -0.1542 -0.1183
  737POPI    C2 9968  10.721   1.837   5.281 -0.0166 -0.3244 -0.1538
  737POPI    C3 9969  11.077   1.762   5.447 -0.0987 -0.0374  0.1618
  737POPI   PO4 9970  10.600   1.897   5.829 -0.0738  0.0630 -0.0376
  737POPI   GL1 9971  10.564   1.919   6.222  0.1989 -0.0868  0.0612
  737POPI   GL2 9972  10.459   2.128   6.345  0.0849 -0.0042  0.0853
  737POPI   C1A 9973  10.552   1.693   6.667  0.1281 -0.2669  0.0871
  737POPI   D2A 9974  10.530   1.580   7.100  0.2662 -0.0001 -0.1411
  737POPI   C3A 9975  10.560   1.575   7.405 -0.0205  0.0895  0.0066
  737POPI   C4A 9976  10.373   1.628   7.747 -0.0677 -0.1143 -0.2575
  737POPI   C1B 9977  10.636   2.273   6.643 -0.1220  0.2236 -0.0629
  737POPI   C2B 9978  10.604   2.120   7.016  0.1249 -0.1853  0.0659
  737POPI   C3B 9979  10.548   2.031   7.504 -0.0661  0.0008  0.0292
  737POPI   C4B 9980  10.511   2.372   7.836 -0.0811  0.2050 -0.1228
  738POPI    C1 9981   9.443   4.418   5.707  0.0891  0.0043 -0.0421
  738POPI    C2 9982   9.309   4.047   5.641 -0.0700  0.0442  0.0496
  738POPI    C3 9983   9.600   4.199   5.412  0.1379 -0.2098  0.1406
  738POPI   PO4 9984   9.512   4.431   5.967 -0.1761 -0.2127  0.0588
  738POPI   GL1 9985   9.152   4.256   6.247  0.1538 -0.1291  0.1328
  738POPI   GL2 9986   8.978   4.380   5.887  0.2101  0.1601 -0.1921
  738POPI   C1A 9987   9.103   4.158   6.803  0.1533  0.2352  0.2996
  738POPI   D2A 9988   9.199   4.271   7.215 -0.0114 -0.1064 -0.1348
  738POPI   C3A 9989   9.017   4.260   7.582  0.1229 -0.0479 -0.1148
  738POPI   C4A 9990   8.599   4.415   7.800  0.2172  0.2113 -0.1172
  738POPI   C1B 9991   8.562   4.605   6.126  0.0160 -0.2428  0.1681
  738POPI   C2B 9992   8.368   4.666   6.590 -0.2550 -0.1801 -0.0268
  738POPI   C3B 9993   8.313   4.614   7.031  0.0891  0.0725 -0.0190
  738POPI   C4B 9994   8.307   4.422   7.311 -0.0656  0.3871 -0.1519
  739POPI    C1 9995  17.461  12.709   6.396 -0.0397  0.0036  0.1814
  739POPI    C2 9996  17.803  12.677   6.193 -0.1408 -0.0248  0.0136
  739POPI    C3 9997  17.493  12.442   6.101 -0.3123  0.2236 -0.0537
  739POPI   PO4 9998  17.568  12.809   6.666  0.0349 -0.1360 -0.0429
  739POPI   GL1 9999  17.627  12.600   6.950  0.2160 -0.1237  0.1756
  739POPI   GL210000  17.377  12.282   6.900  0.1071  0.3037 -0.2267
  739POPI   C1A10001  17.735  12.638   7.308 -0.0479 -0.0157 -0.0079
  739POPI   D2A10002  18.032  12.478   7.532  0.2052  0.1134 -0.0889
  739POPI   C3A10003  18.082  12.427   7.974  0.1715  0.0047 -0.0629
  739POPI   C4A10004  18.561  12.312   8.210  0.0120  0.1625  0.2609
  739POPI   C1B10005  17.180  12.281   7.275 -0.2400  0.0446 -0.1506
  739POPI   C2B10006  17.280  12.610   7.452 -0.3950 -0.0896 -0.1601
  739POPI   C3B10007  17.554  12.628   7.809 -0.2152  0.0974 -0.1504
  739POPI   C4B10008  17.669  12.588   8.237 -0.4378 -0.0205  0.1053
  740POPI    C110009   2.050   8.349   5.907  0.0182  0.2197  0.1635
  740POPI    C210010   2.063   8.265   5.516  0.0630  0.2195  0.1649
  740POPI    C310011   1.765   8.487   5.664 -0.1933 -0.1389  0.2004
  740POPI   PO410012   2.093   8.132   6.045  0.2142  0.0420  0.0399
  740POPI   GL110013   2.222   7.875   6.471  0.0492 -0.0472  0.1706
  740POPI   GL210014   2.399   8.042   6.478  0.0208  0.0781 -0.2416
  740POPI   C1A10015   1.879   7.689   6.747  0.1205  0.1420  0.1153
  740POPI   D2A10016   1.723   7.567   7.123  0.1001 -0.0027 -0.2248
  740POPI   C3A10017   1.879   7.462   7.388  0.1496  0.1353  0.1447
  740POPI   C4A10018   2.053   7.541   7.774 -0.1037 -0.2941  0.2152
  740POPI   C1B10019   2.397   8.134   6.920 -0.1670 -0.2928 -0.2069
  740POPI   C2B10020   2.345   8.319   7.313 -0.2121  0.1738  0.2261
  740POPI   C3B10021   2.141   8.561   7.647 -0.2572 -0.0592  0.2254
  740POPI   C4B10022   1.990   8.572   8.061  0.1469 -0.2960  0.0812
  741POPI    C110023  12.930   0.276   5.994 -0.0501  0.0095 -0.2588
  741POPI    C210024  12.643   0.553   5.960 -0.2496 -0.1437  0.1154
  741POPI    C310025  12.905   0.498   5.662 -0.2610  0.3819 -0.0010
  741POPI   PO410026  13.047   0.381   6.245  0.0314 -0.1225 -0.1301
  741POPI   GL110027  12.971   0.234   6.630 -0.1904  0.2488 -0.2656
  741POPI   GL210028  13.222   0.305   6.802  0.1510 -0.1160 -0.0505
  741POPI   C1A10029  12.849   0.163   7.105 -0.2667 -0.3217 -0.2117
  741POPI   D2A10030  12.782   0.249   7.499 -0.2541  0.1039 -0.1444
  741POPI   C3A10031  12.935   0.056   7.873 -0.1262  0.0609 -0.0453
  741POPI   C4A10032  12.827  -0.109   8.243 -0.0960 -0.1675  0.4047
  741POPI   C1B10033  13.047   0.622   7.117 -0.0427 -0.4106 -0.0805
  741POPI   C2B10034  12.962   0.664   7.663  0.1124  0.0016 -0.0894
  741POPI   C3B10035  12.711   0.566   8.010  0.2917 -0.2517  0.1172
  741POPI   C4B10036  12.412   0.233   7.878 -0.1150 -0.2500  0.0419
  742POPS   CNO10037   2.382   1.982   5.959  0.1307  0.0469  0.1175
  742POPS   PO410038   2.683   1.711   6.137 -0.1472 -0.3325 -0.1227
  742POPS   GL110039   2.817   1.455   6.592  0.3980  0.1952 -0.1148
  742POPS   GL210040   2.595   1.326   6.757  0.0278  0.1983 -0.1163
  742POPS   C1A10041   2.951   1.539   7.053 -0.3371 -0.0731  0.0789
  742POPS   D2A10042   2.796   1.520   7.548 -0.0197  0.0495 -0.0119
  742POPS   C3A10043   3.009   1.879   7.781 -0.0754  0.1730 -0.0169
  742POPS   C4A10044   2.958   2.197   8.025  0.2118 -0.0390 -0.1526
  742POPS   C1B10045   2.509   1.310   7.195 -0.0332 -0.0933 -0.4100
  742POPS   C2B10046   2.427   1.209   7.574  0.0281  0.2625 -0.1940
  742POPS   C3B10047   2.416   1.198   7.997  0.2203 -0.1607  0.0065
  742POPS   C4B10048   2.425   0.990   8.464 -0.1627 -0.1182  0.3013
  743POPS   CNO10049  10.125  15.451   5.446  0.1258  0.1111  0.1264
  743POPS   PO410050  10.003  15.436   5.861  0.5736 -0.0407  0.1503
  743POPS   GL110051   9.954  15.636   6.217  0.2370  0.1586  0.1692
  743POPS   GL210052   9.859  15.350   6.494 -0.1971  0.2368  0.2302
  743POPS   C1A10053   9.653  15.841   6.588  0.0007  0.0681  0.1754
  743POPS   D2A10054   9.542  15.907   7.007 -0.0563  0.0083  0.1665
  743POPS   C3A10055   9.771  15.676   7.271  0.2093 -0.2798 -0.1355
  743POPS   C4A10056  10.090  15.618   7.515 -0.3417  0.1158 -0.0896
  743POPS   C1B10057   9.966  15.436   6.869 -0.0869 -0.0537 -0.0578
  743POPS   C2B10058  10.328  15.543   6.977 -0.0101  0.0534 -0.1100
  743POPS   C3B10059  10.655  15.775   7.255 -0.1973  0.0912 -0.0811
  743POPS   C4B10060  10.595  15.512   7.547 -0.0929 -0.3313  0.3621
  744POPS   CNO10061   0.999  10.149   5.551  0.2114  0.1322 -0.0243
  744POPS   PO410062   0.887   9.832   5.866  0.0182 -0.0599  0.1327
  744POPS   GL110063   1.168   9.762   6.219 -0.0325 -0.0185 -0.0864
  744POPS   GL210064   1.364   9.937   6.272  0.0732  0.0840  0.2008
  744POPS   C1A10065   1.047   9.663   6.640 -0.1301 -0.0117 -0.1047
  744POPS   D2A10066   1.004  10.001   6.987  0.1073  0.0699 -0.0744
  744POPS   C3A10067   1.105   9.924   7.387 -0.2103  0.1949 -0.1937
  744POPS   C4A10068   1.107   9.768   7.758  0.2530  0.1606 -0.0182
  744POPS   C1B10069   1.188  10.244   6.612 -0.2644 -0.1717  0.0360
  744POPS   C2B10070   1.270  10.395   7.088  0.0748 -0.0196 -0.0903
  744POPS   C3B10071   1.366  10.607   7.485  0.1400 -0.3302 -0.3198
  744POPS   C4B10072   1.545  10.352   7.790  0.2366  0.0793  0.1613
  745POPS   CNO10073   0.371  17.238   6.466 -0.1243  0.0135 -0.1033
  745POPS   PO410074   0.025  17.562   6.692  0.1022 -0.0400  0.1229
  745POPS   GL110075   0.040  17.614   7.155  0.1425  0.0767  0.0319
  745POPS   GL210076   0.213  17.293   7.131  0.2084  0.2042  0.0151
  745POPS   C1A10077   0.049  17.868   7.526  0.2144  0.0718  0.1039
  745POPS   D2A10078  -0.155  18.068   7.763  0.0658 -0.3797 -0.1870
  745POPS   C3A10079  -0.493  18.162   7.533 -0.2173  0.0842  0.1445
  745POPS   C4A10080  -0.799  18.199   7.295 -0.0822  0.0409  0.3236
  745POPS   C1B10081   0.447  17.158   7.512 -0.1890 -0.0128  0.3926
  745POPS   C2B10082   0.261  17.125   7.946  0.0466 -0.0427  0.1439
  745POPS   C3B10083   0.257  17.093   8.337 -0.0023  0.0054 -0.0256
  745POPS   C4B10084   0.515  17.260   8.649 -0.0326 -0.0700  0.1120
  746POPS   CNO10085  14.328  10.616   6.031  0.0384 -0.1668  0.1423
  746POPS   PO410086  14.694  10.894   6.041 -0.3307  0.0479  0.0398
  746POPS   GL110087  14.757  11.004   6.500  0.2243 -0.1568 -0.2383
  746POPS   GL210088  14.670  11.301   6.637 -0.1746  0.1138  0.2034
  746POPS   C1A10089  15.082  11.106   6.848  0.4593  0.0027  0.1131
  746POPS   D2A10090  15.290  11.500   7.081 -0.1646 -0.0698 -0.0064
  746POPS   C3A10091  15.470  11.435   7.483 -0.0258  0.1600  0.2300
  746POPS   C4A10092  15.498  11.087   7.718  0.1616 -0.3408 -0.0242
  746POPS   C1B10093  14.828  11.633   6.940 -0.1850 -0.1384 -0.2300
  746POPS   C2B10094  14.896  11.646   7.384 -0.1554  0.1388  0.0161
  746POPS   C3B10095  14.977  11.721   7.843 -0.1907 -0.0442 -0.2284
  746POPS   C4B10096  14.578  11.712   8.146  0.0239  0.2765 -0.1075
  747POPS   CNO10097   2.841  12.103   6.066  0.1402 -0.3460 -0.0178
  747POPS   PO410098   3.029  12.429   5.930  0.1790 -0.0304  0.0319
  747POPS   GL110099   3.288  12.098   6.269 -0.1402 -0.0115 -0.1849
  747POPS   GL210100   3.133  12.324   6.442  0.4262  0.0418  0.0931
  747POPS   C1A10101   3.369  11.937   6.651 -0.3730  0.0678  0.1709
  747POPS   D2A10102   3.580  11.975   7.057  0.1579  0.2956 -0.0151
  747POPS   C3A10103   3.945  11.904   7.170  0.2397 -0.0231  0.2956
  747POPS   C4A10104   4.028  11.549   7.478  0.2202 -0.0089  0.0275
  747POPS   C1B10105   3.240  12.457   6.938 -0.1940 -0.0887  0.1892
  747POPS   C2B10106   3.085  12.415   7.439  0.0585  0.0131 -0.0335
  747POPS   C3B10107   2.866  12.205   7.704  0.1332 -0.0961 -0.0033
  747POPS   C4B10108   2.910  11.920   8.081  0.2087  0.1566 -0.1604
  748POPS   CNO10109   9.609   9.347   6.008 -0.1520  0.1408  0.0575
  748POPS   PO410110   9.352   9.211   6.281 -0.1560  0.0058  0.1095
  748POPS   GL110111   9.311   9.202   6.731 -0.2577  0.0038  0.0074
  748POPS   GL210112   9.099   8.961   6.796 -0.0003 -0.1231  0.1830
  748POPS   C1A10113   9.653   9.299   6.909  0.1980  0.3109 -0.1666
  748POPS   D2A10114   9.804   9.336   7.281 -0.1218  0.1387 -0.0601
  748POPS   C3A10115   9.571   9.191   7.653  0.0297 -0.1006  0.3069
  748POPS   C4A10116   9.313   9.125   8.069  0.0818  0.0222 -0.2516
  748POPS   C1B10117   8.933   8.895   7.223  0.1616  0.3903 -0.2134
  748POPS   C2B10118   9.085   9.067   7.617  0.0228  0.1920  0.0611
  748POPS   C3B10119   9.214   9.513   7.842 -0.2119 -0.1634  0.2755
  748POPS   C4B10120   9.608   9.709   7.824  0.1140  0.1142  0.0037
  749POPS   CNO10121  17.197  15.538   6.009 -0.1963  0.2768 -0.0704
  749POPS   PO410122  17.178  15.838   6.410  0.6982 -0.1861 -0.1437
  749POPS   GL110123  17.090  15.815   6.891 -0.1287 -0.1154  0.0348
  749POPS   GL210124  17.183  15.548   6.937 -0.1159 -0.1145  0.3025
  749POPS   C1A10125  17.003  15.815   7.384 -0.1401  0.0515  0.2680
  749POPS   D2A10126  16.904  15.681   7.848 -0.0560 -0.3411  0.1196
  749POPS   C3A10127  16.596  15.920   8.164 -0.1220 -0.4192  0.0267
  749POPS   C4A10128  16.222  15.724   8.338  0.1183 -0.0251  0.3378
  749POPS   C1B10129  17.364  15.414   7.348  0.4651 -0.2481  0.0374
  749POPS   C2B10130  17.336  15.256   7.653 -0.1986  0.1350  0.0297
  749POPS   C3B10131  17.219  15.236   7.951 -0.0060  0.1854 -0.3178
  749POPS   C4B10132  17.317  15.266   8.409  0.0205 -0.1201 -0.1128
  750POPS   CNO10133   5.490  16.132   6.495  0.0389  0.1698 -0.1291
  750POPS   PO410134   5.309  15.811   6.319  0.0118  0.2618  0.0252
  750POPS   GL110135   5.507  15.616   6.785  0.1189  0.0630 -0.1825
  750POPS   GL210136   5.656  15.911   6.982  0.1946 -0.0799 -0.1158
  750POPS   C1A10137   5.666  15.351   7.170  0.1726  0.0153  0.1049
  750POPS   D2A10138   5.783  15.668   7.457  0.5426  0.1840  0.1322
  750POPS   C3A10139   5.823  15.600   7.879  0.0467  0.2341 -0.0549
  750POPS   C4A10140   5.957  15.583   8.322  0.0209 -0.3532 -0.1126
  750POPS   C1B10141   5.581  16.197   7.249  0.0193  0.0671 -0.1351
  750POPS   C2B10142   5.464  16.094   7.639  0.2518  0.1225  0.0500
  750POPS   C3B10143   5.713  16.078   8.004 -0.1265  0.0104 -0.2188
  750POPS   C4B10144   5.638  15.969   8.414  0.2769 -0.0051 -0.0491
  751POPS   CNO10145   7.637   6.686   6.096  0.1102  0.1228  0.1037
  751POPS   PO410146   7.590   6.358   5.902  0.2671  0.2886  0.3319
  751POPS   GL110147   7.541   6.062   6.203 -0.1939  0.0480  0.1633
  751POPS   GL210148   7.766   6.217   6.428 -0.4208 -0.0313  0.2479
  751POPS   C1A10149   7.280   5.862   6.519  0.0426 -0.0877  0.0828
  751POPS   D2A10150   7.181   5.724   6.977  0.4587 -0.2607 -0.1919
  751POPS   C3A10151   7.169   5.700   7.357  0.0799 -0.0680  0.2948
  751POPS   C4A10152   7.457   5.921   7.628 -0.0545  0.0360 -0.3052
  751POPS   C1B10153   7.543   6.177   6.841  0.0004  0.1025  0.3128
  751POPS   C2B10154   7.418   6.167   7.175 -0.1939 -0.1930  0.3243
  751POPS   C3B10155   7.530   6.445   7.493 -0.0775  0.0877 -0.1241
  751POPS   C4B10156   7.650   6.544   7.940 -0.0920 -0.1768 -0.2156
  752POPS   CNO10157  15.105  11.617   6.561 -0.0568 -0.3677  0.0010
  752POPS   PO410158  15.385  12.004   6.424 -0.2526  0.0612 -0.0340
  752POPS   GL110159  15.167  12.050   6.879 -0.1914  0.0803  0.1540
  752POPS   GL210160  15.291  12.044   7.153  0.0521  0.0283  0.0017
  752POPS   C1A10161  14.773  12.085   7.132  0.2190 -0.1202 -0.2607
  752POPS   D2A10162  14.740  12.157   7.539  0.0309  0.2910  0.1483
  752POPS   C3A10163  14.387  12.077   7.879  0.0816 -0.0071 -0.0691
  752POPS   C4A10164  14.136  11.919   8.274  0.0438  0.0930 -0.1013
  752POPS   C1B10165  15.360  11.981   7.498 -0.2922  0.0893  0.2286
  752POPS   C2B10166  15.142  12.184   7.873  0.1382 -0.2072  0.0425
  752POPS   C3B10167  14.825  12.506   7.932  0.1409  0.0900  0.1159
  752POPS   C4B10168  14.421  12.547   8.119  0.0492 -0.2258 -0.1356
  753POPS   CNO10169   9.998   5.455   5.764  0.2402 -0.4143  0.3851
  753POPS   PO410170  10.309   5.456   5.945  0.1269 -0.1122  0.1098
  753POPS   GL110171  10.276   5.677   6.351 -0.2751  0.1996 -0.1847
  753POPS   GL210172  10.547   5.910   6.444 -0.1885 -0.2968 -0.1737
  753POPS   C1A10173  10.043   5.667   6.753  0.0394 -0.0391 -0.0847
  753POPS   D2A10174   9.839   5.683   7.082  0.0454  0.3650 -0.2576
  753POPS   C3A10175   9.692   5.600   7.478 -0.2004 -0.1111 -0.0547
  753POPS   C4A10176   9.602   5.560   7.862  0.0408 -0.0731  0.0626
  753POPS   C1B10177  10.831   5.843   6.919 -0.4121 -0.1645  0.2891
  753POPS   C2B10178  10.881   5.642   7.269  0.2018 -0.0074  0.1274
  753POPS   C3B10179  10.794   5.510   7.664  0.2480 -0.0415  0.0609
  753POPS   C4B10180  10.620   5.337   8.083 -0.0458  0.2000 -0.0610
  754POPS   CNO10181  10.845   8.430   6.326  0.1649  0.1092 -0.1117
  754POPS   PO410182  11.214   8.608   6.438  0.2725  0.2195  0.1203
  754POPS   GL110183  11.150   8.577   6.785  0.0116  0.4284  0.1669
  754POPS   GL210184  11.174   8.242   6.961 -0.1694  0.0391 -0.0435
  754POPS   C1A10185  11.060   8.698   7.142  0.2045 -0.1234  0.0208
  754POPS   D2A10186  11.129   8.669   7.423 -0.2814 -0.1569  0.3415
  754POPS   C3A10187  11.006   8.920   7.786 -0.1142  0.0761  0.1815
  754POPS   C4A10188  10.841   9.292   7.948 -0.1165 -0.0633  0.0546
  754POPS   C1B10189  11.196   8.159   7.414  0.1986 -0.0770 -0.2139
  754POPS   C2B10190  11.095   7.981   7.792  0.1982 -0.0177 -0.1443
  754POPS   C3B10191  10.912   7.881   8.240  0.1463 -0.0945  0.1301
  754POPS   C4B10192  10.699   7.771   8.601  0.0285  0.3907 -0.0627
  755POPS   CNO10193   6.987  14.146   5.953 -0.1313  0.3547 -0.0908
  755POPS   PO410194   7.178  14.522   5.903  0.1343  0.2290  0.1003
  755POPS   GL110195   7.201  14.481   6.337 -0.1262  0.0709 -0.1511
  755POPS   GL210196   6.992  14.848   6.265  0.2295 -0.0545  0.1149
  755POPS   C1A10197   7.307  14.413   6.728  0.0711  0.0296  0.1815
  755POPS   D2A10198   7.286  14.378   7.224  0.1257 -0.1083  0.1692
  755POPS   C3A10199   7.185  14.641   7.531 -0.0058  0.0588  0.0035
  755POPS   C4A10200   7.459  14.964   7.869 -0.1487  0.0551  0.2174
  755POPS   C1B10201   6.826  14.738   6.684 -0.0466  0.2578  0.2817
  755POPS   C2B10202   6.865  14.609   7.121  0.1815  0.0305 -0.1431
  755POPS   C3B10203   6.711  14.557   7.575  0.0589 -0.1502  0.2021
  755POPS   C4B10204   6.971  14.522   7.989  0.0239  0.0136  0.1094
  756POPS   CNO10205   1.557  10.693   5.388 -0.0741  0.2172 -0.0003
  756POPS   PO410206   1.535  10.939   5.815 -0.0583  0.3101 -0.1763
  756POPS   GL110207   1.545  10.774   6.229  0.2248 -0.2876  0.4501
  756POPS   GL210208   1.344  10.748   6.487  0.0526  0.0117 -0.2297
  756POPS   C1A10209   1.643  10.377   6.350 -0.0578  0.0624  0.3544
  756POPS   D2A10210   1.983  10.083   6.458  0.3277  0.2631  0.1089
  756POPS   C3A10211   2.222  10.206   6.715 -0.0821 -0.2818 -0.5183
  756POPS   C4A10212   2.316  10.105   7.143  0.0013  0.0349  0.0059
  756POPS   C1B10213   1.352  10.883   6.969  0.2141 -0.4051  0.1240
  756POPS   C2B10214   1.445  11.081   7.405  0.0794 -0.1351 -0.0238
  756POPS   C3B10215   1.233  11.369   7.642 -0.0716  0.2149 -0.1708
  756POPS   C4B10216   0.938  11.298   7.900  0.2525 -0.0147 -0.3713
  757POPS   CNO10217   2.602  14.879   6.039 -0.1722  0.2196  0.2357
  757POPS   PO410218   2.355  14.953   6.332 -0.3892  0.1080 -0.1572
  757POPS   GL110219   2.587  14.831   6.689 -0.0550  0.0758  0.0135
  757POPS   GL210220   2.852  15.022   6.835  0.1488  0.1513  0.1607
  757POPS   C1A10221   2.460  14.759   7.069  0.1053  0.2119  0.2253
  757POPS   D2A10222   2.530  14.709   7.505  0.3328  0.0473 -0.0656
  757POPS   C3A10223   2.422  14.565   7.871 -0.0014 -0.3307 -0.2327
  757POPS   C4A10224   2.654  14.747   8.254 -0.1596  0.0420 -0.0588
  757POPS   C1B10225   2.876  15.040   7.327 -0.1337  0.1227  0.1113
  757POPS   C2B10226   2.951  15.256   7.718 -0.2251  0.1675  0.1716
  757POPS   C3B10227   2.999  15.463   8.055 -0.0441 -0.1990 -0.0106
  757POPS   C4B10228   2.964  15.323   8.478  0.0679 -0.0414  0.1010
  758POPS   CNO10229  15.269   7.292   5.961  0.2049  0.3973  0.0685
  758POPS   PO410230  15.421   6.836   6.099 -0.1163 -0.1084  0.3009
  758POPS   GL110231  15.577   7.152   6.452 -0.2528  0.1457  0.0715
  758POPS   GL210232  15.256   7.235   6.459 -0.2282 -0.3539 -0.1018
  758POPS   C1A10233  15.826   7.316   6.732 -0.2546  0.0892 -0.2900
  758POPS   D2A10234  16.297   7.235   6.790 -0.0267  0.0083  0.0291
  758POPS   C3A10235  16.655   7.261   6.912 -0.2562 -0.3146 -0.2070
  758POPS   C4A10236  17.053   7.593   6.906 -0.1640  0.1362  0.1377
  758POPS   C1B10237  15.390   7.056   6.862  0.0984 -0.3929  0.0902
  758POPS   C2B10238  15.551   7.208   7.286 -0.1258  0.0943  0.0864
  758POPS   C3B10239  15.880   7.322   7.601  0.4344  0.2329 -0.0609
  758POPS   C4B10240  16.013   7.472   7.965  0.1001 -0.0941  0.1739
  759POPS   CNO10241  13.991   5.918   6.156  0.0949 -0.0622  0.2454
  759POPS   PO410242  13.940   5.466   6.245  0.0372 -0.1426  0.2744
  759POPS   GL110243  13.844   5.757   6.595 -0.4550  0.1749  0.0884
  759POPS   GL210244  13.482   5.812   6.462 -0.0301 -0.0974  0.0747
  759POPS   C1A10245  13.942   5.680   6.960  0.2694  0.0957  0.2775
  759POPS   D2A10246  14.072   5.738   7.384  0.1582 -0.1354 -0.1036
  759POPS   C3A10247  14.200   6.058   7.719 -0.0683  0.0549  0.1808
  759POPS   C4A10248  14.175   6.262   8.167  0.0920  0.1472  0.5106
  759POPS   C1B10249  13.191   5.902   6.891 -0.0574  0.0384  0.0808
  759POPS   C2B10250  13.018   5.808   7.339 -0.0260  0.2519  0.2587
  759POPS   C3B10251  13.138   5.699   7.722  0.0236 -0.0632  0.0035
  759POPS   C4B10252  13.393   5.749   8.166  0.1041  0.0198 -0.2058
  760POPS   CNO10253   8.700  14.860   6.258 -0.1997 -0.0140 -0.0393
  760POPS   PO410254   9.075  14.782   6.048  0.0114  0.1911  0.1046
  760POPS   GL110255   9.193  14.948   6.470 -0.1457 -0.3108  0.4084
  760POPS   GL210256   8.976  15.091   6.569  0.0590 -0.1046  0.3350
  760POPS   C1A10257   9.236  14.931   6.932  0.2789  0.2927  0.3401
  760POPS   D2A10258   9.390  14.654   7.155  0.0494  0.1002  0.0622
  760POPS   C3A10259   9.358  14.928   7.495  0.0662 -0.2108  0.0258
  760POPS   C4A10260   9.606  14.980   7.918 -0.2130 -0.0145 -0.1400
  760POPS   C1B10261   8.680  14.976   6.831  0.0385  0.1979 -0.0197
  760POPS   C2B10262   8.479  15.059   7.222 -0.2104  0.0267  0.2766
  760POPS   C3B10263   8.067  15.102   7.361  0.0670 -0.1568 -0.3539
  760POPS   C4B10264   7.927  15.180   7.754 -0.2677 -0.0801 -0.1175
  761POPS   CNO10265   8.130  17.765   5.487 -0.3198 -0.0569 -0.0093
  761POPS   PO410266   7.695  17.584   5.592  0.1885 -0.1279 -0.1712
  761POPS   GL110267   7.907  17.539   5.920  0.0744  0.0955 -0.1627
  761POPS   GL210268   7.752  17.432   6.203 -0.3459  0.2324  0.1169
  761POPS   C1A10269   8.223  17.297   6.241 -0.2280 -0.1038  0.0392
  761POPS   D2A10270   8.511  16.955   6.255 -0.0779  0.0168 -0.1729
  761POPS   C3A10271   8.723  16.712   6.635  0.2319 -0.1146  0.0628
  761POPS   C4A10272   9.028  16.457   6.702 -0.0931 -0.0547  0.0536
  761POPS   C1B10273   7.689  17.595   6.592  0.0193 -0.0507 -0.1729
  761POPS   C2B10274   7.579  17.767   6.934  0.1683  0.1703  0.1128
  761POPS   C3B10275   7.678  17.914   7.357 -0.1042 -0.2334 -0.2928
  761POPS   C4B10276   7.939  17.884   7.674 -0.1423 -0.1774  0.0237
  762POPS   CNO10277   2.356   4.863   5.660  0.0893 -0.1726  0.2273
  762POPS   PO410278   2.633   4.819   6.034  0.1819  0.1314 -0.0204
  762POPS   GL110279   2.824   4.774   6.432 -0.1160  0.2163  0.0007
  762POPS   GL210280   2.885   4.432   6.504  0.1642 -0.0586  0.0963
  762POPS   C1A10281   2.573   5.061   6.624  0.1939 -0.0994  0.2188
  762POPS   D2A10282   2.288   5.164   6.344  0.1249  0.1233 -0.1663
  762POPS   C3A10283   1.919   5.130   6.575  0.1329  0.0093  0.1351
  762POPS   C4A10284   1.755   5.423   6.892 -0.3501 -0.0642  0.1104
  762POPS   C1B10285   2.725   4.392   6.937 -0.0368 -0.2089 -0.2022
  762POPS   C2B10286   2.813   4.513   7.380  0.1088 -0.2981 -0.2121
  762POPS   C3B10287   2.561   4.505   7.714  0.1381 -0.0858  0.0319
  762POPS   C4B10288   2.227   4.382   8.032 -0.0040  0.1433 -0.0426
  763POPS   CNO10289   2.464  10.561   5.751 -0.1216 -0.0703 -0.0799
  763POPS   PO410290   2.412  10.878   6.018 -0.4576  0.0554  0.0867
  763POPS   GL110291   2.377  11.186   6.412 -0.1375 -0.2088 -0.1211
  763POPS   GL210292   2.604  11.441   6.460 -0.1808  0.2856 -0.1299
  763POPS   C1A10293   2.220  11.183   6.814  0.3541 -0.0008  0.0698
  763POPS   D2A10294   2.207  11.368   7.164 -0.0204  0.1465  0.0468
  763POPS   C3A10295   1.925  11.325   7.484  0.1039 -0.1453  0.2455
  763POPS   C4A10296   1.769  11.243   7.875 -0.0565  0.0504  0.0861
  763POPS   C1B10297   2.486  11.633   6.833 -0.1305 -0.2666 -0.1189
  763POPS   C2B10298   2.517  11.853   7.280  0.1056  0.0057  0.2923
  763POPS   C3B10299   2.153  11.876   7.484  0.3469 -0.0233 -0.1076
  763POPS   C4B10300   1.910  12.064   7.814 -0.1280 -0.0351  0.0385
  764POPS   CNO10301  13.452  17.649   5.846 -0.0801 -0.1485  0.0695
  764POPS   PO410302  13.851  17.642   6.124  0.1665 -0.0903 -0.1412
  764POPS   GL110303  13.976  17.748   6.514  0.1510  0.1257 -0.0266
  764POPS   GL210304  14.209  17.957   6.560 -0.1545 -0.0382  0.1222
  764POPS   C1A10305  13.817  17.771   6.831  0.2587 -0.0124 -0.2480
  764POPS   D2A10306  13.877  17.978   7.184 -0.2113 -0.1231 -0.2336
  764POPS   C3A10307  14.002  17.781   7.618 -0.0987  0.2185  0.2549
  764POPS   C4A10308  14.079  17.627   8.036  0.0059  0.1558 -0.0709
  764POPS   C1B10309  14.373  18.068   7.054 -0.0294  0.0231  0.2331
  764POPS   C2B10310  14.335  18.110   7.518  0.1144  0.0517 -0.1240
  764POPS   C3B10311  14.259  18.099   7.942 -0.2809  0.2065  0.3215
  764POPS   C4B10312  14.354  18.246   8.297  0.0909 -0.1440  0.2103
  765POPS   CNO10313   5.137   1.899   5.944 -0.3774 -0.5312  0.2333
  765POPS   PO410314   5.069   2.177   6.187 -0.0196  0.0879  0.0388
  765POPS   GL110315   5.141   2.349   6.472  0.1651 -0.0164  0.0619
  765POPS   GL210316   5.145   2.663   6.495  0.0911  0.2596  0.1074
  765POPS   C1A10317   5.118   2.330   6.895  0.1151 -0.0847 -0.0613
  765POPS   D2A10318   4.731   2.020   7.062 -0.1314 -0.1258 -0.0074
  765POPS   C3A10319   4.731   1.944   7.466  0.1658 -0.0467  0.0658
  765POPS   C4A10320   4.669   2.029   7.892  0.2777 -0.1714  0.0048
  765POPS   C1B10321   5.065   2.809   6.919 -0.2578 -0.0657 -0.1043
  765POPS   C2B10322   5.189   2.785   7.370 -0.0640 -0.1922 -0.1350
  765POPS   C3B10323   5.391   2.530   7.618  0.2371 -0.1987 -0.3983
  765POPS   C4B10324   5.597   2.044   7.608 -0.1082 -0.1610  0.2180
  766POPS   CNO10325   8.443   9.515   6.568 -0.4695  0.2033 -0.0791
  766POPS   PO410326   8.704   9.835   6.479 -0.0781 -0.0013 -0.5201
  766POPS   GL110327   8.888  10.045   6.809 -0.1452  0.0522  0.0115
  766POPS   GL210328   9.163  10.112   6.853  0.2653 -0.1106 -0.0839
  766POPS   C1A10329   8.688  10.223   7.115 -0.1143 -0.0852  0.0378
  766POPS   D2A10330   8.498  10.419   7.475 -0.2045 -0.1313 -0.1094
  766POPS   C3A10331   8.566  10.301   7.883  0.0757  0.1154  0.1305
  766POPS   C4A10332   8.645   9.998   8.133  0.3474  0.1199 -0.0634
  766POPS   C1B10333   9.018   9.892   7.279 -0.1260  0.2942  0.2521
  766POPS   C2B10334   8.888   9.928   7.694  0.2385  0.1981  0.1171
  766POPS   C3B10335   9.097   9.892   8.114 -0.0202  0.1249  0.1333
  766POPS   C4B10336   9.357  10.046   8.495  0.0211 -0.1123 -0.3233
  767POPS   CNO10337   0.656  15.255   6.127 -0.2330 -0.0319 -0.1079
  767POPS   PO410338   0.638  14.965   6.389 -0.1579  0.3850 -0.0345
  767POPS   GL110339   0.591  14.656   6.744 -0.0015  0.0735 -0.0640
  767POPS   GL210340   0.382  14.435   6.768  0.0657 -0.0156 -0.0123
  767POPS   C1A10341   0.496  14.802   7.210 -0.1140 -0.0989  0.1861
  767POPS   D2A10342   0.248  14.865   7.380  0.0696  0.1301 -0.0675
  767POPS   C3A10343   0.113  14.705   7.713 -0.1935 -0.0848  0.0150
  767POPS   C4A10344   0.078  14.786   8.129  0.0249 -0.1948  0.3069
  767POPS   C1B10345   0.710  14.244   7.099  0.1804 -0.1432  0.1404
  767POPS   C2B10346   0.874  13.966   7.382 -0.0668  0.0545  0.1516
  767POPS   C3B10347   0.992  13.824   7.850  0.0128  0.1493 -0.1146
  767POPS   C4B10348   1.222  13.632   8.235 -0.0696 -0.0334 -0.2680
  768POPS   CNO10349   6.009   7.115   5.428 -0.0857  0.2167  0.1303
  768POPS   PO410350   6.201   7.136   5.823  0.0187  0.0519  0.1120
  768POPS   GL110351   6.283   7.329   6.232  0.2044  0.0418 -0.0556
  768POPS   GL210352   6.358   7.091   6.429 -0.2552  0.1018 -0.1613
  768POPS   C1A10353   6.051   7.536   6.571  0.0071  0.0398  0.2557
  768POPS   D2A10354   5.936   7.931   6.727 -0.4871 -0.0275 -0.2436
  768POPS   C3A10355   6.188   8.008   7.003  0.0949 -0.3079  0.1534
  768POPS   C4A10356   6.388   8.318   7.256 -0.2400  0.0809 -0.0599
  768POPS   C1B10357   6.194   7.044   6.786  0.0501  0.2312  0.2184
  768POPS   C2B10358   5.914   7.079   7.108 -0.0101 -0.2211  0.0552
  768POPS   C3B10359   5.793   6.876   7.484 -0.2017  0.1839 -0.0192
  768POPS   C4B10360   5.665   6.725   7.809  0.3561 -0.1004 -0.0366
  769POPS   CNO10361   6.665   8.417   6.146  0.3248  0.1612  0.1974
  769POPS   PO410362   6.898   8.778   6.009  0.1338 -0.0856  0.0632
  769POPS   GL110363   6.908   8.851   6.524  0.1278  0.2461  0.0878
  769POPS   GL210364   6.688   9.001   6.534 -0.3434 -0.1035  0.0915
  769POPS   C1A10365   7.209   8.803   6.833  0.2855  0.0967 -0.1595
  769POPS   D2A10366   7.205   8.887   7.251 -0.1945  0.2764  0.0104
  769POPS   C3A10367   7.204   8.613   7.620 -0.3260  0.1984  0.2988
  769POPS   C4A10368   7.396   8.644   8.010  0.0794  0.2871  0.4598
  769POPS   C1B10369   6.709   8.729   6.960 -0.1603  0.0097 -0.0196
  769POPS   C2B10370   6.748   8.616   7.409  0.5308 -0.2739 -0.2925
  769POPS   C3B10371   6.734   8.501   7.778  0.1323  0.0838  0.3154
  769POPS   C4B10372   6.900   8.189   8.054  0.0226  0.2534  0.4121
  770POPS   CNO10373   6.502  14.132   5.787 -0.1649  0.0917  0.4626
  770POPS   PO410374   6.159  14.437   6.025  0.2445 -0.1226  0.1026
  770POPS   GL110375   6.058  14.490   6.399 -0.1568 -0.1858 -0.2598
  770POPS   GL210376   5.847  14.528   6.627 -0.0498 -0.2562  0.1020
  770POPS   C1A10377   6.362  14.466   6.705  0.1081  0.0034  0.0630
  770POPS   D2A10378   6.425  14.391   7.115  0.1289  0.0279  0.0111
  770POPS   C3A10379   6.227  14.559   7.465  0.0402  0.0228 -0.1978
  770POPS   C4A10380   6.120  14.427   7.836 -0.1228  0.1287 -0.1366
  770POPS   C1B10381   5.621  14.568   7.078  0.1190 -0.0227  0.2211
  770POPS   C2B10382   5.693  14.493   7.491  0.1239  0.0496 -0.0320
  770POPS   C3B10383   5.572  14.686   7.812 -0.2152 -0.2196 -0.1010
  770POPS   C4B10384   5.449  14.483   8.163 -0.0394 -0.1099  0.0489
  771POPS   CNO10385  15.514  14.406   5.759  0.1139  0.5662 -0.1689
  771POPS   PO410386  15.391  14.820   5.968  0.2764 -0.1352  0.2712
  771POPS   GL110387  15.368  14.986   6.367 -0.0800  0.0311  0.1184
  771POPS   GL210388  15.349  14.743   6.622 -0.0256 -0.1124  0.3484
  771POPS   C1A10389  15.287  15.270   6.743 -0.0062 -0.0133  0.0418
  771POPS   D2A10390  15.278  15.406   7.133 -0.1077 -0.1235 -0.1841
  771POPS   C3A10391  15.141  15.563   7.505  0.4296 -0.0927  0.2259
  771POPS   C4A10392  14.862  15.527   7.866 -0.0458  0.2968 -0.2769
  771POPS   C1B10393  15.327  14.800   7.115  0.1581  0.0204 -0.2051
  771POPS   C2B10394  15.264  14.975   7.600  0.0217 -0.4148  0.1071
  771POPS   C3B10395  15.301  15.116   8.043  0.1324  0.2305 -0.1025
  771POPS   C4B10396  15.125  15.458   8.251  0.1983  0.2032  0.0542
  772POPS   CNO10397   7.165   7.765   5.716  0.0737  0.1843  0.0744
  772POPS   PO410398   7.304   7.904   6.163 -0.0842 -0.1640 -0.0708
  772POPS   GL110399   7.491   8.026   6.524 -0.0616  0.2475 -0.0765
  772POPS   GL210400   7.864   8.027   6.689 -0.0140 -0.2139 -0.0132
  772POPS   C1A10401   7.375   7.916   6.903  0.2165  0.0563 -0.0836
  772POPS   D2A10402   7.406   8.006   7.320 -0.1338 -0.3467 -0.0703
  772POPS   C3A10403   7.602   8.425   7.363 -0.0491  0.1708  0.0639
  772POPS   C4A10404   7.754   8.586   7.614  0.2218  0.1600 -0.0848
  772POPS   C1B10405   7.985   7.899   6.982  0.0299  0.0231  0.1575
  772POPS   C2B10406   7.877   8.058   7.448 -0.2465 -0.0603  0.0256
  772POPS   C3B10407   7.928   8.184   7.878  0.3576 -0.3873 -0.0715
  772POPS   C4B10408   8.114   8.182   8.328 -0.2567  0.4008  0.2962
  773POPS   CNO10409  14.584  14.962   6.221 -0.0349 -0.0456 -0.4213
  773POPS   PO410410  14.279  14.715   6.151  0.0416 -0.2644  0.2153
  773POPS   GL110411  14.102  15.026   6.510 -0.3363 -0.0452 -0.1863
  773POPS   GL210412  13.832  14.807   6.551 -0.1215 -0.0999 -0.2868
  773POPS   C1A10413  14.172  15.163   6.917 -0.1411  0.1391 -0.2634
  773POPS   D2A10414  14.140  15.123   7.317  0.1521 -0.1805  0.0103
  773POPS   C3A10415  14.320  15.343   7.608 -0.0002 -0.0624 -0.3851
  773POPS   C4A10416  14.200  15.507   8.057  0.1639  0.0367 -0.0956
  773POPS   C1B10417  13.783  14.579   6.845  0.2398 -0.1462 -0.2499
  773POPS   C2B10418  13.625  14.801   7.129 -0.0820  0.1906 -0.1146
  773POPS   C3B10419  13.679  14.739   7.619 -0.2642  0.1644 -0.1858
  773POPS   C4B10420  13.460  14.675   8.057  0.0461 -0.1129  0.3436
  774POPS   CNO10421   6.286   4.865   5.790  0.1272  0.0021  0.1816
  774POPS   PO410422   5.987   4.580   6.113 -0.2713  0.2245 -0.0370
  774POPS   GL110423   5.907   4.318   6.423  0.3291 -0.0807 -0.0718
  774POPS   GL210424   5.620   4.423   6.555 -0.1139 -0.2203 -0.1218
  774POPS   C1A10425   5.927   4.098   6.879 -0.1582 -0.2001 -0.0924
  774POPS   D2A10426   5.988   4.071   7.328  0.0118 -0.0113 -0.1819
  774POPS   C3A10427   6.169   3.866   7.633  0.3157 -0.3624 -0.0550
  774POPS   C4A10428   6.238   3.522   7.906 -0.1011  0.0284 -0.2853
  774POPS   C1B10429   5.572   4.421   7.057  0.2508 -0.1210 -0.0278
  774POPS   C2B10430   5.641   4.400   7.592 -0.5106  0.0603  0.2088
  774POPS   C3B10431   5.382   4.284   7.987  0.0830 -0.2025  0.1755
  774POPS   C4B10432   5.268   4.497   8.328 -0.0280 -0.0998  0.2518
  775POPS   CNO10433  16.922   5.481   5.947  0.0287 -0.2321 -0.1129
  775POPS   PO410434  17.204   5.042   5.871 -0.2778 -0.0041  0.0668
  775POPS   GL110435  17.051   5.089   6.292  0.0711  0.0489  0.0110
  775POPS   GL210436  17.041   5.375   6.426  0.1621 -0.0605  0.3366
  775POPS   C1A10437  16.891   4.989   6.678  0.3404  0.0032  0.0166
  775POPS   D2A10438  16.850   4.889   7.067 -0.3305  0.0691 -0.0314
  775POPS   C3A10439  16.872   4.703   7.508 -0.1378  0.0269  0.0350
  775POPS   C4A10440  16.781   4.678   7.988 -0.1279 -0.0459 -0.1786
  775POPS   C1B10441  17.294   5.724   6.623 -0.0709 -0.0615 -0.2673
  775POPS   C2B10442  17.342   5.826   7.055  0.1761  0.0829 -0.0481
  775POPS   C3B10443  17.227   6.066   7.451 -0.0166 -0.0100 -0.1136
  775POPS   C4B10444  16.865   6.129   7.737  0.2056 -0.0227 -0.1677
  776POPS   CNO10445   3.720  12.999   5.836 -0.1209 -0.0267  0.1126
  776POPS   PO410446   3.956  12.747   5.997 -0.0252  0.5077  0.1079
  776POPS   GL110447   4.015  12.802   6.440  0.2243  0.2608 -0.1845
  776POPS   GL210448   4.100  13.054   6.376  0.2800  0.0292  0.0067
  776POPS   C1A10449   4.144  12.761   6.819  0.0255 -0.0427  0.2757
  776POPS   D2A10450   4.186  12.969   7.251  0.0216 -0.4418  0.0875
  776POPS   C3A10451   4.076  12.682   7.577 -0.1675 -0.0227 -0.1051
  776POPS   C4A10452   3.650  12.505   7.723  0.1061  0.2612  0.0638
  776POPS   C1B10453   4.120  13.261   6.730 -0.0798 -0.0029  0.0058
  776POPS   C2B10454   4.316  13.512   7.069 -0.0040  0.0623 -0.0975
  776POPS   C3B10455   4.317  13.589   7.492 -0.0220 -0.0759  0.0115
  776POPS   C4B10456   4.243  13.802   7.887 -0.2081  0.0524  0.1698
  777POPS   CNO10457  14.373   7.629   6.653  0.1416  0.1015 -0.0237
  777POPS   PO410458  14.131   7.917   6.489  0.0364  0.0204 -0.0767
  777POPS   GL110459  14.327   8.189   6.883 -0.0349 -0.0008  0.2494
  777POPS   GL210460  14.623   8.007   6.862 -0.3299  0.2106  0.0679
  777POPS   C1A10461  14.458   8.152   7.278  0.3454  0.3741 -0.0518
  777POPS   D2A10462  14.535   8.014   7.639 -0.0098 -0.0179 -0.3044
  777POPS   C3A10463  14.507   8.237   8.013 -0.2917  0.0485 -0.0038
  777POPS   C4A10464  14.420   8.224   8.465  0.1980  0.3360  0.2110
  777POPS   C1B10465  14.541   7.680   7.136 -0.2359 -0.2098  0.0844
  777POPS   C2B10466  14.699   7.593   7.458 -0.0183 -0.0578  0.2129
  777POPS   C3B10467  14.876   7.640   7.833  0.0191  0.2967 -0.0333
  777POPS   C4B10468  15.055   7.499   8.213 -0.2226 -0.2392  0.2360
  778POPS   CNO10469   0.300   1.432   6.589 -0.0920 -0.1184  0.0038
  778POPS   PO410470   0.202   1.871   6.626  0.0293  0.1211  0.2489
  778POPS   GL110471   0.295   1.884   6.979  0.0664  0.1938  0.0618
  778POPS   GL210472   0.370   1.625   7.075  0.3908  0.1135 -0.0793
  778POPS   C1A10473   0.196   1.885   7.420  0.1944 -0.0465 -0.1266
  778POPS   D2A10474   0.255   2.008   7.825  0.1559  0.0671 -0.0846
  778POPS   C3A10475   0.682   2.164   7.899  0.3038  0.0764 -0.1130
  778POPS   C4A10476   1.074   1.952   7.867  0.1190 -0.3002 -0.2317
  778POPS   C1B10477   0.328   1.412   7.480  0.3494 -0.0649 -0.2193
  778POPS   C2B10478   0.325   1.191   7.840 -0.1132  0.0727  0.4816
  778POPS   C3B10479   0.150   1.113   8.104 -0.1286 -0.0921 -0.0241
  778POPS   C4B10480  -0.103   1.116   8.403 -0.2234  0.0357 -0.0675
  779POPS   CNO10481   5.354  13.488   5.800 -0.1998  0.1514 -0.1495
  779POPS   PO410482   5.173  13.482   6.235  0.1174  0.0933  0.1327
  779POPS   GL110483   5.109  13.404   6.617  0.1914  0.0586  0.0677
  779POPS   GL210484   4.963  13.545   6.776  0.1615 -0.1683  0.0736
  779POPS   C1A10485   5.345  13.373   7.040 -0.1956  0.0196 -0.1542
  779POPS   D2A10486   5.389  13.180   7.416  0.1997 -0.1466  0.0940
  779POPS   C3A10487   5.162  12.910   7.748 -0.1909 -0.2600 -0.1267
  779POPS   C4A10488   5.224  12.618   8.103  0.1847  0.3515  0.2371
  779POPS   C1B10489   4.979  13.678   7.172 -0.1638 -0.0812  0.1449
  779POPS   C2B10490   5.061  13.575   7.552 -0.2393 -0.3394  0.0844
  779POPS   C3B10491   5.044  13.367   7.880 -0.2939 -0.0318 -0.0137
  779POPS   C4B10492   4.899  13.032   8.141 -0.2284 -0.0694 -0.1293
  780POPS   CNO10493  11.174  15.456   5.512  0.1002  0.2294 -0.0414
  780POPS   PO410494  10.851  15.590   5.809 -0.0222 -0.3539 -0.0279
  780POPS   GL110495  10.525  15.585   6.170  0.0508 -0.0385  0.0702
  780POPS   GL210496  10.409  15.840   6.231  0.0273  0.1840  0.0085
  780POPS   C1A10497  10.496  15.435   6.534  0.0920  0.2401 -0.1541
  780POPS   D2A10498  10.629  15.120   6.771 -0.0011 -0.0520 -0.0321
  780POPS   C3A10499  10.646  15.035   7.226  0.0127 -0.3190 -0.0639
  780POPS   C4A10500  10.678  14.979   7.640 -0.0499 -0.3507  0.2917
  780POPS   C1B10501  10.238  15.866   6.582 -0.0451  0.0453 -0.2268
  780POPS   C2B10502  10.179  16.022   6.982 -0.0489  0.1853 -0.1187
  780POPS   C3B10503  10.153  16.128   7.350 -0.2941 -0.0082 -0.1417
  780POPS   C4B10504  10.350  15.970   7.764  0.1848  0.0816  0.0489
  781POPS   CNO10505   5.766   9.505   5.716  0.1322 -0.1816  0.1076
  781POPS   PO410506   6.046   9.828   5.868  0.0726  0.0432 -0.0141
  781POPS   GL110507   6.014   9.818   6.288 -0.0089 -0.0482  0.0174
  781POPS   GL210508   6.024  10.196   6.279 -0.2193 -0.0477 -0.1514
  781POPS   C1A10509   5.919   9.564   6.658 -0.2076  0.1823 -0.0141
  781POPS   D2A10510   5.880   9.470   7.049 -0.1826  0.2205  0.1098
  781POPS   C3A10511   5.497   9.517   7.224 -0.0890 -0.5311 -0.2579
  781POPS   C4A10512   5.095   9.507   7.204 -0.2009 -0.0036 -0.0590
  781POPS   C1B10513   6.090  10.307   6.708  0.0663  0.2371 -0.0395
  781POPS   C2B10514   6.160  10.314   7.141 -0.0334  0.2826  0.0932
  781POPS   C3B10515   6.223  10.274   7.546 -0.0673  0.0367  0.0786
  781POPS   C4B10516   6.293  10.434   7.971 -0.1756  0.0616  0.2834
  782POPS   CNO10517   5.315   3.050   5.661 -0.0464  0.1969  0.4651
  782POPS   PO410518   5.446   2.916   6.041  0.1652  0.0977 -0.3335
  782POPS   GL110519   5.599   3.044   6.373 -0.0747 -0.0386  0.0155
  782POPS   GL210520   5.333   3.101   6.523  0.0987 -0.2990 -0.0117
  782POPS   C1A10521   5.938   3.151   6.762  0.0807 -0.0068  0.0486
  782POPS   D2A10522   6.220   3.151   7.057 -0.2081 -0.3121  0.2055
  782POPS   C3A10523   6.015   3.143   7.532 -0.0321  0.0176 -0.0379
  782POPS   C4A10524   6.017   3.045   7.980  0.3495  0.1099  0.1503
  782POPS   C1B10525   5.569   2.842   6.879 -0.0463  0.2391  0.3061
  782POPS   C2B10526   5.674   2.804   7.322  0.2326 -0.0385 -0.2859
  782POPS   C3B10527   5.574   2.992   7.666 -0.2421 -0.0435 -0.1783
  782POPS   C4B10528   5.605   3.248   8.026  0.4508 -0.2287  0.0734
  783POPS   CNO10529  15.301  12.773   5.965  0.0087  0.1501  0.0678
  783POPS   PO410530  15.378  12.508   6.250  0.2704  0.1873  0.1637
  783POPS   GL110531  15.104  12.474   6.603  0.2114 -0.0718  0.0029
  783POPS   GL210532  14.715  12.488   6.607 -0.0889  0.2843  0.0626
  783POPS   C1A10533  15.067  12.533   6.980 -0.2515 -0.5573  0.2343
  783POPS   D2A10534  15.143  12.482   7.456  0.0805 -0.0962 -0.0603
  783POPS   C3A10535  15.005  12.889   7.630 -0.2124 -0.2546 -0.3220
  783POPS   C4A10536  14.600  12.913   7.791  0.3408 -0.2158 -0.0041
  783POPS   C1B10537  14.328  12.543   6.829  0.2258  0.4014 -0.1043
  783POPS   C2B10538  14.121  12.756   7.230 -0.0889 -0.1802  0.2960
  783POPS   C3B10539  13.965  12.835   7.587  0.1021 -0.2220 -0.0851
  783POPS   C4B10540  13.711  12.938   7.750 -0.0245  0.1175 -0.0669
  784POPS   CNO10541  14.197  15.384   6.137 -0.1764 -0.1727  0.0236
  784POPS   PO410542  14.641  15.509   6.039 -0.0014 -0.1188  0.2339
  784POPS   GL110543  14.732  15.557   6.429  0.0649 -0.3586 -0.0537
  784POPS   GL210544  14.458  15.451   6.624  0.0613  0.0977  0.0386
  784POPS   C1A10545  14.961  15.620   6.829 -0.1598 -0.2412  0.1608
  784POPS   D2A10546  15.056  15.978   7.188  0.0979  0.0752  0.0728
  784POPS   C3A10547  14.780  16.153   7.457 -0.3258  0.3753 -0.2362
  784POPS   C4A10548  14.792  16.503   7.741  0.0288 -0.1440 -0.0200
  784POPS   C1B10549  14.534  15.533   7.055 -0.1465  0.1470  0.2260
  784POPS   C2B10550  14.595  15.728   7.359  0.0258  0.1320 -0.1029
  784POPS   C3B10551  14.436  15.866   7.820 -0.1318  0.0009  0.0227
  784POPS   C4B10552  14.665  15.748   8.285 -0.0678 -0.0735  0.0272
  785POPS   CNO10553   7.970   1.156   5.634  0.0453  0.4055 -0.0796
  785POPS   PO410554   7.954   0.678   5.675  0.0626  0.1722  0.0847
  785POPS   GL110555   8.213   0.499   6.021  0.0074 -0.1451 -0.2816
  785POPS   GL210556   8.014   0.601   6.176 -0.0024  0.1250 -0.2309
  785POPS   C1A10557   8.478   0.345   6.370 -0.0979 -0.0611  0.0966
  785POPS   D2A10558   8.727   0.080   6.594  0.2215 -0.3360  0.2683
  785POPS   C3A10559   8.527  -0.061   6.959  0.1645  0.0147 -0.0001
  785POPS   C4A10560   8.315  -0.122   7.344 -0.2540  0.4434  0.1091
  785POPS   C1B10561   7.722   0.716   6.571  0.3687 -0.2809  0.0041
  785POPS   C2B10562   7.611   0.926   6.960  0.0510  0.0594  0.2829
  785POPS   C3B10563   7.752   1.130   7.291 -0.1864 -0.1165 -0.0935
  785POPS   C4B10564   7.670   1.237   7.641 -0.1751 -0.0121 -0.0512
  786POPS   CNO10565   9.128  12.890   5.984 -0.0259 -0.0571  0.2300
  786POPS   PO410566   8.928  12.552   6.186 -0.0590 -0.0038  0.2362
  786POPS   GL110567   8.825  12.565   6.605  0.0502 -0.2249  0.0063
  786POPS   GL210568   9.054  12.767   6.731  0.3170 -0.0151 -0.1121
  786POPS   C1A10569   8.940  12.242   6.907 -0.1502 -0.0856 -0.1674
  786POPS   D2A10570   9.185  12.246   7.252  0.0900  0.0715 -0.2880
  786POPS   C3A10571   9.060  12.459   7.626 -0.1014 -0.2615 -0.1025
  786POPS   C4A10572   8.859  12.642   7.987 -0.0269  0.0013 -0.0631
  786POPS   C1B10573   8.819  12.677   7.126 -0.0755 -0.1920  0.1831
  786POPS   C2B10574   8.639  12.900   7.580 -0.0138  0.3432 -0.0548
  786POPS   C3B10575   8.694  13.180   7.938  0.0063 -0.0082 -0.0551
  786POPS   C4B10576   9.177  13.491   8.066  0.0290 -0.0664 -0.0118
  787POPS   CNO10577  15.759   3.995   6.001  0.1356  0.3963  0.2595
  787POPS   PO410578  15.420   3.685   5.950  0.1011  0.1283  0.4400
  787POPS   GL110579  15.409   3.877   6.352  0.2298  0.1774  0.1916
  787POPS   GL210580  15.076   3.628   6.335 -0.1804  0.0777  0.0059
  787POPS   C1A10581  15.197   3.784   6.787  0.0587  0.1563 -0.0753
  787POPS   D2A10582  15.178   3.693   7.255  0.0161  0.0755 -0.0084
  787POPS   C3A10583  15.197   3.663   7.614 -0.0306  0.0356 -0.1790
  787POPS   C4A10584  15.325   3.968   7.960 -0.0024  0.2181 -0.0102
  787POPS   C1B10585  14.743   3.588   6.625 -0.1790  0.0461  0.0145
  787POPS   C2B10586  14.751   3.529   7.082  0.1455 -0.0284 -0.0761
  787POPS   C3B10587  14.732   3.641   7.503 -0.1034  0.0274  0.0144
  787POPS   C4B10588  14.818   3.811   8.003  0.3071  0.3411 -0.0520
  788POPS   CNO10589  12.687   1.274   6.080  0.0780  0.0060  0.2131
  788POPS   PO410590  13.033   1.359   6.408 -0.0412  0.0799 -0.0465
  788POPS   GL110591  13.221   1.219   6.752  0.0624  0.0625 -0.0933
  788POPS   GL210592  13.524   1.312   6.783  0.2182  0.1629  0.0333
  788POPS   C1A10593  13.140   1.135   7.137 -0.1745  0.3515  0.0174
  788POPS   D2A10594  13.060   1.174   7.601 -0.0718 -0.0648 -0.2997
  788POPS   C3A10595  12.892   1.002   8.020 -0.2471  0.0132 -0.0207
  788POPS   C4A10596  12.510   1.011   8.200  0.0260  0.1771  0.1005
  788POPS   C1B10597  13.524   1.497   7.152  0.1272  0.0373  0.2689
  788POPS   C2B10598  13.449   1.614   7.568 -0.1861  0.1942 -0.1372
  788POPS   C3B10599  13.748   1.838   7.894  0.3544 -0.0742 -0.0964
  788POPS   C4B10600  13.987   2.076   8.141  0.1958  0.1098  0.1143
  789POPS   CNO10601  13.103   5.414   5.762 -0.0288 -0.3078  0.1804
  789POPS   PO410602  13.325   5.117   6.039  0.3009 -0.1424 -0.0722
  789POPS   GL110603  13.260   5.027   6.453  0.2246 -0.1102  0.1803
  789POPS   GL210604  13.487   5.205   6.594 -0.1267 -0.0131  0.0783
  789POPS   C1A10605  13.035   4.917   6.740  0.0343  0.1192 -0.1536
  789POPS   D2A10606  13.240   4.902   7.110 -0.3904  0.0275 -0.1021
  789POPS   C3A10607  12.974   4.879   7.503  0.2330 -0.1339 -0.1721
  789POPS   C4A10608  12.798   4.911   7.878 -0.1130  0.1126  0.1115
  789POPS   C1B10609  13.420   5.401   6.971  0.0231  0.3294 -0.0907
  789POPS   C2B10610  13.483   5.705   7.262 -0.2101  0.0411  0.1147
  789POPS   C3B10611  13.512   5.972   7.436 -0.1270 -0.0197 -0.1464
  789POPS   C4B10612  13.330   6.284   7.686 -0.1039  0.2544 -0.2095
  790POPS   CNO10613  15.067   8.343   6.060 -0.1663 -0.0042  0.4257
  790POPS   PO410614  14.706   8.403   6.239 -0.0764 -0.1829 -0.4286
  790POPS   GL110615  14.695   8.513   6.742 -0.1000 -0.1425 -0.0987
  790POPS   GL210616  14.770   8.802   6.938 -0.2459  0.2022 -0.0335
  790POPS   C1A10617  14.889   8.364   7.145 -0.0902  0.0851 -0.1435
  790POPS   D2A10618  14.811   8.435   7.583  0.1626  0.2890  0.2099
  790POPS   C3A10619  14.811   8.624   7.921 -0.0360 -0.1619  0.0354
  790POPS   C4A10620  14.569   8.944   8.131 -0.1428  0.0622  0.2926
  790POPS   C1B10621  14.806   8.899   7.387 -0.0017 -0.2037  0.4575
  790POPS   C2B10622  14.987   9.034   7.778  0.0707 -0.0324  0.2023
  790POPS   C3B10623  15.195   8.871   8.161  0.0424 -0.2018 -0.0966
  790POPS   C4B10624  15.064   9.048   8.539  0.0302 -0.0803 -0.0292
  791POPS   CNO10625   5.692  11.479   6.001 -0.0872 -0.0866 -0.0828
  791POPS   PO410626   5.266  11.331   5.901  0.1968 -0.1473  0.0631
  791POPS   GL110627   5.125  11.355   6.263 -0.3656  0.1132 -0.3130
  791POPS   GL210628   4.865  11.227   6.288  0.0982 -0.1491 -0.1464
  791POPS   C1A10629   5.153  11.508   6.590 -0.4547  0.0099  0.1285
  791POPS   D2A10630   5.183  11.367   7.074  0.1368 -0.3217 -0.0684
  791POPS   C3A10631   4.996  11.523   7.536  0.0635  0.0743  0.3164
  791POPS   C4A10632   4.986  11.675   8.044  0.1491  0.0840 -0.1250
  791POPS   C1B10633   4.715  11.003   6.638  0.1887 -0.1369  0.1044
  791POPS   C2B10634   4.839  11.018   7.188  0.2567 -0.0725 -0.0014
  791POPS   C3B10635   5.036  10.965   7.627  0.0180 -0.0391  0.0343
  791POPS   C4B10636   5.399  11.292   7.609 -0.3308  0.0268  0.0119
  792POPS   CNO10637   8.232  14.520   5.725  0.2272 -0.0606  0.2109
  792POPS   PO410638   8.299  14.492   6.096  0.1142 -0.0996  0.2670
  792POPS   GL110639   8.382  14.546   6.565 -0.1298 -0.0097 -0.0394
  792POPS   GL210640   8.236  14.413   6.676 -0.1183  0.0349  0.1547
  792POPS   C1A10641   8.169  14.975   6.823  0.1608 -0.0202 -0.2275
  792POPS   D2A10642   7.914  15.240   6.671  0.2161  0.2036 -0.2706
  792POPS   C3A10643   7.841  15.684   6.801  0.1279 -0.1132 -0.1308
  792POPS   C4A10644   7.713  16.168   6.644 -0.1165  0.0374  0.1314
  792POPS   C1B10645   8.342  14.587   7.126 -0.1042  0.2182  0.0180
  792POPS   C2B10646   8.313  14.648   7.543  0.2145  0.1141  0.0086
  792POPS   C3B10647   8.453  14.741   7.961 -0.1058 -0.0146 -0.0655
  792POPS   C4B10648   8.262  14.954   8.284 -0.2388  0.0704  0.1459
  793POPS   CNO10649   9.756  10.196   5.740 -0.0437  0.2123  0.1112
  793POPS   PO410650   9.871  10.271   6.190  0.0332 -0.1159 -0.3129
  793POPS   GL110651  10.096  10.410   6.630  0.2477 -0.1300  0.0703
  793POPS   GL210652  10.105  10.728   6.653 -0.0870 -0.1162 -0.3967
  793POPS   C1A10653  10.233  10.192   6.980  0.0330  0.4656  0.0686
  793POPS   D2A10654  10.111  10.282   7.410 -0.0704 -0.2397  0.0488
  793POPS   C3A10655  10.409  10.423   7.752 -0.0021  0.0847 -0.0986
  793POPS   C4A10656  10.313  10.786   8.028  0.0643 -0.0928 -0.2245
  793POPS   C1B10657  10.074  10.616   7.066  0.1070 -0.1589 -0.0458
  793POPS   C2B10658  10.041  10.775   7.526  0.0682 -0.0725  0.2276
  793POPS   C3B10659   9.897  10.693   7.801  0.1531  0.1381  0.2443
  793POPS   C4B10660   9.981  10.461   8.206 -0.3992  0.1474 -0.0618
  794POPS   CNO10661   3.505  14.603   6.439 -0.5147  0.0633 -0.1168
  794POPS   PO410662   3.843  14.890   6.348 -0.0722  0.1843 -0.1483
  794POPS   GL110663   3.879  14.903   6.758  0.3039 -0.3311 -0.0132
  794POPS   GL210664   3.783  14.642   6.943  0.1447 -0.0867 -0.0064
  794POPS   C1A10665   3.757  15.329   7.025 -0.2249 -0.2033  0.1001
  794POPS   D2A10666   3.689  15.697   7.274 -0.4010  0.0871  0.2379
  794POPS   C3A10667   3.888  15.885   7.701  0.0851 -0.3180  0.1182
  794POPS   C4A10668   3.524  15.986   7.917  0.0594 -0.1067  0.0785
  794POPS   C1B10669   4.102  14.541   7.288 -0.0800  0.1516  0.0596
  794POPS   C2B10670   4.299  14.295   7.708 -0.1442 -0.0568  0.1593
  794POPS   C3B10671   4.464  14.130   8.159 -0.1026  0.1155 -0.1175
  794POPS   C4B10672   4.428  13.741   8.368 -0.1752  0.1148  0.2391
  795POPS   CNO10673   6.600  15.640   5.971 -0.0866  0.3802  0.2891
  795POPS   PO410674   6.295  16.001   6.089  0.1004 -0.4860 -0.0840
  795POPS   GL110675   6.343  16.245   6.495 -0.0278  0.1101  0.3721
  795POPS   GL210676   6.067  16.312   6.704  0.0252  0.1182  0.1956
  795POPS   C1A10677   6.495  16.119   6.873  0.0054 -0.0140  0.1413
  795POPS   D2A10678   6.839  15.958   6.991 -0.1395 -0.2670 -0.3813
  795POPS   C3A10679   7.070  15.947   7.289  0.0125  0.0285  0.2300
  795POPS   C4A10680   7.284  15.936   7.634  0.0704 -0.2869  0.3211
  795POPS   C1B10681   6.109  16.351   7.144  0.0880 -0.0076 -0.2208
  795POPS   C2B10682   6.016  16.131   7.540  0.2191  0.0666  0.2127
  795POPS   C3B10683   6.255  15.858   7.774  0.0239  0.0880 -0.0934
  795POPS   C4B10684   6.426  15.893   8.236  0.0449  0.0889  0.1853
  796POPS   CNO10685   2.219   5.784   5.472  0.1597 -0.2440 -0.2053
  796POPS   PO410686   1.871   5.770   5.633  0.1429 -0.0384  0.0949
  796POPS   GL110687   2.164   6.043   5.965  0.0323  0.2373 -0.0922
  796POPS   GL210688   2.482   5.974   5.930 -0.0587 -0.0208 -0.1671
  796POPS   C1A10689   2.184   6.441   6.354 -0.2987  0.0228 -0.2314
  796POPS   D2A10690   1.923   6.694   6.651 -0.1705  0.4473  0.3383
  796POPS   C3A10691   1.805   6.445   7.021 -0.2288  0.1967 -0.0781
  796POPS   C4A10692   1.728   6.209   7.304 -0.1046  0.2594 -0.1250
  796POPS   C1B10693   2.343   5.703   6.276  0.0910 -0.3092 -0.2256
  796POPS   C2B10694   2.181   5.578   6.650 -0.0078  0.0124 -0.2555
  796POPS   C3B10695   2.257   5.193   6.961 -0.1335  0.1737 -0.1876
  796POPS   C4B10696   2.358   5.057   7.385 -0.1289 -0.0652 -0.0872
  797POPS   CNO10697   7.054  11.841   5.658  0.1862 -0.0141  0.2597
  797POPS   PO410698   7.353  11.936   5.859  0.1363  0.0488 -0.1665
  797POPS   GL110699   7.208  11.885   6.278  0.0171  0.1328 -0.0993
  797POPS   GL210700   7.092  11.671   6.404  0.0980  0.1024 -0.1504
  797POPS   C1A10701   7.363  11.910   6.709  0.4335  0.1146  0.0243
  797POPS   D2A10702   7.615  11.886   7.104  0.0320  0.0530 -0.1596
  797POPS   C3A10703   7.357  11.719   7.556 -0.0284 -0.0404 -0.0700
  797POPS   C4A10704   7.051  11.583   7.959 -0.3852 -0.0678  0.0132
  797POPS   C1B10705   6.967  11.403   6.807 -0.4356  0.0742  0.1491
  797POPS   C2B10706   6.775  11.033   6.995 -0.0732 -0.4095 -0.0812
  797POPS   C3B10707   7.078  10.986   7.254  0.0490  0.1231  0.0819
  797POPS   C4B10708   7.168  11.211   7.606  0.1731  0.0155  0.0965
  798POPS   CNO10709   4.368  16.685   6.061  0.0144 -0.3569  0.0486
  798POPS   PO410710   4.733  16.570   6.132 -0.0369  0.2778 -0.0254
  798POPS   GL110711   4.726  16.550   6.619 -0.1168  0.0933 -0.1438
  798POPS   GL210712   4.477  16.849   6.585 -0.1954  0.3125 -0.0433
  798POPS   C1A10713   4.682  16.375   7.094 -0.1397  0.0277 -0.0340
  798POPS   D2A10714   4.661  16.277   7.655  0.3708  0.1683 -0.1225
  798POPS   C3A10715   4.949  15.975   7.766  0.1095  0.3948 -0.1020
  798POPS   C4A10716   5.300  15.802   8.008 -0.1129 -0.1074 -0.0439
  798POPS   C1B10717   4.086  16.989   6.883  0.0882  0.3317 -0.0696
  798POPS   C2B10718   3.838  17.040   7.243  0.0805  0.3528  0.3781
  798POPS   C3B10719   3.728  17.060   7.599  0.1268 -0.0868  0.2928
  798POPS   C4B10720   4.006  17.137   7.921 -0.2918  0.1374  0.1417
  799POPS   CNO10721  16.297  14.512   6.198  0.0117  0.1306  0.1055
  799POPS   PO410722  16.419  14.852   5.980 -0.0086  0.1876 -0.1069
  799POPS   GL110723  16.556  14.923   6.448 -0.2633  0.0510  0.4879
  799POPS   GL210724  16.255  15.134   6.616  0.3508  0.1912 -0.0329
  799POPS   C1A10725  16.677  14.711   6.797 -0.0039  0.1710  0.3848
  799POPS   D2A10726  16.855  14.716   7.219  0.0959  0.1460 -0.0980
  799POPS   C3A10727  17.152  14.904   7.256  0.0478 -0.1441 -0.2469
  799POPS   C4A10728  17.658  15.013   7.376  0.1761  0.0433 -0.0555
  799POPS   C1B10729  16.268  14.989   7.103  0.1863 -0.0570 -0.2554
  799POPS   C2B10730  16.234  15.000   7.513  0.1125  0.0595 -0.1797
  799POPS   C3B10731  16.042  14.791   7.850  0.2146  0.1343  0.3653
  799POPS   C4B10732  16.151  14.678   8.294  0.0268  0.0978  0.2075
  800POPS   CNO10733   0.885   0.622   6.368  0.0348  0.1133 -0.2803
  800POPS   PO410734   0.797   0.989   6.481 -0.1185  0.2686 -0.2623
  800POPS   GL110735   0.630   1.170   6.914 -0.0051 -0.1277 -0.0945
  800POPS   GL210736   0.317   1.129   7.013  0.1877 -0.0658 -0.1195
  800POPS   C1A10737   0.780   1.382   7.303 -0.4337  0.3260  0.1825
  800POPS   D2A10738   1.028   1.522   7.670 -0.1182 -0.0648  0.2473
  800POPS   C3A10739   1.474   1.601   7.628  0.1719 -0.1792  0.0345
  800POPS   C4A10740   1.674   1.598   7.288  0.2952  0.1846  0.0807
  800POPS   C1B10741   0.282   0.935   7.394 -0.2622  0.1022 -0.1203
  800POPS   C2B10742   0.414   0.739   7.699 -0.3030  0.0132 -0.1712
  800POPS   C3B10743   0.559   0.615   8.085  0.0100  0.2490  0.1937
  800POPS   C4B10744   0.534   0.943   8.368  0.1249  0.0722  0.1234
  801POPS   CNO10745   8.236   9.307   5.759  0.3406  0.3071  0.1602
  801POPS   PO410746   7.797   9.182   5.976 -0.1419 -0.1140  0.0964
  801POPS   GL110747   7.675   9.170   6.403 -0.3903 -0.2652 -0.3335
  801POPS   GL210748   7.530   8.893   6.409  0.3615  0.1435 -0.4214
  801POPS   C1A10749   7.559   9.199   6.841 -0.2654 -0.1621 -0.0379
  801POPS   D2A10750   7.752   8.828   7.138 -0.0367 -0.2868 -0.0312
  801POPS   C3A10751   8.038   8.947   7.436 -0.2547  0.0131  0.4027
  801POPS   C4A10752   8.392   9.280   7.343 -0.0873 -0.1228  0.1084
  801POPS   C1B10753   7.729   8.542   6.545 -0.1385 -0.2381 -0.2438
  801POPS   C2B10754   7.516   8.412   6.885  0.3625  0.3592 -0.1860
  801POPS   C3B10755   7.132   8.412   7.167 -0.1193  0.1489 -0.0124
  801POPS   C4B10756   6.909   8.102   7.456  0.1617  0.0156 -0.0696
  802POPS   CNO10757   1.864   0.232   6.240 -0.1071 -0.0964 -0.0664
  802POPS   PO410758   1.560   0.097   6.498  0.0375  0.1322  0.0781
  802POPS   GL110759   1.970   0.148   6.764  0.0500  0.0461  0.1415
  802POPS   GL210760   2.100   0.498   6.871  0.1979  0.0154  0.1633
  802POPS   C1A10761   2.069   0.043   7.255 -0.3736  0.0910 -0.0580
  802POPS   D2A10762   2.061   0.070   7.712 -0.3450  0.2472  0.1053
  802POPS   C3A10763   1.776   0.176   8.049  0.1330  0.1910 -0.0197
  802POPS   C4A10764   1.703   0.188   8.477  0.3139 -0.0105  0.1770
  802POPS   C1B10765   2.088   0.489   7.244  0.2976 -0.2201 -0.1255
  802POPS   C2B10766   2.190   0.691   7.675  0.1672 -0.1770  0.1645
  802POPS   C3B10767   2.165   0.716   8.085 -0.1395  0.2342 -0.0518
  802POPS   C4B10768   2.149   0.595   8.479 -0.1084 -0.2289  0.0791
  803POPS   CNO10769  11.809   9.187   5.984 -0.1911  0.0070  0.3176
  803POPS   PO410770  11.543   9.376   6.209 -0.2596  0.0930  0.0231
  803POPS   GL110771  11.706   9.356   6.640  0.0201 -0.1600  0.2846
  803POPS   GL210772  11.812   9.026   6.645 -0.0005 -0.1488 -0.0370
  803POPS   C1A10773  11.802   9.434   7.115 -0.0533  0.2724 -0.1630
  803POPS   D2A10774  11.817   9.388   7.543  0.0980 -0.1271 -0.1648
  803POPS   C3A10775  11.855   9.302   7.967 -0.2868  0.0396  0.1324
  803POPS   C4A10776  11.825   8.934   8.282 -0.1088 -0.0081 -0.2913
  803POPS   C1B10777  11.900   8.946   7.054  0.1590  0.0600  0.2651
  803POPS   C2B10778  11.974   8.947   7.498 -0.1393  0.1555 -0.0886
  803POPS   C3B10779  12.084   8.892   7.885  0.1472  0.2019  0.2061
  803POPS   C4B10780  12.288   8.632   8.116  0.0580 -0.2567 -0.0648
  804POPS   CNO10781  11.470   9.967   5.702 -0.2643 -0.1260 -0.0298
  804POPS   PO410782  11.274  10.186   5.940 -0.1045  0.0581 -0.1017
  804POPS   GL110783  11.289  10.163   6.359  0.0121 -0.1455  0.1358
  804POPS   GL210784  11.215   9.833   6.461  0.0005 -0.3062  0.1383
  804POPS   C1A10785  11.426  10.234   6.752 -0.1103 -0.2263  0.0413
  804POPS   D2A10786  11.290  10.287   7.135  0.1115  0.0771  0.3010
  804POPS   C3A10787  11.253  10.163   7.596 -0.2609  0.1576  0.0725
  804POPS   C4A10788  11.346  10.231   7.983  0.0628 -0.0032 -0.2041
  804POPS   C1B10789  11.341   9.725   6.915  0.1521 -0.1014 -0.2970
  804POPS   C2B10790  11.244   9.727   7.322 -0.0275 -0.0083  0.1219
  804POPS   C3B10791  11.084   9.740   7.797 -0.2040  0.0189  0.1530
  804POPS   C4B10792  11.102   9.718   8.156 -0.0590 -0.0923  0.0920
  805POPS   CNO10793   9.126  10.108   6.349  0.0727  0.1415  0.0671
  805POPS   PO410794   9.172  10.567   6.485  0.0900 -0.1993  0.1706
  805POPS   GL110795   9.008  10.683   6.829  0.2025 -0.0572 -0.1165
  805POPS   GL210796   9.286  10.895   6.994 -0.2245 -0.2614  0.1216
  805POPS   C1A10797   9.028  10.540   7.234  0.1663  0.0185 -0.1993
  805POPS   D2A10798   9.043  10.336   7.551 -0.1398 -0.1127 -0.2046
  805POPS   C3A10799   9.341  10.073   7.635 -0.1562  0.0590  0.0409
  805POPS   C4A10800   9.764   9.948   7.399  0.1516 -0.0849 -0.0912
  805POPS   C1B10801   9.189  10.938   7.470  0.6241  0.2099 -0.1316
  805POPS   C2B10802   9.392  11.023   7.850  0.2412 -0.0582 -0.1056
  805POPS   C3B10803   9.676  10.933   8.185  0.0141  0.3509 -0.0889
  805POPS   C4B10804   9.682  10.825   8.517 -0.2473 -0.0783  0.0845
  806POPS   CNO10805   3.142   7.361   5.925 -0.0097 -0.0501  0.0038
  806POPS   PO410806   3.575   7.317   6.109  0.0196  0.0240 -0.5533
  806POPS   GL110807   3.536   7.223   6.557 -0.2714  0.1543 -0.1746
  806POPS   GL210808   3.220   7.319   6.708  0.3754 -0.0361  0.3242
  806POPS   C1A10809   3.634   7.238   6.932 -0.3483 -0.0997 -0.2907
  806POPS   D2A10810   3.782   7.122   7.308 -0.1891  0.2192 -0.2522
  806POPS   C3A10811   3.932   6.904   7.680 -0.1874 -0.2390 -0.0473
  806POPS   C4A10812   3.892   6.725   8.058  0.0366 -0.0332  0.1568
  806POPS   C1B10813   2.887   7.337   6.950  0.0207  0.0146 -0.1493
  806POPS   C2B10814   2.655   7.242   7.312  0.2912  0.0765 -0.2640
  806POPS   C3B10815   2.439   7.295   7.621  0.2515  0.3084 -0.0308
  806POPS   C4B10816   2.466   7.605   8.057  0.0826  0.2217  0.1100
  807POPS   CNO10817  13.904   0.346   6.155  0.1592 -0.1096  0.1418
  807POPS   PO410818  14.260   0.521   6.428  0.1329 -0.0783  0.0010
  807POPS   GL110819  14.221   0.656   6.865 -0.1658 -0.1792  0.0302
  807POPS   GL210820  14.319   0.936   6.867 -0.0754 -0.1580  0.1808
  807POPS   C1A10821  13.930   0.684   7.047 -0.1931  0.2087 -0.4264
  807POPS   D2A10822  13.536   0.981   7.425 -0.1167  0.0615 -0.0635
  807POPS   C3A10823  13.423   0.922   7.909 -0.1148 -0.2313 -0.1569
  807POPS   C4A10824  13.506   1.019   8.324 -0.1004  0.2307 -0.0090
  807POPS   C1B10825  14.447   1.234   7.110  0.0225  0.2578 -0.0721
  807POPS   C2B10826  14.602   1.249   7.513  0.0222 -0.1257  0.1594
  807POPS   C3B10827  14.689   0.960   7.800 -0.0947 -0.4926  0.2148
  807POPS   C4B10828  14.477   0.844   8.128 -0.3188  0.1691  0.0769
  808POPS   CNO10829  14.561  13.122   6.071  0.0337  0.1539  0.2166
  808POPS   PO410830  14.613  12.970   6.467 -0.0208  0.2654 -0.0066
  808POPS   GL110831  14.991  13.030   6.688  0.1649 -0.1503  0.0691
  808POPS   GL210832  15.213  12.971   6.540  0.0407  0.1451 -0.0512
  808POPS   C1A10833  14.930  13.053   7.165  0.0596 -0.1834 -0.1471
  808POPS   D2A10834  15.191  13.353   7.504 -0.0538 -0.1048 -0.0265
  808POPS   C3A10835  15.294  13.270   7.955  0.0090  0.2290  0.2235
  808POPS   C4A10836  15.052  12.901   8.232  0.0540 -0.0519 -0.1166
  808POPS   C1B10837  15.465  12.862   6.895  0.1018 -0.0818 -0.2612
  808POPS   C2B10838  15.370  12.901   7.332 -0.1834  0.0684 -0.1118
  808POPS   C3B10839  15.500  12.926   7.664  0.0035  0.2058 -0.2173
  808POPS   C4B10840  15.377  12.629   7.895  0.0290 -0.0974 -0.0537
  809POPS   CNO10841   1.307   1.711   5.985 -0.3285 -0.2736  0.0664
  809POPS   PO410842   1.102   1.847   6.372 -0.0733 -0.0603  0.0185
  809POPS   GL110843   1.185   1.780   6.783  0.1103 -0.1509  0.1554
  809POPS   GL210844   1.291   1.947   6.867 -0.2177 -0.2875 -0.2607
  809POPS   C1A10845   1.195   1.567   7.170 -0.0053  0.1422 -0.3409
  809POPS   D2A10846   1.322   1.160   7.385  0.3244 -0.1209 -0.1551
  809POPS   C3A10847   1.314   1.093   7.825  0.0202  0.0003 -0.0608
  809POPS   C4A10848   1.379   1.066   8.207  0.3134  0.3163  0.3464
  809POPS   C1B10849   1.298   2.036   7.315  0.1370  0.0469 -0.0986
  809POPS   C2B10850   1.493   2.135   7.670  0.1484 -0.0097 -0.0838
  809POPS   C3B10851   1.825   2.346   7.836  0.0506  0.1584 -0.0975
  809POPS   C4B10852   2.023   2.654   8.134  0.0832  0.0933 -0.0549
  810POPS   CNO10853  12.092  17.139   5.513 -0.0135 -0.1444  0.3584
  810POPS   PO410854  11.800  16.861   5.635 -0.3963 -0.1164 -0.0656
  810POPS   GL110855  11.610  16.988   6.144  0.0612 -0.0876  0.1407
  810POPS   GL210856  11.406  16.730   6.315 -0.1111 -0.0968 -0.3212
  810POPS   C1A10857  11.569  17.309   6.419  0.0603 -0.2969 -0.0230
  810POPS   D2A10858  11.649  17.178   6.880  0.0873 -0.1044  0.2628
  810POPS   C3A10859  11.627  17.150   7.401 -0.0352  0.1293  0.1599
  810POPS   C4A10860  11.632  17.156   7.794  0.0342 -0.1172  0.1753
  810POPS   C1B10861  11.375  16.639   6.758  0.2109  0.0876 -0.2912
  810POPS   C2B10862  11.402  16.683   7.268  0.2369  0.0279 -0.2149
  810POPS   C3B10863  11.349  16.719   7.710  0.1502  0.1194  0.1412
  810POPS   C4B10864  11.433  16.538   8.091 -0.2729  0.1551 -0.0135
  811POPS   CNO10865  12.271  16.050   5.743  0.2002 -0.1363  0.1755
  811POPS   PO410866  12.334  16.200   6.063  0.0761 -0.0539 -0.1263
  811POPS   GL110867  12.684  16.308   6.372 -0.0660 -0.1707 -0.3911
  811POPS   GL210868  12.404  16.045   6.532 -0.3020 -0.1502 -0.1410
  811POPS   C1A10869  12.717  16.262   6.839 -0.2102  0.0431  0.3305
  811POPS   D2A10870  12.682  16.062   7.153  0.1331 -0.0704  0.0733
  811POPS   C3A10871  12.527  15.893   7.624 -0.0601  0.2758  0.1018
  811POPS   C4A10872  12.462  15.984   8.076  0.2432  0.0299 -0.0172
  811POPS   C1B10873  12.099  16.331   6.813  0.0211 -0.2134  0.0369
  811POPS   C2B10874  11.692  16.317   6.958 -0.4535  0.1202 -0.2015
  811POPS   C3B10875  11.568  16.137   7.306 -0.0566 -0.0023 -0.0121
  811POPS   C4B10876  11.593  16.159   7.745 -0.0125 -0.1802 -0.0792
  812YOPS   CNO10877  14.044  13.198   5.983 -0.1636  0.2398 -0.2137
  812YOPS   PO410878  13.859  13.416   6.235  0.0399 -0.2533  0.0795
  812YOPS   GL110879  13.660  13.620   6.517  0.2960  0.0307 -0.2843
  812YOPS   GL210880  13.283  13.665   6.595 -0.0668 -0.0093  0.3601
  812YOPS   C1A10881  13.637  13.623   6.983 -0.0845  0.0387 -0.1804
  812YOPS   D2A10882  13.869  13.720   7.431  0.1115 -0.2142  0.0253
  812YOPS   C3A10883  14.262  13.819   7.574 -0.0661  0.0745  0.0600
  812YOPS   C4A10884  14.382  13.717   7.895  0.2162  0.2973 -0.0221
  812YOPS   C1B10885  13.191  13.921   6.992  0.0005 -0.2517 -0.1731
  812YOPS   C2B10886  13.366  13.882   7.421  0.0282 -0.1355  0.1940
  812YOPS   D3B10887  13.568  13.987   7.835 -0.1424 -0.1905 -0.0770
  812YOPS   C4B10888  13.860  13.641   7.994  0.4109 -0.1271 -0.0320
  813YOPS   CNO10889  17.765   8.160   5.754 -0.0034 -0.2422  0.0622
  813YOPS   PO410890  17.733   8.395   6.169 -0.1976  0.2493 -0.1922
  813YOPS   GL110891  17.693   8.185   6.621  0.1027  0.2424  0.4881
  813YOPS   GL210892  17.803   8.456   6.832  0.2011 -0.0393  0.2415
  813YOPS   C1A10893  17.948   7.902   6.893 -0.1229  0.1020  0.2216
  813YOPS   D2A10894  17.932   7.552   6.940  0.0553 -0.2209  0.1825
  813YOPS   C3A10895  17.899   7.419   7.304  0.0612  0.0971  0.1736
  813YOPS   C4A10896  17.606   7.298   7.552 -0.4132 -0.1542 -0.0778
  813YOPS   C1B10897  18.110   8.343   7.111  0.3515  0.0893  0.0402
  813YOPS   C2B10898  18.229   8.389   7.519  0.1047 -0.1799  0.1292
  813YOPS   D3B10899  18.288   8.519   7.921 -0.1548 -0.1060 -0.1141
  813YOPS   C4B10900  18.657   8.415   8.101 -0.3919  0.0104  0.1763
  814YOPS   CNO10901   1.795   7.891   5.739 -0.1753  0.0805 -0.0957
  814YOPS   PO410902   1.487   7.683   6.032  0.4042 -0.0991  0.3468
  814YOPS   GL110903   1.463   7.531   6.424 -0.1633  0.0482 -0.1507
  814YOPS   GL210904   1.290   7.195   6.373  0.0550 -0.2399  0.0257
  814YOPS   C1A10905   1.346   7.707   6.859 -0.2394 -0.1974 -0.0002
  814YOPS   D2A10906   1.323   7.756   7.321 -0.0630 -0.0868 -0.0118
  814YOPS   C3A10907   1.343   7.662   7.628  0.0973  0.3141  0.2060
  814YOPS   C4A10908   1.217   7.949   7.967 -0.0775 -0.0869  0.2881
  814YOPS   C1B10909   1.250   7.208   6.837  0.1737 -0.0011  0.2763
  814YOPS   C2B10910   1.348   7.236   7.192  0.2848  0.1122 -0.1072
  814YOPS   D3B10911   1.537   7.003   7.510  0.1130  0.0911  0.0792
  814YOPS   C4B10912   1.638   7.225   7.686  0.1827 -0.3352  0.0883
  815YOPS   CNO10913  10.061   9.060   6.124  0.1857  0.0898  0.3419
  815YOPS   PO410914  10.424   8.801   6.256 -0.1283  0.2373 -0.1530
  815YOPS   GL110915  10.091   8.891   6.637  0.1709 -0.1887  0.0848
  815YOPS   GL210916  10.257   9.216   6.781  0.1558  0.2811  0.0270
  815YOPS   C1A10917   9.790   8.773   6.973 -0.1512 -0.1727 -0.1109
  815YOPS   D2A10918   9.687   8.639   7.410 -0.0106  0.2195 -0.0674
  815YOPS   C3A10919   9.542   8.678   7.746 -0.2395 -0.1058 -0.2376
  815YOPS   C4A10920   9.479   8.413   8.110  0.1416  0.2546 -0.3206
  815YOPS   C1B10921  10.243   9.101   7.290 -0.0260 -0.0166 -0.0508
  815YOPS   C2B10922  10.094   9.046   7.693 -0.0890 -0.2415 -0.1227
  815YOPS   D3B10923  10.002   8.776   7.992  0.0109 -0.0095 -0.3902
  815YOPS   C4B10924   9.667   8.847   8.286  0.1139  0.0687  0.2474
  816YOPS   CNO10925   4.407  10.477   5.952  0.0307  0.0099 -0.1090
  816YOPS   PO410926   4.793  10.768   6.040 -0.2055 -0.0145 -0.1595
  816YOPS   GL110927   4.559  10.576   6.437 -0.1658 -0.0602  0.0961
  816YOPS   GL210928   4.475  10.209   6.390 -0.0645 -0.0368 -0.2063
  816YOPS   C1A10929   4.628  10.555   6.994  0.0534  0.2014  0.1326
  816YOPS   D2A10930   4.544  10.621   7.330 -0.2438 -0.2123 -0.1629
  816YOPS   C3A10931   4.835  10.377   7.545 -0.0295 -0.0761 -0.3017
  816YOPS   C4A10932   4.541  10.362   7.957  0.0596 -0.3658  0.3165
  816YOPS   C1B10933   4.714  10.088   6.716 -0.1397 -0.0297 -0.1448
  816YOPS   C2B10934   4.778  10.077   7.101  0.0985  0.1790  0.2335
  816YOPS   D3B10935   4.765   9.821   7.347 -0.0216  0.1271 -0.1411
  816YOPS   C4B10936   4.690   9.912   7.721  0.0240 -0.0749  0.0579
  817YOPS   CNO10937  11.552   7.531   6.217 -0.1795 -0.1778 -0.0261
  817YOPS   PO410938  11.484   7.751   6.403 -0.0562 -0.1257  0.2132
  817YOPS   GL110939  11.498   7.381   6.694  0.2751 -0.0209  0.3057
  817YOPS   GL210940  11.643   7.562   6.899  0.2066  0.1247  0.0611
  817YOPS   C1A10941  11.477   7.109   7.048  0.1945 -0.0176  0.1933
  817YOPS   D2A10942  11.676   7.095   7.358 -0.2679  0.1219  0.1190
  817YOPS   C3A10943  11.738   7.029   7.836  0.1181  0.0756  0.0671
  817YOPS   C4A10944  11.989   6.766   8.089 -0.1211  0.0931 -0.1395
  817YOPS   C1B10945  11.601   7.706   7.284 -0.0129  0.0010 -0.2544
  817YOPS   C2B10946  11.357   7.592   7.718  0.0388  0.0505 -0.1477
  817YOPS   D3B10947  11.326   7.462   8.203  0.1270 -0.1213  0.0120
  817YOPS   C4B10948  11.400   7.808   8.513 -0.0788  0.0474  0.0729
  818YOPS   CNO10949  17.208   8.406   6.763  0.1397  0.1572  0.0641
  818YOPS   PO410950  17.534   8.674   6.544  0.3021 -0.1575 -0.2135
  818YOPS   GL110951  17.449   8.858   6.935  0.3043  0.0943 -0.1530
  818YOPS   GL210952  17.155   8.958   6.837 -0.2055  0.0343 -0.2772
  818YOPS   C1A10953  17.766   8.876   7.273  0.0312 -0.0773 -0.1870
  818YOPS   D2A10954  17.785   8.680   7.698  0.0234 -0.1840  0.1074
  818YOPS   C3A10955  17.682   8.349   7.785 -0.0442 -0.0871  0.1277
  818YOPS   C4A10956  17.246   8.427   7.766 -0.0047 -0.2639  0.1873
  818YOPS   C1B10957  16.986   8.817   7.263  0.3137 -0.0822 -0.1838
  818YOPS   C2B10958  16.829   8.723   7.610 -0.2143  0.0660  0.0051
  818YOPS   D3B10959  16.622   8.932   7.909 -0.1760 -0.1598 -0.0911
  818YOPS   C4B10960  16.224   8.966   7.970 -0.0671  0.0197 -0.0259
  819YOPS   CNO10961   1.569   4.556   6.045 -0.0262  0.1832  0.0761
  819YOPS   PO410962   1.661   4.929   5.843  0.1064  0.0648 -0.1790
  819YOPS   GL110963   1.571   5.096   6.184 -0.0948 -0.0128  0.2279
  819YOPS   GL210964   1.278   4.994   6.364 -0.0357  0.0864 -0.3872
  819YOPS   C1A10965   1.497   5.592   6.310 -0.0393  0.0602 -0.3087
  819YOPS   D2A10966   1.280   5.945   6.425 -0.1238  0.0489 -0.0185
  819YOPS   C3A10967   1.112   5.946   6.794  0.0320  0.1806 -0.0674
  819YOPS   C4A10968   0.819   5.699   6.918  0.2582  0.2712  0.1533
  819YOPS   C1B10969   1.521   4.671   6.539 -0.0436 -0.0526 -0.2792
  819YOPS   C2B10970   1.775   4.694   6.896 -0.0029  0.2113  0.1262
  819YOPS   D3B10971   1.813   4.964   7.187 -0.2107  0.0556 -0.0217
  819YOPS   C4B10972   1.479   5.186   7.408 -0.1811  0.1997  0.2516
  820YOPS   CNO10973   9.916  16.114   6.254 -0.0571  0.1116  0.0346
  820YOPS   PO410974  10.189  16.244   5.951  0.1815  0.1687  0.2060
  820YOPS   GL110975  10.373  16.408   6.241 -0.0682 -0.1005 -0.1795
  820YOPS   GL210976  10.644  16.206   6.438 -0.0882  0.0617 -0.3423
  820YOPS   C1A10977  10.219  16.463   6.599  0.0220  0.0962 -0.1151
  820YOPS   D2A10978  10.275  16.521   7.042  0.0460 -0.2583 -0.0017
  820YOPS   C3A10979  10.324  16.567   7.463 -0.4420  0.0776 -0.3457
  820YOPS   C4A10980  10.055  16.429   7.751  0.0682  0.0529 -0.2154
  820YOPS   C1B10981  10.720  16.036   6.819 -0.1887  0.2006  0.4158
  820YOPS   C2B10982  10.632  16.251   7.095 -0.1309 -0.0833  0.1994
  820YOPS   D3B10983  10.737  16.175   7.533  0.2720  0.0602  0.1000
  820YOPS   C4B10984  11.126  16.303   7.781 -0.0415 -0.0524 -0.3353
  821YOPS   CNO10985  14.668   6.924   5.720 -0.0691  0.3323  0.1539
  821YOPS   PO410986  14.516   7.076   6.100 -0.0491  0.1838  0.1341
  821YOPS   GL110987  14.497   7.080   6.485 -0.0424 -0.0499 -0.1335
  821YOPS   GL210988  14.174   7.177   6.484 -0.1791  0.1333  0.0713
  821YOPS   C1A10989  14.567   6.830   6.917  0.0263 -0.0499 -0.1384
  821YOPS   D2A10990  14.844   6.894   7.238  0.0330  0.0560 -0.1946
  821YOPS   C3A10991  14.933   6.681   7.617 -0.0746 -0.1514 -0.2233
  821YOPS   C4A10992  14.989   6.835   7.976 -0.0441  0.3668 -0.1888
  821YOPS   C1B10993  14.200   7.279   6.933  0.1136  0.3050  0.1334
  821YOPS   C2B10994  14.341   7.146   7.284 -0.1777  0.0512  0.0399
  821YOPS   D3B10995  14.493   6.878   7.712  0.2581 -0.1082  0.0748
  821YOPS   C4B10996  14.669   7.175   7.933 -0.1639  0.0538 -0.2473
  822YOPS   CNO10997  12.274  17.534   5.786  0.0802 -0.2885 -0.0458
  822YOPS   PO410998  11.918  17.855   5.726 -0.1137 -0.3678 -0.0680
  822YOPS   GL110999  11.965  17.762   6.120 -0.0416  0.2039 -0.0194
  822YOPS   GL211000  11.610  17.752   6.202  0.0869  0.3081  0.1054
  822YOPS   C1A11001  12.004  17.522   6.453  0.0402  0.2634  0.0044
  822YOPS   D2A11002  11.937  17.584   6.884 -0.1189 -0.3009 -0.0601
  822YOPS   C3A11003  12.254  17.744   7.081 -0.1029  0.0500  0.1042
  822YOPS   C4A11004  12.335  17.819   7.482 -0.1624 -0.1101  0.2011
  822YOPS   C1B11005  11.581  17.746   6.618  0.0582  0.0895  0.0101
  822YOPS   C2B11006  11.397  17.601   7.037 -0.1155  0.1100 -0.0152
  822YOPS   D3B11007  11.333  17.637   7.420  0.0974 -0.0575 -0.0066
  822YOPS   C4B11008  11.433  18.168   7.606 -0.0397  0.3048 -0.1122
  823YOPS   CNO11009   0.727   3.977   5.455 -0.1388  0.0301 -0.0246
  823YOPS   PO411010   0.793   3.751   5.810 -0.1221 -0.0372 -0.0155
  823YOPS   GL111011   1.030   3.906   6.157 -0.1349 -0.0055  0.1516
  823YOPS   GL211012   1.288   4.224   6.322  0.2704  0.0806  0.1774
  823YOPS   C1A11013   0.831   4.084   6.542  0.1085  0.3046 -0.1675
  823YOPS   D2A11014   0.784   4.063   6.977  0.0336 -0.1094 -0.3572
  823YOPS   C3A11015   0.441   3.883   7.281  0.0844 -0.1841  0.1494
  823YOPS   C4A11016  -0.002   3.944   7.240 -0.0130  0.0922 -0.0842
  823YOPS   C1B11017   1.201   4.257   6.797  0.0749 -0.4700  0.1186
  823YOPS   C2B11018   1.208   4.233   7.242 -0.0021 -0.0452  0.1171
  823YOPS   D3B11019   1.177   4.375   7.602 -0.0570 -0.1466 -0.1614
  823YOPS   C4B11020   1.209   4.465   8.069 -0.3384  0.1467  0.0484
  824YOPS   CNO11021   2.834   2.251   5.889  0.0388  0.3888  0.0246
  824YOPS   PO411022   2.582   2.569   5.926 -0.1658  0.0469 -0.3925
  824YOPS   GL111023   2.513   2.825   6.288 -0.0699 -0.0029  0.3561
  824YOPS   GL211024   2.580   2.551   6.609  0.0353  0.2343 -0.1022
  824YOPS   C1A11025   2.415   3.085   6.678  0.1152  0.1121  0.3363
  824YOPS   D2A11026   2.244   2.945   7.142  0.2637  0.2247  0.1674
  824YOPS   C3A11027   2.535   2.848   7.445 -0.3304  0.0246  0.1804
  824YOPS   C4A11028   2.730   3.167   7.768 -0.1397 -0.1636 -0.2304
  824YOPS   C1B11029   2.525   2.503   6.937  0.0061  0.1688 -0.2052
  824YOPS   C2B11030   2.413   2.251   7.287 -0.2477  0.1611 -0.1094
  824YOPS   D3B11031   2.067   2.107   7.473  0.0375  0.1624 -0.1533
  824YOPS   C4B11032   1.756   2.070   7.243  0.0837 -0.1574  0.1471
  825YOPS   CNO11033  17.276   3.466   5.524 -0.2103 -0.0092 -0.2227
  825YOPS   PO411034  16.802   3.223   5.607 -0.1684 -0.0844  0.3344
  825YOPS   GL111035  16.981   3.460   5.948  0.2637  0.2725 -0.0635
  825YOPS   GL211036  17.117   3.181   6.096  0.0943 -0.0013  0.1753
  825YOPS   C1A11037  16.996   3.613   6.341 -0.2630 -0.2219 -0.1231
  825YOPS   D2A11038  16.898   3.997   6.610 -0.1477 -0.2821  0.0185
  825YOPS   C3A11039  16.486   4.170   6.591  0.0542 -0.0188  0.1507
  825YOPS   C4A11040  16.102   4.364   6.835 -0.1448 -0.0988 -0.1181
  825YOPS   C1B11041  17.074   3.178   6.473  0.0594 -0.0722  0.0851
  825YOPS   C2B11042  16.976   3.197   6.906 -0.2135 -0.1411 -0.2535
  825YOPS   D3B11043  16.955   3.552   7.198  0.2219  0.0017  0.0006
  825YOPS   C4B11044  16.934   3.832   7.100  0.1937  0.0108  0.3338
  826YOPS   CNO11045   2.656   7.112   5.899  0.1593 -0.1117  0.1996
  826YOPS   PO411046   2.229   7.046   5.866 -0.1609  0.0233 -0.3794
  826YOPS   GL111047   2.300   7.072   6.288  0.0086  0.0061 -0.0494
  826YOPS   GL211048   2.319   7.391   6.437 -0.0905 -0.3174  0.2310
  826YOPS   C1A11049   2.445   7.005   6.764 -0.1015  0.3977  0.2168
  826YOPS   D2A11050   2.641   6.808   7.039 -0.2437 -0.0912  0.0895
  826YOPS   C3A11051   2.833   6.626   7.351 -0.0130  0.2187 -0.1200
  826YOPS   C4A11052   3.017   6.647   7.681 -0.0628  0.2936 -0.0531
  826YOPS   C1B11053   2.304   7.483   6.924  0.1705 -0.3084  0.0126
  826YOPS   C2B11054   2.308   7.736   7.249  0.0942 -0.0941  0.0621
  826YOPS   D3B11055   2.368   7.968   7.667 -0.2541  0.0873  0.2202
  826YOPS   C4B11056   2.145   7.894   8.149  0.3714 -0.1368 -0.0376
  827YOPS   CNO11057   5.484   5.966   5.587  0.0209 -0.0476 -0.1130
  827YOPS   PO411058   5.350   5.950   6.031  0.0957 -0.0185 -0.0909
  827YOPS   GL111059   5.453   5.869   6.490  0.1849  0.0361  0.1785
  827YOPS   GL211060   5.769   5.757   6.544  0.0618  0.0849 -0.1881
  827YOPS   C1A11061   5.499   5.708   6.909  0.0957 -0.0692 -0.2810
  827YOPS   D2A11062   5.365   5.766   7.199  0.0731 -0.0341 -0.1277
  827YOPS   C3A11063   5.492   5.851   7.611  0.1274 -0.0668 -0.0176
  827YOPS   C4A11064   5.136   5.890   7.910 -0.4446  0.2117 -0.1830
  827YOPS   C1B11065   5.983   5.791   6.991 -0.0663  0.2367 -0.1137
  827YOPS   C2B11066   5.969   5.771   7.475 -0.0469  0.3837  0.1203
  827YOPS   D3B11067   6.075   5.710   7.829  0.2191  0.2928  0.0820
  827YOPS   C4B11068   6.332   5.958   8.228 -0.2334 -0.0879 -0.1833
  828YOPS   CNO11069  15.628   0.147   5.960  0.1174 -0.1102  0.0071
  828YOPS   PO411070  15.591   0.234   6.465 -0.1250  0.1090  0.0866
  828YOPS   GL111071  15.414   0.402   6.761  0.1983  0.3093  0.1136
  828YOPS   GL211072  15.201   0.678   6.773  0.2803  0.0721 -0.0574
  828YOPS   C1A11073  15.426   0.432   7.191 -0.2075  0.2285  0.0020
  828YOPS   D2A11074  15.339   0.505   7.570 -0.1407 -0.1105 -0.1411
  828YOPS   C3A11075  15.298   0.459   7.986  0.3968  0.1606  0.0500
  828YOPS   C4A11076  14.969   0.702   8.102 -0.1144  0.1453 -0.1163
  828YOPS   C1B11077  14.811   0.771   7.009  0.1856 -0.0079  0.0050
  828YOPS   C2B11078  14.527   0.693   7.283  0.1439 -0.2149 -0.0217
  828YOPS   D3B11079  14.301   0.660   7.681  0.1563  0.1634  0.1639
  828YOPS   C4B11080  13.875   0.502   7.592 -0.1295 -0.1222 -0.1054
  829YOPS   CNO11081   1.702  14.802   6.288  0.1005  0.1422  0.2291
  829YOPS   PO411082   1.516  14.648   6.571  0.0615 -0.0078  0.1364
  829YOPS   GL111083   1.639  14.933   6.840  0.4778  0.0996 -0.1754
  829YOPS   GL211084   1.778  15.220   6.944  0.1246 -0.3283 -0.0352
  829YOPS   C1A11085   1.965  14.866   7.237 -0.1035 -0.1043 -0.2135
  829YOPS   D2A11086   2.017  14.854   7.701  0.1585  0.3058 -0.1999
  829YOPS   C3A11087   1.927  14.902   8.152 -0.0380 -0.1103  0.1125
  829YOPS   C4A11088   2.226  14.717   8.492  0.0666 -0.0078  0.2480
  829YOPS   C1B11089   1.642  15.212   7.364  0.1710 -0.2364 -0.0703
  829YOPS   C2B11090   1.701  15.245   7.808  0.0334  0.0166  0.1287
  829YOPS   D3B11091   2.017  15.397   8.105 -0.0093 -0.0820 -0.3870
  829YOPS   C4B11092   2.006  15.352   8.513  0.1226 -0.0625  0.2619
  830YOPS   CNO11093   8.542  12.772   5.960  0.1746 -0.2572  0.2681
  830YOPS   PO411094   8.405  12.777   6.416  0.0656  0.0826 -0.0919
  830YOPS   GL111095   8.473  12.920   6.815  0.0283 -0.1611 -0.1396
  830YOPS   GL211096   8.622  13.110   6.933  0.0065  0.1149 -0.0267
  830YOPS   C1A11097   8.260  12.828   7.242  0.2991  0.1695 -0.2152
  830YOPS   D2A11098   8.186  12.729   7.691 -0.0351 -0.1479  0.2126
  830YOPS   C3A11099   8.291  12.720   8.139 -0.2321 -0.0321  0.3592
  830YOPS   C4A11100   8.205  13.040   8.333  0.0636 -0.0892  0.0494
  830YOPS   C1B11101   8.366  13.275   7.186  0.0126 -0.3402  0.0650
  830YOPS   C2B11102   8.284  13.238   7.538 -0.0488 -0.1417  0.0265
  830YOPS   D3B11103   8.183  13.340   7.961 -0.2199  0.0252 -0.0872
  830YOPS   C4B11104   8.069  13.736   8.146 -0.0158  0.0274 -0.0773
  831YOPS   CNO11105  12.080   9.521   6.304 -0.4721  0.1313 -0.0990
  831YOPS   PO411106  12.462   9.356   6.320  0.0238 -0.3487 -0.0490
  831YOPS   GL111107  12.467   9.256   6.642 -0.0297 -0.1314 -0.0697
  831YOPS   GL211108  12.193   9.310   6.765  0.4363 -0.1387 -0.2691
  831YOPS   C1A11109  12.755   9.423   7.070  0.0216  0.1087  0.0187
  831YOPS   D2A11110  12.825   9.395   7.427  0.0419 -0.0859  0.0786
  831YOPS   C3A11111  12.684   9.627   7.817  0.2209 -0.1745 -0.2398
  831YOPS   C4A11112  12.532  10.065   7.797  0.0558  0.1430  0.0654
  831YOPS   C1B11113  12.294   9.229   7.139  0.0542 -0.3537  0.0893
  831YOPS   C2B11114  12.364   9.291   7.652 -0.0918  0.2229  0.0211
  831YOPS   D3B11115  12.352   9.354   8.039  0.2793 -0.2031  0.2510
  831YOPS   C4B11116  12.296   9.097   8.252  0.3214 -0.3328  0.0826
  832YOPS   CNO11117   5.742   0.648   5.778 -0.0264 -0.1981  0.3229
  832YOPS   PO411118   5.488   0.603   6.236 -0.3219  0.0534  0.0090
  832YOPS   GL111119   5.334   0.393   6.479 -0.1111  0.0701 -0.4738
  832YOPS   GL211120   5.018   0.509   6.636 -0.3928  0.0510  0.4001
  832YOPS   C1A11121   5.481   0.404   6.895  0.0144 -0.5695 -0.0665
  832YOPS   D2A11122   5.597   0.518   7.336 -0.1435  0.1531 -0.1959
  832YOPS   C3A11123   5.958   0.400   7.566  0.0745 -0.1531  0.0189
  832YOPS   C4A11124   5.897   0.396   7.995 -0.1227  0.1699  0.2386
  832YOPS   C1B11125   5.069   0.478   7.164  0.0926  0.0165 -0.2465
  832YOPS   C2B11126   5.099   0.471   7.615 -0.0208  0.0254 -0.2735
  832YOPS   D3B11127   5.049   0.386   8.070  0.0848 -0.1065 -0.0970
  832YOPS   C4B11128   4.862   0.035   8.150 -0.1589  0.0807 -0.2930
  833YOPS   CNO11129  16.003   2.085   5.408  0.3892  0.0909 -0.0025
  833YOPS   PO411130  15.659   2.362   5.480  0.0232  0.1134  0.1620
  833YOPS   GL111131  15.542   2.395   5.910  0.3234  0.3595 -0.0490
  833YOPS   GL211132  15.552   2.678   6.034  0.0126  0.1640 -0.1493
  833YOPS   C1A11133  15.487   2.359   6.442  0.4920  0.5099  0.0296
  833YOPS   D2A11134  15.445   2.631   6.861  0.0039  0.2323 -0.0972
  833YOPS   C3A11135  15.230   2.772   7.271  0.3426 -0.0029 -0.0789
  833YOPS   C4A11136  14.929   2.531   7.454  0.1819  0.1110  0.0218
  833YOPS   C1B11137  15.722   2.836   6.417  0.1100  0.0046  0.1280
  833YOPS   C2B11138  15.882   2.852   6.891 -0.2038 -0.2167 -0.0599
  833YOPS   D3B11139  15.865   2.996   7.316  0.0995  0.0485  0.0918
  833YOPS   C4B11140  16.148   3.263   7.548  0.0437 -0.0848 -0.4731
  834YOPS   CNO11141  16.691   5.848   5.398  0.0022 -0.1528  0.0352
  834YOPS   PO411142  16.679   6.149   5.838 -0.0116  0.0013  0.1340
  834YOPS   GL111143  16.841   6.379   6.252  0.1060 -0.0556  0.0061
  834YOPS   GL211144  16.682   6.603   6.369 -0.0714  0.2073 -0.0586
  834YOPS   C1A11145  17.071   6.194   6.584 -0.0479  0.1854  0.0389
  834YOPS   D2A11146  16.976   6.095   6.998  0.1485 -0.0984  0.0012
  834YOPS   C3A11147  16.886   6.453   7.367 -0.1599  0.2652  0.1867
  834YOPS   C4A11148  17.086   6.551   7.755  0.2950 -0.0052  0.0907
  834YOPS   C1B11149  16.578   6.229   6.671 -0.2615 -0.1235  0.5159
  834YOPS   C2B11150  16.495   6.292   7.126  0.1446  0.3357 -0.0370
  834YOPS   D3B11151  16.305   6.548   7.372  0.1637 -0.2957  0.0779
  834YOPS   C4B11152  16.485   6.630   7.732  0.1711 -0.0716 -0.1256
  835YOPS   CNO11153   0.078   2.196   6.124  0.0913 -0.2340 -0.0384
  835YOPS   PO411154   0.301   2.444   6.022 -0.2327  0.2884 -0.3083
  835YOPS   GL111155   0.047   2.563   6.440 -0.0070 -0.2382 -0.1914
  835YOPS   GL211156  -0.089   2.352   6.609  0.1304  0.1583  0.0140
  835YOPS   C1A11157  -0.012   2.678   6.979 -0.0012 -0.0835  0.4054
  835YOPS   D2A11158  -0.084   2.729   7.402 -0.0531  0.0188  0.1161
  835YOPS   C3A11159  -0.161   3.105   7.564 -0.1740 -0.0965  0.0345
  835YOPS   C4A11160  -0.297   3.493   7.387  0.3414  0.0408  0.1043
  835YOPS   C1B11161  -0.048   2.186   7.075 -0.0673  0.2182  0.1191
  835YOPS   C2B11162  -0.274   2.166   7.537  0.1056 -0.0248 -0.2675
  835YOPS   D3B11163  -0.374   1.932   7.943 -0.2747  0.0158  0.4001
  835YOPS   C4B11164  -0.055   1.949   8.232 -0.2522  0.1257 -0.0885
  836YOPS   CNO11165   0.220   0.122   6.895 -0.4724 -0.4468  0.2540
  836YOPS   PO411166  -0.048   0.550   6.760 -0.3195  0.0460  0.2475
  836YOPS   GL111167  -0.018   0.640   7.168 -0.0992  0.1440 -0.0208
  836YOPS   GL211168   0.138   0.421   7.396 -0.3954 -0.3273  0.1953
  836YOPS   C1A11169  -0.138   0.763   7.625  0.0723 -0.0608  0.1508
  836YOPS   D2A11170   0.027   0.576   8.012  0.1896 -0.0485  0.1111
  836YOPS   C3A11171   0.037   0.613   8.464 -0.1060 -0.3348  0.2051
  836YOPS   C4A11172   0.340   0.645   8.760 -0.0807  0.0227  0.0170
  836YOPS   C1B11173   0.354   0.241   7.845  0.2546  0.0805  0.0600
  836YOPS   C2B11174   0.109   0.112   8.196 -0.1108  0.1802  0.1693
  836YOPS   D3B11175  -0.054   0.092   8.610 -0.2084 -0.2241  0.0256
  836YOPS   C4B11176  -0.276   0.357   8.754  0.1878 -0.1386  0.2447
  837YOPS   CNO11177   6.828   1.546   5.437  0.0538  0.2649 -0.0644
  837YOPS   PO411178   7.208   1.797   5.310  0.0834  0.1822  0.1251
  837YOPS   GL111179   7.131   1.779   5.793  0.1176  0.3966  0.0219
  837YOPS   GL211180   7.330   1.667   5.987 -0.0823 -0.0206 -0.0597
  837YOPS   C1A11181   6.944   1.917   6.115  0.0355 -0.0312 -0.1555
  837YOPS   D2A11182   6.986   2.252   6.523  0.0809  0.0762 -0.2709
  837YOPS   C3A11183   7.083   2.432   6.993 -0.1915  0.0225  0.2636
  837YOPS   C4A11184   6.979   2.249   7.442  0.3053  0.1898 -0.1278
  837YOPS   C1B11185   7.390   1.905   6.347 -0.1450  0.2777  0.2119
  837YOPS   C2B11186   7.460   2.024   6.675 -0.2018  0.1563  0.1700
  837YOPS   D3B11187   7.760   1.901   6.989  0.0075  0.2294 -0.3972
  837YOPS   C4B11188   8.019   2.023   7.336  0.1809 -0.2197 -0.4539
  838YOPS   CNO11189  15.692  16.137   6.326 -0.0831 -0.2359  0.0253
  838YOPS   PO411190  15.349  16.004   6.513 -0.1899  0.3483 -0.2020
  838YOPS   GL111191  15.568  16.147   6.858 -0.0962  0.3348 -0.0552
  838YOPS   GL211192  15.829  16.404   6.891 -0.0657 -0.0564  0.2427
  838YOPS   C1A11193  15.458  16.346   7.195  0.0347 -0.0466 -0.0836
  838YOPS   D2A11194  15.349  16.394   7.648 -0.2286  0.1266 -0.3199
  838YOPS   C3A11195  15.192  16.554   8.067 -0.0587  0.1442 -0.0625
  838YOPS   C4A11196  15.443  16.503   8.414 -0.0912 -0.4166 -0.1142
  838YOPS   C1B11197  16.273  16.458   6.999 -0.1687 -0.0640  0.1774
  838YOPS   C2B11198  16.585  16.304   7.321 -0.2414  0.1245  0.0458
  838YOPS   D3B11199  16.663  16.174   7.740 -0.2700  0.1973  0.0582
  838YOPS   C4B11200  17.024  16.117   7.822  0.1959 -0.0612  0.0996
  839YOPS   CNO11201   9.773   5.026   5.573 -0.0181 -0.0823  0.2938
  839YOPS   PO411202   9.776   5.000   6.014 -0.0697 -0.0040  0.0409
  839YOPS   GL111203   9.695   4.686   6.362 -0.0360 -0.0342 -0.0627
  839YOPS   GL211204   9.452   4.594   6.445 -0.2735  0.1478  0.3177
  839YOPS   C1A11205   9.954   4.679   6.670 -0.1345 -0.1430 -0.0355
  839YOPS   D2A11206  10.002   4.630   7.134  0.1706 -0.0479 -0.0483
  839YOPS   C3A11207   9.817   4.632   7.542  0.0215 -0.0602  0.0784
  839YOPS   C4A11208  10.124   4.614   7.776 -0.1771 -0.0137 -0.1178
  839YOPS   C1B11209   9.539   4.420   6.851  0.0392  0.0729  0.0495
  839YOPS   C2B11210   9.673   4.247   7.246  0.0361  0.0322  0.2057
  839YOPS   D3B11211   9.938   4.093   7.577  0.2024 -0.0235  0.0863
  839YOPS   C4B11212   9.943   3.719   7.835  0.2325 -0.0141 -0.0633
  840YOPS   CNO11213  12.213  12.152   6.088  0.1518 -0.0545  0.3724
  840YOPS   PO411214  11.860  12.147   6.035  0.3333  0.0765  0.0808
  840YOPS   GL111215  11.630  12.348   6.452 -0.0777  0.0912 -0.0196
  840YOPS   GL211216  11.354  12.448   6.411  0.1562  0.3790  0.1016
  840YOPS   C1A11217  11.912  12.520   6.794  0.4695  0.0824  0.1749
  840YOPS   D2A11218  12.062  12.684   7.200  0.4812 -0.0327 -0.0730
  840YOPS   C3A11219  11.848  12.915   7.425  0.0105 -0.1395  0.1938
  840YOPS   C4A11220  11.887  12.925   7.766  0.1881 -0.2056  0.1000
  840YOPS   C1B11221  11.266  12.569   6.926  0.1193 -0.1936 -0.3179
  840YOPS   C2B11222  11.293  12.713   7.308 -0.1370  0.1441  0.1685
  840YOPS   D3B11223  11.497  12.609   7.739  0.2841 -0.0887 -0.1022
  840YOPS   C4B11224  11.309  12.882   8.016 -0.3831  0.1527  0.1358
  841YOPS   CNO11225   5.215  13.034   5.558  0.2947  0.2102  0.2579
  841YOPS   PO411226   5.287  12.706   5.853  0.0857  0.1174  0.1391
  841YOPS   GL111227   5.340  12.757   6.297 -0.0799 -0.0775 -0.1011
  841YOPS   GL211228   5.190  12.976   6.428  0.0117 -0.1280 -0.3161
  841YOPS   C1A11229   5.729  12.683   6.513  0.0709 -0.0239  0.0603
  841YOPS   D2A11230   6.142  12.624   6.529 -0.1878  0.0413 -0.0923
  841YOPS   C3A11231   6.539  12.528   6.635  0.2303 -0.1453  0.1544
  841YOPS   C4A11232   6.916  12.798   6.647 -0.0973  0.2492  0.0244
  841YOPS   C1B11233   5.234  12.902   6.810 -0.1528 -0.1558  0.2119
  841YOPS   C2B11234   5.169  12.729   7.262  0.4806  0.0609  0.2369
  841YOPS   D3B11235   5.249  12.491   7.592  0.0305  0.1131  0.1427
  841YOPS   C4B11236   5.641  12.701   7.804 -0.1930 -0.2041  0.1780
  842POPE   NH311237   4.104  12.261   5.946  0.0018  0.0073 -0.0826
  842POPE   PO411238   4.516  12.291   6.069  0.1245  0.0214  0.3729
  842POPE   GL111239   4.284  12.370   6.446  0.1960 -0.2032 -0.2013
  842POPE   GL211240   4.513  12.623   6.540  0.1562 -0.2586  0.0567
  842POPE   C1A11241   4.166  12.291   6.831 -0.0879 -0.2456  0.2135
  842POPE   D2A11242   4.130  12.390   7.212  0.0703  0.2755 -0.0164
  842POPE   C3A11243   4.353  12.248   7.613 -0.1686 -0.0925 -0.1434
  842POPE   C4A11244   4.620  12.214   7.966  0.1547  0.0502  0.1380
  842POPE   C1B11245   4.625  12.606   7.046 -0.1319  0.0699 -0.1666
  842POPE   C2B11246   4.662  12.585   7.475  0.1480  0.1102  0.0012
  842POPE   C3B11247   4.469  12.755   7.872 -0.1827 -0.1868  0.3275
  842POPE   C4B11248   4.168  12.612   8.108  0.1901 -0.2445  0.1551
  843POPE   NH311249  16.704   9.698   6.184 -0.1563  0.1851  0.1027
  843POPE   PO411250  16.193   9.836   6.302  0.2074  0.0321  0.0894
  843POPE   GL111251  15.991   9.745   6.671  0.3243  0.0576 -0.2526
  843POPE   GL211252  15.944  10.064   6.843  0.1026  0.0965 -0.1579
  843POPE   C1A11253  15.946   9.586   7.154  0.0825  0.0431 -0.0416
  843POPE   D2A11254  15.925   9.705   7.404  0.1622 -0.1992 -0.1286
  843POPE   C3A11255  16.151   9.971   7.758 -0.1770  0.0839 -0.2122
  843POPE   C4A11256  16.065  10.175   8.139 -0.2476 -0.2502  0.1433
  843POPE   C1B11257  16.292   9.955   7.049  0.1670 -0.1352 -0.1238
  843POPE   C2B11258  16.446   9.632   7.356  0.0301 -0.2307 -0.0987
  843POPE   C3B11259  16.545   9.592   7.743 -0.0014  0.1220  0.1469
  843POPE   C4B11260  16.467   9.393   8.097 -0.0779  0.4187  0.1783
  844POPE   NH311261   7.992   6.932   5.736 -0.0919  0.0166 -0.4401
  844POPE   PO411262   8.125   6.593   6.149 -0.1469 -0.0769  0.1768
  844POPE   GL111263   7.828   6.721   6.550  0.1932  0.2607  0.3967
  844POPE   GL211264   7.661   6.994   6.489  0.2315 -0.2471 -0.0921
  844POPE   C1A11265   7.728   6.616   6.952 -0.1140  0.2186  0.0101
  844POPE   D2A11266   7.730   6.892   7.295 -0.6239  0.0464  0.1179
  844POPE   C3A11267   7.556   6.957   7.647 -0.1070  0.0559  0.2744
  844POPE   C4A11268   7.639   7.285   8.027  0.0453  0.0006  0.2997
  844POPE   C1B11269   7.418   7.074   6.857 -0.1028  0.1920  0.1929
  844POPE   C2B11270   7.264   7.218   7.305 -0.2256  0.2541  0.2592
  844POPE   C3B11271   7.225   7.300   7.654 -0.0245  0.0295  0.0078
  844POPE   C4B11272   7.129   7.719   7.738  0.1324  0.0656  0.0773
  845POPE   NH311273   0.492   0.663   6.755  0.2384 -0.1133  0.0704
  845POPE   PO411274   0.893   0.659   6.916  0.1227 -0.2571 -0.1530
  845POPE   GL111275   0.855   0.825   7.217  0.3735 -0.2241  0.3150
  845POPE   GL211276   0.593   0.578   7.285 -0.3410 -0.1657  0.1122
  845POPE   C1A11277   0.841   0.998   7.661  0.0657 -0.1052 -0.1118
  845POPE   D2A11278   0.894   1.204   8.037  0.1082 -0.3096  0.1417
  845POPE   C3A11279   1.151   1.517   8.252  0.1617 -0.3476  0.1795
  845POPE   C4A11280   0.903   1.958   8.361 -0.1590 -0.1817 -0.0378
  845POPE   C1B11281   0.888   0.485   7.633  0.0911 -0.3284  0.2266
  845POPE   C2B11282   1.093   0.679   8.033  0.1650 -0.2109 -0.1273
  845POPE   C3B11283   1.029   0.742   8.440 -0.0787 -0.2592  0.3442
  845POPE   C4B11284   0.947   0.892   8.766  0.1819 -0.0983  0.4634
  846POPE   NH311285   6.168  13.906   6.112 -0.1386 -0.0118 -0.0252
  846POPE   PO411286   6.412  13.596   6.018  0.1628 -0.3360 -0.0438
  846POPE   GL111287   6.433  13.575   6.433 -0.0507 -0.1476 -0.0901
  846POPE   GL211288   6.549  13.949   6.478  0.1714 -0.1000  0.0031
  846POPE   C1A11289   6.209  13.519   6.815 -0.3150  0.2015  0.6100
  846POPE   D2A11290   6.156  13.338   7.238  0.1685 -0.0480 -0.0234
  846POPE   C3A11291   6.350  12.996   7.367 -0.1921 -0.0591  0.1253
  846POPE   C4A11292   6.441  12.577   7.144 -0.0036  0.0441  0.0107
  846POPE   C1B11293   6.413  13.948   6.810  0.2028  0.2565  0.0572
  846POPE   C2B11294   6.337  13.825   7.191  0.1738 -0.1909 -0.2569
  846POPE   C3B11295   6.448  14.093   7.593  0.0767 -0.0582 -0.1779
  846POPE   C4B11296   6.559  14.243   8.062  0.0435  0.1531  0.1717
  847POPE   NH311297  12.107   6.924   6.135 -0.2466  0.0132 -0.1305
  847POPE   PO411298  12.435   7.193   6.226 -0.1877  0.0326  0.2049
  847POPE   GL111299  12.556   7.474   6.471 -0.2591 -0.0470  0.3513
  847POPE   GL211300  12.397   7.415   6.726  0.2709  0.0968  0.0539
  847POPE   C1A11301  12.602   7.935   6.488  0.0529  0.1458  0.2692
  847POPE   D2A11302  12.946   8.256   6.592  0.1551  0.1853 -0.1871
  847POPE   C3A11303  13.274   8.058   6.888 -0.2304 -0.0220  0.1719
  847POPE   C4A11304  13.504   8.037   7.313  0.2453  0.0663 -0.0626
  847POPE   C1B11305  12.521   7.235   7.086 -0.0977  0.0162  0.0225
  847POPE   C2B11306  12.631   7.542   7.480  0.6040 -0.0312 -0.1625
  847POPE   C3B11307  12.750   7.493   7.981  0.2627  0.1206 -0.2597
  847POPE   C4B11308  12.530   7.459   8.283 -0.0608  0.0889  0.2096
  848POPE   NH311309  10.375  10.651   6.285  0.1219  0.2208  0.0675
  848POPE   PO411310  10.748  10.896   6.096 -0.1075 -0.0419  0.0252
  848POPE   GL111311  11.089  11.065   6.443  0.3300  0.4328  0.1065
  848POPE   GL211312  11.433  11.037   6.453  0.2053  0.0052 -0.0397
  848POPE   C1A11313  10.882  11.230   6.869  0.1621  0.0443  0.0587
  848POPE   D2A11314  10.832  11.217   7.318  0.2796  0.0180  0.2302
  848POPE   C3A11315  11.024  11.298   7.603  0.0228  0.1162  0.1545
  848POPE   C4A11316  10.913  11.461   8.009  0.0345 -0.0932 -0.1677
  848POPE   C1B11317  11.372  11.069   6.807 -0.0057  0.0202  0.0523
  848POPE   C2B11318  11.373  11.208   7.187 -0.4977  0.2222 -0.3700
  848POPE   C3B11319  11.484  11.303   7.520  0.1191 -0.0350  0.1950
  848POPE   C4B11320  11.812  11.520   7.718 -0.0945 -0.0470 -0.0651
  849POPE   NH311321  17.469  16.099   6.750 -0.1220  0.1574  0.1079
  849POPE   PO411322  17.242  16.354   6.470  0.1704 -0.2621 -0.1397
  849POPE   GL111323  16.934  16.225   6.706 -0.0600  0.0903 -0.1014
  849POPE   GL211324  17.004  16.269   7.014  0.2940 -0.2538  0.1594
  849POPE   C1A11325  16.571  15.952   6.901 -0.2925 -0.0197 -0.3425
  849POPE   D2A11326  16.478  15.844   7.315  0.2528  0.1845  0.4574
  849POPE   C3A11327  16.224  15.924   7.610  0.0656 -0.1251  0.1343
  849POPE   C4A11328  15.984  15.959   8.001  0.3759  0.0319  0.1588
  849POPE   C1B11329  17.208  16.279   7.397 -0.1899  0.1393 -0.0196
  849POPE   C2B11330  17.471  16.337   7.766  0.2551  0.5553 -0.0454
  849POPE   C3B11331  17.430  16.238   8.114 -0.1166 -0.3611  0.3795
  849POPE   C4B11332  17.545  16.061   8.460 -0.1493  0.1042 -0.0255
  850POPE   NH311333   1.652  13.407   6.082  0.2025 -0.0932 -0.1726
  850POPE   PO411334   1.200  13.326   6.196  0.2157  0.3041 -0.1687
  850POPE   GL111335   1.347  13.222   6.585  0.2425  0.2189 -0.0015
  850POPE   GL211336   1.590  13.225   6.715 -0.1538  0.0229  0.0903
  850POPE   C1A11337   1.181  13.275   7.038  0.0053 -0.0510 -0.0915
  850POPE   D2A11338   1.084  13.483   7.352 -0.1469  0.1832  0.0012
  850POPE   C3A11339   1.340  13.770   7.560 -0.1390  0.0845  0.0153
  850POPE   C4A11340   1.534  14.160   7.792 -0.4171  0.1102  0.0041
  850POPE   C1B11341   1.652  12.783   6.746 -0.0547  0.0844 -0.1311
  850POPE   C2B11342   1.656  12.541   7.029  0.1216  0.0940  0.1640
  850POPE   C3B11343   1.622  12.088   7.269 -0.1718  0.0288 -0.2755
  850POPE   C4B11344   1.627  11.710   7.405  0.1348 -0.1637 -0.0829
  851POPE   NH311345   6.562   0.166   5.923 -0.2139  0.0420  0.1246
  851POPE   PO411346   6.889  -0.208   5.941  0.0261 -0.0015 -0.0103
  851POPE   GL111347   6.906  -0.044   6.273 -0.0306 -0.2774  0.0011
  851POPE   GL211348   6.902   0.292   6.290  0.0995 -0.1719  0.1806
  851POPE   C1A11349   7.082  -0.019   6.682 -0.1125  0.2360 -0.1811
  851POPE   D2A11350   7.210  -0.429   6.841  0.0427  0.2414  0.3951
  851POPE   C3A11351   7.310  -0.493   7.288 -0.2465 -0.0487  0.0869
  851POPE   C4A11352   7.290  -0.299   7.763 -0.2145  0.3044  0.0272
  851POPE   C1B11353   7.039   0.494   6.668  0.1357 -0.0053  0.1381
  851POPE   C2B11354   7.163   0.788   6.979  0.0090  0.1624 -0.1031
  851POPE   C3B11355   7.287   0.787   7.325 -0.0234  0.2003  0.1018
  851POPE   C4B11356   7.559   0.769   7.696 -0.1337  0.3556 -0.1487
  852POPE   NH311357   4.074   5.929   6.258 -0.0998  0.2116 -0.1532
  852POPE   PO411358   3.848   5.592   6.037  0.3257  0.2332  0.0500
  852POPE   GL111359   3.724   5.249   6.221  0.1855 -0.0891 -0.2589
  852POPE   GL211360   3.874   5.115   6.475  0.3390  0.1117 -0.0165
  852POPE   C1A11361   3.353   5.208   6.492  0.3287 -0.1954 -0.0931
  852POPE   D2A11362   3.170   5.228   6.852 -0.2810 -0.1032  0.0735
  852POPE   C3A11363   3.299   4.986   7.199  0.2372  0.4500 -0.1486
  852POPE   C4A11364   3.450   5.067   7.625  0.1159 -0.2431  0.0871
  852POPE   C1B11365   3.622   4.894   6.851  0.0890 -0.0540 -0.0819
  852POPE   C2B11366   3.543   4.539   7.165  0.1480 -0.0963  0.0545
  852POPE   C3B11367   3.312   4.539   7.559  0.0998  0.0302 -0.1868
  852POPE   C4B11368   3.037   4.805   7.789  0.0471  0.2384  0.1181
  853POPE   NH311369  15.647   7.617   6.091 -0.0722  0.1740  0.2118
  853POPE   PO411370  15.930   8.006   6.091 -0.0117 -0.1508  0.0308
  853POPE   GL111371  15.890   7.776   6.526 -0.0503  0.2151  0.0668
  853POPE   GL211372  15.563   7.736   6.609 -0.1065  0.1773  0.1214
  853POPE   C1A11373  15.961   7.860   6.948  0.1318  0.0745  0.0242
  853POPE   D2A11374  16.093   7.529   7.167  0.0553  0.1224 -0.2102
  853POPE   C3A11375  16.342   7.587   7.558  0.1920  0.0873  0.0347
  853POPE   C4A11376  16.652   7.508   7.867  0.1764  0.1443 -0.1123
  853POPE   C1B11377  15.543   7.628   7.025  0.0366  0.2095  0.1167
  853POPE   C2B11378  15.416   7.616   7.457  0.1889 -0.2450 -0.1275
  853POPE   C3B11379  15.464   7.807   7.860 -0.5424 -0.3333 -0.1452
  853POPE   C4B11380  15.744   7.869   8.234  0.2485 -0.0722  0.0103
  854POPE   NH311381  10.269   7.710   5.964 -0.1564 -0.1949  0.0240
  854POPE   PO411382  10.325   7.256   6.008  0.0718  0.0267  0.1758
  854POPE   GL111383  10.228   7.234   6.429  0.2094  0.0765  0.2170
  854POPE   GL211384  10.318   7.457   6.611 -0.1266  0.4093 -0.1000
  854POPE   C1A11385  10.233   6.893   6.728  0.0260  0.5587 -0.1453
  854POPE   D2A11386  10.507   6.720   7.015  0.2972 -0.1013 -0.1558
  854POPE   C3A11387  10.477   6.665   7.455 -0.1941 -0.1784 -0.0195
  854POPE   C4A11388  10.692   6.874   7.792 -0.0832 -0.1076 -0.1111
  854POPE   C1B11389  10.290   7.318   7.067 -0.0649  0.0605  0.1109
  854POPE   C2B11390  10.233   7.085   7.368  0.0683 -0.1965  0.0546
  854POPE   C3B11391  10.119   6.819   7.745 -0.0864  0.2522 -0.3155
  854POPE   C4B11392  10.231   6.408   7.849  0.1893 -0.0128  0.2090
  855POPE   NH311393  11.746  14.117   5.823 -0.0521 -0.1723  0.0521
  855POPE   PO411394  11.619  13.675   5.999  0.1817 -0.1521  0.2116
  855POPE   GL111395  11.815  13.474   6.299 -0.0932 -0.0487  0.0820
  855POPE   GL211396  11.533  13.356   6.485 -0.1591  0.0879 -0.1391
  855POPE   C1A11397  11.991  13.373   6.669 -0.1393 -0.1953 -0.2400
  855POPE   D2A11398  11.986  13.320   7.136  0.1870  0.2580 -0.2025
  855POPE   C3A11399  11.841  13.452   7.519  0.1071 -0.0978  0.2149
  855POPE   C4A11400  11.547  13.599   7.853  0.1835 -0.0145 -0.0606
  855POPE   C1B11401  11.228  13.498   6.816  0.1488 -0.1293  0.0058
  855POPE   C2B11402  11.250  13.689   7.196 -0.1932 -0.3360 -0.0250
  855POPE   C3B11403  11.148  13.698   7.542 -0.2047  0.1501  0.2223
  855POPE   C4B11404  11.165  13.895   7.914 -0.1083 -0.1614 -0.0403
  856POPE   NH311405  16.639   3.862   5.524 -0.0574  0.0206 -0.2940
  856POPE   PO411406  17.001   4.005   5.655  0.0348 -0.2300  0.0968
  856POPE   GL111407  16.725   3.925   6.071 -0.1963 -0.3017  0.2260
  856POPE   GL211408  16.731   4.296   6.156 -0.0151 -0.0274  0.0975
  856POPE   C1A11409  16.350   3.801   6.138  0.0296  0.1219  0.1816
  856POPE   D2A11410  16.120   3.567   6.427  0.0124  0.1814 -0.2996
  856POPE   C3A11411  16.118   3.866   6.763  0.0339  0.1182 -0.2075
  856POPE   C4A11412  16.392   4.089   7.132 -0.2315  0.1560  0.1514
  856POPE   C1B11413  16.889   4.462   6.549 -0.0580 -0.0171  0.1239
  856POPE   C2B11414  17.060   4.383   7.043  0.0918 -0.2755  0.2730
  856POPE   C3B11415  16.781   4.150   7.443 -0.0366 -0.2297  0.1483
  856POPE   C4B11416  16.533   4.256   7.792  0.3346  0.0127  0.1631
  857POPE   NH311417  12.649   5.187   5.610  0.0816 -0.0361  0.0474
  857POPE   PO411418  12.772   5.212   6.131 -0.0924  0.3147 -0.1098
  857POPE   GL111419  12.704   5.375   6.541  0.0696 -0.1294  0.0240
  857POPE   GL211420  12.465   5.607   6.492  0.0173  0.2037  0.2263
  857POPE   C1A11421  12.889   5.460   6.941 -0.1448 -0.2160 -0.0530
  857POPE   D2A11422  13.160   5.323   7.354  0.2597 -0.1435  0.1596
  857POPE   C3A11423  13.255   5.239   7.778 -0.1311  0.1668  0.1476
  857POPE   C4A11424  13.138   5.301   8.181 -0.2155 -0.5339  0.2021
  857POPE   C1B11425  12.172   5.884   6.760 -0.2491 -0.3641 -0.1770
  857POPE   C2B11426  12.029   5.940   7.227 -0.2644  0.0485 -0.2354
  857POPE   C3B11427  11.989   5.760   7.635  0.0465  0.1097 -0.1872
  857POPE   C4B11428  12.117   5.869   7.970  0.2282  0.1036 -0.0757
  858POPE   NH311429   8.840  13.094   6.406  0.2507  0.2023  0.1601
  858POPE   PO411430   8.842  13.485   6.421  0.0000  0.1937  0.0552
  858POPE   GL111431   9.140  13.464   6.694 -0.1724 -0.0189 -0.0691
  858POPE   GL211432   9.111  13.196   6.926 -0.3477 -0.0235  0.1264
  858POPE   C1A11433   9.313  13.662   7.102  0.0636 -0.0021  0.0700
  858POPE   D2A11434   9.312  13.749   7.526 -0.2168 -0.0932 -0.0112
  858POPE   C3A11435   9.683  13.860   7.770 -0.0086 -0.1646  0.0228
  858POPE   C4A11436  10.033  13.938   8.063  0.1751 -0.1556  0.0813
  858POPE   C1B11437   9.244  12.907   7.289 -0.3190 -0.0280  0.0625
  858POPE   C2B11438   9.486  12.759   7.633  0.1172 -0.1580  0.2617
  858POPE   C3B11439   9.800  12.837   7.863  0.1833  0.0607 -0.2407
  858POPE   C4B11440  10.053  12.561   8.113  0.3587  0.1547  0.0436
  859POPE   NH311441   4.029   1.850   5.671  0.0256 -0.2195  0.3028
  859POPE   PO411442   3.872   2.038   6.102 -0.0356  0.0591  0.2841
  859POPE   GL111443   3.848   2.089   6.467 -0.1866 -0.3540 -0.3143
  859POPE   GL211444   3.487   2.236   6.494  0.0755  0.1935 -0.1553
  859POPE   C1A11445   3.890   1.965   6.945  0.0710 -0.0463 -0.3593
  859POPE   D2A11446   3.858   2.125   7.470  0.3077  0.1516  0.1573
  859POPE   C3A11447   3.924   2.571   7.674  0.2446  0.0478 -0.0622
  859POPE   C4A11448   3.990   2.813   8.073 -0.2018 -0.0675  0.2250
  859POPE   C1B11449   3.572   2.315   6.946  0.0154 -0.0808 -0.0989
  859POPE   C2B11450   3.538   2.563   7.348 -0.0457 -0.0212  0.0918
  859POPE   C3B11451   3.483   2.335   7.771  0.0987 -0.2593  0.1580
  859POPE   C4B11452   3.502   1.967   7.937 -0.1458  0.1406 -0.0710
  860POPE   NH311453   3.815  11.070   6.288  0.0767  0.0481 -0.2259
  860POPE   PO411454   3.639  11.371   6.453 -0.1172 -0.2180 -0.1507
  860POPE   GL111455   3.333  11.163   6.636 -0.3337  0.2276  0.0529
  860POPE   GL211456   3.141  11.418   6.691 -0.0767  0.0135  0.1810
  860POPE   C1A11457   3.247  11.150   7.087  0.0787 -0.2651 -0.0266
  860POPE   D2A11458   3.202  11.248   7.499 -0.0728  0.0881 -0.2999
  860POPE   C3A11459   2.923  11.087   7.757 -0.0425 -0.1254 -0.2028
  860POPE   C4A11460   2.636  11.383   8.084  0.0015  0.0293  0.0312
  860POPE   C1B11461   3.114  11.653   7.013  0.0715 -0.0685 -0.0759
  860POPE   C2B11462   3.161  11.926   7.381 -0.2343  0.1859 -0.0061
  860POPE   C3B11463   3.361  12.112   7.858  0.2694 -0.0373 -0.0061
  860POPE   C4B11464   3.525  12.410   8.189  0.0762  0.0859  0.0604
  861POPE   NH311465   7.490   9.657   6.160 -0.1275  0.0681 -0.0048
  861POPE   PO411466   7.754  10.037   6.162 -0.1669  0.5975  0.0495
  861POPE   GL111467   7.775   9.955   6.587 -0.4417 -0.3564  0.0217
  861POPE   GL211468   7.822   9.733   6.633  0.0103 -0.0009  0.1988
  861POPE   C1A11469   7.822   9.941   7.068  0.0830 -0.0865  0.2506
  861POPE   D2A11470   7.727   9.844   7.419  0.0681 -0.0855  0.0462
  861POPE   C3A11471   7.719  10.052   7.699  0.0658 -0.2225 -0.1908
  861POPE   C4A11472   7.546  10.417   7.864 -0.1831  0.1293  0.1486
  861POPE   C1B11473   7.990   9.500   6.847 -0.1282  0.0030 -0.2727
  861POPE   C2B11474   7.863   9.391   7.198 -0.1903  0.1583  0.1222
  861POPE   C3B11475   7.845   9.407   7.582 -0.3539  0.1687  0.1765
  861POPE   C4B11476   7.779   9.629   7.954 -0.2654  0.3571  0.2359
  862POPE   NH311477  14.320  13.349   6.423 -0.1849  0.0420  0.1771
  862POPE   PO411478  14.110  13.792   6.438  0.0943 -0.1172  0.0078
  862POPE   GL111479  14.172  13.622   6.807  0.3237 -0.1688  0.0447
  862POPE   GL211480  13.980  13.296   6.856 -0.0267 -0.4711  0.1207
  862POPE   C1A11481  14.425  13.776   7.125 -0.1153  0.1325  0.3420
  862POPE   D2A11482  14.774  13.989   7.295  0.0555 -0.0817  0.0150
  862POPE   C3A11483  14.837  13.977   7.679 -0.0179  0.1635 -0.0192
  862POPE   C4A11484  14.873  14.211   8.119  0.1368 -0.3886  0.3355
  862POPE   C1B11485  13.691  13.147   7.238 -0.2905  0.0167 -0.0482
  862POPE   C2B11486  13.408  13.372   7.560  0.2969  0.0561  0.3942
  862POPE   C3B11487  13.199  13.624   7.823  0.0787 -0.3734 -0.2842
  862POPE   C4B11488  13.003  14.023   7.725 -0.0002  0.1928 -0.1187
  863POPE   NH311489   0.944   7.587   6.053 -0.0581 -0.0072 -0.0809
  863POPE   PO411490   0.793   7.231   6.188 -0.2957  0.1879 -0.0031
  863POPE   GL111491   0.767   7.425   6.567 -0.0376  0.0825 -0.2634
  863POPE   GL211492   0.987   7.583   6.646  0.1586  0.2344  0.2874
  863POPE   C1A11493   0.538   7.738   6.831  0.1451  0.0398 -0.0161
  863POPE   D2A11494   0.551   7.928   7.201 -0.0375  0.3901 -0.0278
  863POPE   C3A11495   0.207   7.913   7.455 -0.0561 -0.1457 -0.0315
  863POPE   C4A11496  -0.185   7.793   7.753  0.0453 -0.0452  0.5517
  863POPE   C1B11497   0.945   7.531   7.075 -0.2060 -0.2258 -0.1610
  863POPE   C2B11498   0.880   7.608   7.523 -0.1730  0.0120  0.0900
  863POPE   C3B11499   0.666   7.575   7.877 -0.4122 -0.0940  0.1542
  863POPE   C4B11500   0.234   7.489   7.788 -0.2048 -0.1846  0.0833
  864POPE   NH311501  10.081  16.576   5.478  0.0907 -0.0726  0.1023
  864POPE   PO411502  10.153  16.996   5.478  0.2473  0.0923  0.0937
  864POPE   GL111503  10.149  17.081   5.882 -0.0512 -0.1183 -0.2543
  864POPE   GL211504  10.307  17.166   6.021 -0.0036 -0.0781  0.1338
  864POPE   C1A11505   9.887  17.150   6.249  0.1779  0.0579 -0.0406
  864POPE   D2A11506   9.814  16.950   6.545 -0.0614 -0.2903 -0.0054
  864POPE   C3A11507   9.768  16.963   7.006  0.0006 -0.0776  0.0720
  864POPE   C4A11508   9.674  17.101   7.338  0.2753  0.0478 -0.2214
  864POPE   C1B11509  10.298  16.938   6.374 -0.1248 -0.0554 -0.4089
  864POPE   C2B11510  10.259  16.933   6.816  0.0761 -0.4793  0.4698
  864POPE   C3B11511  10.179  16.941   7.241  0.0081  0.0102  0.0917
  864POPE   C4B11512  10.048  16.939   7.678  0.1685  0.1160  0.3794
  865POPE   NH311513   6.324   6.243   6.111  0.1918 -0.0713 -0.0592
  865POPE   PO411514   6.298   6.690   6.088 -0.1075  0.1875 -0.1923
  865POPE   GL111515   6.215   6.562   6.521 -0.2204 -0.0077  0.1402
  865POPE   GL211516   5.916   6.559   6.737 -0.0868 -0.1242  0.3596
  865POPE   C1A11517   6.495   6.621   6.884 -0.0917  0.2034 -0.0764
  865POPE   D2A11518   6.639   6.514   7.263 -0.2916  0.0761  0.3586
  865POPE   C3A11519   6.707   6.525   7.732  0.0770 -0.0540  0.1232
  865POPE   C4A11520   6.777   6.345   8.111  0.1367 -0.0008  0.1257
  865POPE   C1B11521   6.009   6.582   7.067  0.2505 -0.1371 -0.1841
  865POPE   C2B11522   6.274   6.757   7.406  0.3498  0.0548  0.2291
  865POPE   C3B11523   6.259   6.762   7.799  0.0906  0.2029  0.0451
  865POPE   C4B11524   6.270   6.507   8.157 -0.0938  0.1524  0.1247
  866POPE   NH311525   0.007   0.995   6.420  0.1356 -0.1031 -0.1765
  866POPE   PO411526  -0.304   1.223   6.123  0.3988  0.0804 -0.0266
  866POPE   GL111527  -0.195   1.475   6.532  0.0234 -0.0629  0.0186
  866POPE   GL211528  -0.267   1.866   6.444 -0.2007 -0.1958 -0.0517
  866POPE   C1A11529  -0.191   1.633   7.029 -0.1588 -0.4109 -0.1128
  866POPE   D2A11530  -0.240   1.591   7.444  0.2557 -0.2151 -0.2154
  866POPE   C3A11531   0.000   1.537   7.807  0.0393 -0.0938  0.2754
  866POPE   C4A11532  -0.277   1.490   8.155  0.2248  0.0626 -0.0636
  866POPE   C1B11533  -0.543   1.945   6.780  0.0479 -0.1127  0.2815
  866POPE   C2B11534  -0.642   1.908   7.224 -0.2670  0.1332 -0.2698
  866POPE   C3B11535  -0.729   2.095   7.580  0.3792  0.2305  0.1545
  866POPE   C4B11536  -0.721   2.273   7.929 -0.1288  0.4901 -0.1309
  867POPE   NH311537  15.386  16.511   6.546 -0.3395 -0.3126  0.1254
  867POPE   PO411538  15.115  16.678   6.312  0.0459  0.1362 -0.1059
  867POPE   GL111539  14.909  16.364   6.409 -0.1002  0.1096  0.1032
  867POPE   GL211540  14.910  16.217   6.618  0.2535 -0.0918  0.0627
  867POPE   C1A11541  14.552  16.470   6.720  0.0860 -0.0555  0.0151
  867POPE   D2A11542  14.329  16.857   6.858 -0.0495 -0.0826 -0.0094
  867POPE   C3A11543  14.165  17.086   7.249  0.0118  0.0330  0.2490
  867POPE   C4A11544  14.062  17.310   7.679 -0.2468 -0.1055 -0.1319
  867POPE   C1B11545  14.947  16.410   7.043 -0.2019  0.0344 -0.2216
  867POPE   C2B11546  14.531  16.582   7.292 -0.1517  0.0050 -0.1595
  867POPE   C3B11547  14.200  16.750   7.594 -0.3784 -0.0439 -0.1051
  867POPE   C4B11548  13.954  16.855   7.927 -0.4059  0.1342 -0.2943
  868POPE   NH311549   5.908  16.385   6.270  0.2521 -0.0557  0.0472
  868POPE   PO411550   5.890  16.657   6.035 -0.2186  0.1414  0.1574
  868POPE   GL111551   6.214  16.742   6.408 -0.0872  0.0339 -0.1002
  868POPE   GL211552   6.032  16.918   6.581 -0.0346  0.0289 -0.1607
  868POPE   C1A11553   6.538  16.664   6.705 -0.0696 -0.1438  0.2756
  868POPE   D2A11554   6.508  16.639   7.177  0.3501  0.0523  0.1842
  868POPE   C3A11555   6.571  16.881   7.567  0.2528 -0.0884 -0.0124
  868POPE   C4A11556   6.753  16.836   8.011 -0.0272  0.2651 -0.0944
  868POPE   C1B11557   6.155  16.853   6.928  0.2971  0.0973 -0.0279
  868POPE   C2B11558   6.053  16.890   7.319 -0.1573  0.1496 -0.1719
  868POPE   C3B11559   6.087  16.647   7.668 -0.1062 -0.2374 -0.0265
  868POPE   C4B11560   6.129  16.360   8.001 -0.1267  0.1275 -0.0662
  869POPE   NH311561   7.787   7.694   6.284  0.3801  0.0111 -0.1245
  869POPE   PO411562   8.224   7.749   6.047  0.0272 -0.2892  0.2659
  869POPE   GL111563   8.317   7.800   6.501 -0.2247  0.0767 -0.1311
  869POPE   GL211564   8.221   7.543   6.572 -0.1940 -0.0610 -0.1287
  869POPE   C1A11565   8.325   8.227   6.744 -0.1477  0.1899  0.0951
  869POPE   D2A11566   8.056   8.480   6.959 -0.1399 -0.3063  0.1383
  869POPE   C3A11567   8.172   8.895   6.857 -0.2227 -0.0814 -0.2749
  869POPE   C4A11568   8.218   9.118   6.522 -0.0625  0.2985 -0.0952
  869POPE   C1B11569   8.222   7.456   7.006  0.0736 -0.0900 -0.0045
  869POPE   C2B11570   8.146   7.586   7.376  0.2038  0.0507 -0.0187
  869POPE   C3B11571   8.162   7.779   7.759 -0.1543 -0.0904 -0.0864
  869POPE   C4B11572   8.385   7.795   8.091 -0.2010 -0.0761 -0.5716
  870POPE   NH311573   6.439  16.480   6.029  0.0074  0.0803 -0.4069
  870POPE   PO411574   6.627  16.280   5.651  0.0978 -0.1119  0.0087
  870POPE   GL111575   6.774  16.099   6.108  0.1255  0.3081  0.0034
  870POPE   GL211576   7.009  16.278   6.135  0.1848  0.2629 -0.4940
  870POPE   C1A11577   6.779  15.807   6.485  0.0339  0.3614 -0.1422
  870POPE   D2A11578   7.008  15.593   6.780  0.2524  0.1022 -0.2743
  870POPE   C3A11579   6.882  15.212   6.944 -0.2582  0.0191 -0.0855
  870POPE   C4A11580   6.915  15.004   7.394 -0.3185  0.0075  0.2558
  870POPE   C1B11581   6.939  16.314   6.641 -0.0561 -0.2036 -0.0893
  870POPE   C2B11582   6.919  16.407   7.109 -0.1748  0.0702  0.1379
  870POPE   C3B11583   7.070  16.445   7.446  0.0429  0.1722  0.0549
  870POPE   C4B11584   7.216  16.640   7.815  0.2414 -0.2361 -0.3637
  871POPE   NH311585   3.576   8.477   5.875 -0.0705  0.1479 -0.2425
  871POPE   PO411586   3.784   8.139   5.896  0.0542  0.0162  0.2625
  871POPE   GL111587   3.636   8.073   6.270  0.2215 -0.1259 -0.0182
  871POPE   GL211588   3.800   7.779   6.310  0.1838  0.1364  0.1317
  871POPE   C1A11589   3.362   8.136   6.779 -0.4424  0.0755 -0.0206
  871POPE   D2A11590   3.331   7.959   7.109  0.0156 -0.0167 -0.1392
  871POPE   C3A11591   3.327   7.582   7.138  0.0069  0.3407  0.2848
  871POPE   C4A11592   3.244   7.223   7.365  0.0755  0.0874 -0.1464
  871POPE   C1B11593   3.692   7.737   6.733  0.1085  0.1292 -0.2770
  871POPE   C2B11594   3.865   7.981   7.059  0.0797 -0.1442 -0.3328
  871POPE   C3B11595   4.048   8.346   7.140 -0.0675  0.1308 -0.3262
  871POPE   C4B11596   3.811   8.556   7.338  0.2161  0.0053 -0.0025
  872YOPE   NH311597   2.678  14.476   6.249  0.0937  0.0759  0.1257
  872YOPE   PO411598   3.033  14.737   6.319  0.2202  0.0450  0.2352
  872YOPE   GL111599   3.043  14.574   6.686  0.1143 -0.0750 -0.2012
  872YOPE   GL211600   3.086  14.300   6.649  0.0984 -0.0336  0.1072
  872YOPE   C1A11601   2.882  14.569   7.082 -0.0727  0.3306  0.1290
  872YOPE   D2A11602   3.026  14.519   7.461  0.4272  0.1139  0.0686
  872YOPE   C3A11603   2.957  14.744   7.764  0.1106  0.1441 -0.0709
  872YOPE   C4A11604   3.165  15.010   8.136 -0.0812  0.0993  0.0123
  872YOPE   C1B11605   3.389  14.384   6.996 -0.0221  0.1345  0.0864
  872YOPE   C2B11606   3.621  14.345   7.325 -0.1458  0.2312 -0.3109
  872YOPE   D3B11607   3.336  14.296   7.785 -0.0943 -0.4545  0.0408
  872YOPE   C4B11608   3.420  14.539   8.105  0.0975  0.0282 -0.3585
  873YOPE   NH311609   4.822  10.234   6.007  0.2167  0.2349  0.0859
  873YOPE   PO411610   5.158   9.813   5.928 -0.0470 -0.0799  0.2617
  873YOPE   GL111611   5.042  10.011   6.351 -0.0087  0.1059 -0.0500
  873YOPE   GL211612   5.030  10.350   6.451  0.0799  0.0467  0.1443
  873YOPE   C1A11613   5.220  10.017   6.801  0.0435  0.2249 -0.0452
  873YOPE   D2A11614   5.315   9.970   7.223 -0.2857  0.0908  0.1517
  873YOPE   C3A11615   5.213   9.864   7.644  0.4241  0.1290  0.0210
  873YOPE   C4A11616   5.292   9.938   8.065 -0.2343  0.1205  0.0127
  873YOPE   C1B11617   5.065  10.517   6.785 -0.3446  0.0409  0.3478
  873YOPE   C2B11618   5.159  10.494   7.183  0.4184  0.0899 -0.0692
  873YOPE   D3B11619   5.294  10.371   7.659  0.0225  0.4379 -0.0315
  873YOPE   C4B11620   5.068  10.371   8.053 -0.0638 -0.2471  0.0958
  874YOPE   NH311621  11.639  15.014   6.013  0.1967  0.2449  0.2074
  874YOPE   PO411622  11.652  14.586   5.797  0.0503  0.3765 -0.0960
  874YOPE   GL111623  11.675  14.584   6.221 -0.2364  0.2917  0.0087
  874YOPE   GL211624  11.508  14.357   6.303  0.1644 -0.0216 -0.0115
  874YOPE   C1A11625  11.814  14.319   6.695 -0.0703 -0.0130  0.1956
  874YOPE   D2A11626  11.809  14.282   7.189  0.1374  0.1222  0.0210
  874YOPE   C3A11627  11.714  14.438   7.512 -0.1657  0.1051  0.0988
  874YOPE   C4A11628  11.583  14.226   7.899 -0.1362  0.2909  0.3421
  874YOPE   C1B11629  11.383  14.701   6.626 -0.0831  0.2836 -0.2316
  874YOPE   C2B11630  11.422  14.615   7.093  0.0365 -0.1695  0.0242
  874YOPE   D3B11631  11.297  14.807   7.422  0.1701  0.2721 -0.1958
  874YOPE   C4B11632  11.135  14.662   7.879 -0.0201 -0.4452  0.0332
  875YOPE   NH311633   5.878  12.406   5.581 -0.1593 -0.2028  0.1707
  875YOPE   PO411634   6.079  12.163   5.949 -0.2639 -0.0692 -0.0335
  875YOPE   GL111635   6.129  12.061   6.354 -0.0837  0.3853  0.0716
  875YOPE   GL211636   6.225  11.775   6.557 -0.0664 -0.0060  0.1735
  875YOPE   C1A11637   5.910  12.187   6.670 -0.1484  0.0189  0.0768
  875YOPE   D2A11638   6.022  12.405   6.989  0.1420 -0.0244  0.0474
  875YOPE   C3A11639   6.140  12.174   7.330 -0.0140 -0.3194 -0.2418
  875YOPE   C4A11640   6.325  11.949   7.719  0.2537 -0.0710 -0.1264
  875YOPE   C1B11641   6.424  12.040   6.759 -0.0958  0.1767 -0.2243
  875YOPE   C2B11642   6.589  12.009   7.189 -0.2215  0.1141 -0.1216
  875YOPE   D3B11643   6.806  11.900   7.557  0.1961  0.2095  0.0742
  875YOPE   C4B11644   7.069  11.995   7.791  0.0274 -0.0975 -0.1741
  876YOPE   NH311645  12.475   3.456   6.132  0.0826 -0.0755 -0.1207
  876YOPE   PO411646  12.236   3.326   5.809 -0.1407 -0.0970 -0.3339
  876YOPE   GL111647  12.032   3.163   6.166  0.1402 -0.0098 -0.0331
  876YOPE   GL211648  12.068   3.384   6.367  0.1404  0.0073 -0.1963
  876YOPE   C1A11649  12.055   2.892   6.538  0.1029  0.0207 -0.0762
  876YOPE   D2A11650  11.945   2.775   7.018 -0.0582  0.0514  0.1393
  876YOPE   C3A11651  12.259   2.922   7.416 -0.3738  0.2865  0.0950
  876YOPE   C4A11652  12.287   3.253   7.487 -0.2123  0.0412  0.3408
  876YOPE   C1B11653  11.965   3.673   6.559  0.0579  0.0162  0.0860
  876YOPE   C2B11654  11.697   3.689   6.943  0.3928  0.1521  0.0364
  876YOPE   D3B11655  11.537   3.732   7.308 -0.0570 -0.0986  0.1631
  876YOPE   C4B11656  11.449   3.916   7.778 -0.0513 -0.2682  0.1011
  877YOPE   NH311657   1.796  14.222   6.362  0.0197 -0.0460  0.1596
  877YOPE   PO411658   1.994  13.720   6.298  0.1534  0.0008 -0.0281
  877YOPE   GL111659   2.329  13.883   6.610 -0.1353  0.0015 -0.0552
  877YOPE   GL211660   2.244  14.203   6.590 -0.1672  0.1200  0.0654
  877YOPE   C1A11661   2.364  13.799   7.030 -0.1919 -0.0123  0.0339
  877YOPE   D2A11662   2.333  13.910   7.539 -0.2419 -0.3509 -0.1935
  877YOPE   C3A11663   2.207  13.676   7.846  0.0744  0.1927  0.0434
  877YOPE   C4A11664   2.053  13.881   8.167  0.1591 -0.0642  0.3118
  877YOPE   C1B11665   2.077  14.237   7.032  0.1283 -0.2552  0.0588
  877YOPE   C2B11666   2.058  14.393   7.397 -0.2301  0.1195  0.1748
  877YOPE   D3B11667   2.061  14.300   7.829  0.1444  0.0775 -0.0803
  877YOPE   C4B11668   2.336  14.251   8.207  0.0359 -0.0062  0.0554
  878YOPE   NH311669  17.506  10.000   6.316 -0.0272 -0.1323  0.0744
  878YOPE   PO411670  17.194   9.644   6.435  0.3408 -0.1276  0.1133
  878YOPE   GL111671  17.480   9.648   6.787  0.0723 -0.1191  0.0783
  878YOPE   GL211672  17.579   9.342   6.832 -0.0518  0.1428  0.0995
  878YOPE   C1A11673  17.496   9.666   7.274 -0.1948  0.0270 -0.0783
  878YOPE   D2A11674  17.322   9.535   7.675  0.0975 -0.0532 -0.1003
  878YOPE   C3A11675  17.000   9.812   7.938 -0.0865  0.2756 -0.1494
  878YOPE   C4A11676  17.178  10.113   8.185  0.0793  0.1299  0.2791
  878YOPE   C1B11677  17.321   9.207   7.247 -0.0158 -0.0714  0.0376
  878YOPE   C2B11678  17.328   8.960   7.677 -0.2077 -0.0555  0.4759
  878YOPE   D3B11679  17.141   8.785   8.080  0.1750 -0.0654  0.0139
  878YOPE   C4B11680  16.864   8.397   8.079  0.1589  0.0002 -0.1588
  879YOPE   NH311681   9.980   3.174   5.834  0.3440 -0.0754 -0.0722
  879YOPE   PO411682   9.848   2.834   5.947 -0.4375 -0.1984 -0.0640
  879YOPE   GL111683   9.855   3.030   6.405  0.0719  0.3392  0.0090
  879YOPE   GL211684   9.658   3.359   6.419  0.0467 -0.1599 -0.0153
  879YOPE   C1A11685   9.809   2.828   6.818  0.1545 -0.1529  0.0051
  879YOPE   D2A11686  10.207   2.843   7.106  0.0025  0.0513 -0.2042
  879YOPE   C3A11687  10.087   2.780   7.518  0.0294  0.2021  0.0836
  879YOPE   C4A11688  10.242   2.845   7.842  0.0611  0.1674  0.2002
  879YOPE   C1B11689   9.602   3.306   6.870  0.3807  0.1098  0.1501
  879YOPE   C2B11690   9.593   3.063   7.180 -0.0237  0.1758 -0.0108
  879YOPE   D3B11691   9.669   3.143   7.592 -0.1828 -0.1867 -0.1995
  879YOPE   C4B11692   9.782   2.930   7.958  0.1963 -0.2297  0.0982
  880YOPE   NH311693   5.611   3.338   5.925  0.0112  0.1577 -0.1235
  880YOPE   PO411694   5.261   3.406   6.022  0.1574 -0.3147 -0.1060
  880YOPE   GL111695   5.086   3.527   6.443 -0.0564 -0.0823 -0.5288
  880YOPE   GL211696   5.065   3.850   6.463  0.0976 -0.3751  0.2194
  880YOPE   C1A11697   5.060   3.620   6.917 -0.4220 -0.0434  0.1441
  880YOPE   D2A11698   4.786   3.853   7.190 -0.4201  0.0063  0.1161
  880YOPE   C3A11699   4.370   3.644   7.420 -0.3622 -0.0308  0.1814
  880YOPE   C4A11700   4.466   3.451   7.810 -0.0019 -0.0600  0.2403
  880YOPE   C1B11701   5.416   3.930   6.681 -0.0254 -0.1475 -0.1942
  880YOPE   C2B11702   5.550   3.901   7.122 -0.1044  0.0532  0.1292
  880YOPE   D3B11703   5.392   3.928   7.511 -0.0673  0.2019 -0.1808
  880YOPE   C4B11704   5.361   3.757   7.871 -0.0701 -0.1972  0.0784
  881YOPE   NH311705   2.948  10.668   5.979 -0.0541 -0.2146 -0.2687
  881YOPE   PO411706   3.018  10.356   6.062  0.1956  0.0228 -0.2784
  881YOPE   GL111707   2.893  10.221   6.409 -0.0201 -0.0183 -0.1811
  881YOPE   GL211708   3.134  10.247   6.577 -0.0239  0.1854 -0.1638
  881YOPE   C1A11709   2.720  10.275   6.826  0.2125  0.3409  0.1254
  881YOPE   D2A11710   2.770  10.320   7.195 -0.2680  0.1793  0.0823
  881YOPE   C3A11711   2.502  10.245   7.640 -0.2301  0.0687  0.3619
  881YOPE   C4A11712   2.399  10.210   8.088  0.1000  0.1489 -0.1621
  881YOPE   C1B11713   3.172  10.048   6.934 -0.0774  0.0808 -0.0101
  881YOPE   C2B11714   3.146  10.076   7.386 -0.0921  0.0523  0.1243
  881YOPE   D3B11715   3.333   9.981   7.601 -0.4028  0.0118  0.0105
  881YOPE   C4B11716   3.509  10.084   7.960  0.3532  0.0435 -0.4019
  882YOPE   NH311717   4.065   0.579   6.299 -0.2064  0.2806 -0.0157
  882YOPE   PO411718   4.106   1.035   6.447  0.2300  0.2079  0.1390
  882YOPE   GL111719   4.087   0.827   6.783 -0.0970  0.0870  0.1678
  882YOPE   GL211720   4.043   0.361   6.864  0.0168 -0.2777  0.1941
  882YOPE   C1A11721   4.249   0.757   7.224 -0.2099  0.0937  0.1060
  882YOPE   D2A11722   4.341   0.954   7.701  0.1023 -0.0756 -0.0838
  882YOPE   C3A11723   4.265   1.109   8.138  0.0256  0.0059 -0.0354
  882YOPE   C4A11724   3.881   1.046   8.407 -0.0117  0.0299 -0.1401
  882YOPE   C1B11725   3.974   0.332   7.251  0.0654  0.4540 -0.2023
  882YOPE   C2B11726   4.045   0.387   7.683 -0.0037  0.0829 -0.1413
  882YOPE   D3B11727   3.945   0.690   8.027  0.1109  0.0662 -0.3672
  882YOPE   C4B11728   4.231   0.626   8.361 -0.0038  0.0189  0.1164
  883YOPE   NH311729   6.219  11.550   5.982 -0.1344 -0.2150 -0.3072
  883YOPE   PO411730   6.069  11.161   6.161 -0.0209  0.1849  0.2416
  883YOPE   GL111731   6.321  11.250   6.505 -0.1308  0.1718 -0.2470
  883YOPE   GL211732   6.598  11.426   6.380  0.0200 -0.0497  0.1060
  883YOPE   C1A11733   6.290  11.094   6.958 -0.1536 -0.0619  0.0322
  883YOPE   D2A11734   6.308  10.756   7.296 -0.2906 -0.3340 -0.1700
  883YOPE   C3A11735   6.271  10.897   7.743  0.1018 -0.1894  0.1050
  883YOPE   C4A11736   6.628  11.054   8.077  0.0003  0.3330  0.3350
  883YOPE   C1B11737   6.545  11.541   6.897  0.1689 -0.0468 -0.2157
  883YOPE   C2B11738   6.387  11.390   7.327  0.2597  0.1870  0.1640
  883YOPE   D3B11739   6.531  11.522   7.768  0.1830 -0.0275 -0.0965
  883YOPE   C4B11740   6.605  11.572   8.239  0.2871 -0.0275  0.2849
  884YOPE   NH311741   3.097  13.691   6.168 -0.4841 -0.2238 -0.0393
  884YOPE   PO411742   2.885  13.290   6.058  0.1078 -0.1068  0.1338
  884YOPE   GL111743   2.797  13.234   6.484 -0.0259 -0.0047 -0.0297
  884YOPE   GL211744   2.785  13.486   6.579  0.0881 -0.0885  0.1211
  884YOPE   C1A11745   2.584  13.035   6.684 -0.0679 -0.2433 -0.0095
  884YOPE   D2A11746   2.176  12.892   6.889  0.0739  0.0657 -0.1044
  884YOPE   C3A11747   2.163  12.562   7.017 -0.2359  0.1195 -0.1019
  884YOPE   C4A11748   1.993  12.429   7.446  0.0212  0.0585 -0.0284
  884YOPE   C1B11749   2.681  13.412   7.023 -0.0048 -0.1474 -0.0318
  884YOPE   C2B11750   2.627  13.060   7.252 -0.3257  0.1303  0.1572
  884YOPE   D3B11751   2.678  12.759   7.559 -0.1350  0.2429  0.2283
  884YOPE   C4B11752   2.526  12.777   7.931  0.0257  0.0094 -0.0506
  885YOPE   NH311753  13.455   4.650   5.779  0.1101 -0.5023 -0.0660
  885YOPE   PO411754  13.645   4.467   6.171 -0.0837 -0.1503  0.1931
  885YOPE   GL111755  13.445   4.568   6.579  0.2507  0.0309 -0.0397
  885YOPE   GL211756  13.638   4.765   6.796 -0.3523 -0.0461 -0.2049
  885YOPE   C1A11757  13.195   4.222   6.822  0.3949  0.1003 -0.0843
  885YOPE   D2A11758  13.337   3.960   7.207  0.1020 -0.2139  0.0239
  885YOPE   C3A11759  13.190   3.676   7.341 -0.1285 -0.0048 -0.2657
  885YOPE   C4A11760  12.765   3.515   7.473  0.0437 -0.1083  0.2267
  885YOPE   C1B11761  13.555   4.451   7.131 -0.0063 -0.2269  0.1425
  885YOPE   C2B11762  13.540   4.317   7.604 -0.1451  0.1251  0.3237
  885YOPE   D3B11763  13.524   4.008   8.036  0.0315 -0.1285 -0.0499
  885YOPE   C4B11764  13.277   3.677   8.219  0.4373  0.0795  0.1091
  886YOPE   NH311765   5.948   8.034   5.707 -0.1925 -0.3136 -0.0122
  886YOPE   PO411766   5.691   8.117   6.049 -0.0991 -0.1083 -0.1858
  886YOPE   GL111767   5.668   8.219   6.477  0.2120  0.0655  0.1332
  886YOPE   GL211768   5.678   8.593   6.578 -0.0073 -0.0647  0.1913
  886YOPE   C1A11769   5.471   7.943   6.780  0.2139  0.2095 -0.0527
  886YOPE   D2A11770   5.532   8.015   7.086 -0.1781 -0.0301  0.1101
  886YOPE   C3A11771   5.884   8.204   7.393 -0.2644 -0.0401 -0.0581
  886YOPE   C4A11772   6.104   8.158   7.759 -0.0990 -0.1616  0.1477
  886YOPE   C1B11773   5.860   8.407   6.937  0.3068  0.0086 -0.1259
  886YOPE   C2B11774   5.939   8.649   7.232 -0.0695 -0.0880  0.1505
  886YOPE   D3B11775   5.831   8.693   7.721 -0.2827 -0.1867  0.0649
  886YOPE   C4B11776   6.019   8.583   8.115 -0.0184  0.0779  0.0630
  887YOPE   NH311777  17.282   0.304   6.180  0.0858 -0.1054 -0.0043
  887YOPE   PO411778  17.134  -0.002   6.522  0.4965 -0.1446 -0.1165
  887YOPE   GL111779  17.105  -0.138   6.973 -0.2713 -0.0803 -0.0338
  887YOPE   GL211780  17.416  -0.357   7.008 -0.1658  0.0646 -0.1003
  887YOPE   C1A11781  17.010  -0.260   7.358  0.0064 -0.1358 -0.1504
  887YOPE   D2A11782  16.886   0.004   7.735 -0.1956 -0.0642 -0.0874
  887YOPE   C3A11783  16.706  -0.261   8.032  0.2224 -0.1455  0.0874
  887YOPE   C4A11784  16.454  -0.444   8.368 -0.0466  0.2171  0.2155
  887YOPE   C1B11785  17.492  -0.191   7.428  0.0149 -0.0905 -0.1065
  887YOPE   C2B11786  17.337  -0.085   7.856  0.2823  0.1343  0.0291
  887YOPE   D3B11787  17.061   0.018   8.240 -0.1699  0.1475 -0.2251
  887YOPE   C4B11788  16.759  -0.122   8.564 -0.1007  0.1409 -0.2046
  888YOPE   NH311789   9.109   9.650   6.156  0.3237 -0.0458 -0.1272
  888YOPE   PO411790   9.154   9.663   6.576 -0.3585  0.1256  0.3165
  888YOPE   GL111791   8.936   9.471   6.852 -0.0101 -0.0837 -0.1113
  888YOPE   GL211792   8.735   9.647   6.986 -0.0571  0.2384  0.1758
  888YOPE   C1A11793   8.631   9.120   6.897  0.1132 -0.4274 -0.1173
  888YOPE   D2A11794   8.477   8.749   7.206  0.0657  0.0497 -0.1244
  888YOPE   C3A11795   8.554   8.819   7.591 -0.1973 -0.0550  0.1344
  888YOPE   C4A11796   8.625   9.024   7.921 -0.3300  0.1193 -0.2685
  888YOPE   C1B11797   8.837   9.496   7.422 -0.0734  0.1514  0.2957
  888YOPE   C2B11798   8.655   9.455   7.718 -0.1208 -0.0851 -0.0622
  888YOPE   D3B11799   8.599   9.476   8.212  0.0021 -0.1584 -0.0737
  888YOPE   C4B11800   8.287   9.616   8.389  0.0457  0.2470 -0.1638
  889YOPE   NH311801   4.617  17.760   6.182  0.1464  0.0491  0.1039
  889YOPE   PO411802   4.340  18.098   6.110 -0.0056  0.1342 -0.0340
  889YOPE   GL111803   4.429  18.197   6.498 -0.1304 -0.0545 -0.3642
  889YOPE   GL211804   4.572  17.905   6.627  0.2749  0.0535 -0.0833
  889YOPE   C1A11805   4.558  18.316   6.925 -0.0139  0.0524  0.1729
  889YOPE   D2A11806   4.571  18.322   7.425 -0.0974  0.3061  0.2484
  889YOPE   C3A11807   4.588  18.063   7.730  0.1668 -0.0589 -0.2461
  889YOPE   C4A11808   4.399  17.991   8.038 -0.0885  0.3193 -0.0638
  889YOPE   C1B11809   4.408  17.858   7.064 -0.0046  0.0733 -0.0718
  889YOPE   C2B11810   4.266  17.842   7.448 -0.2506  0.1334 -0.0613
  889YOPE   D3B11811   4.370  17.551   7.766 -0.0188 -0.0863  0.3176
  889YOPE   C4B11812   4.495  17.210   7.867  0.1397  0.0573  0.1881
  890YOPE   NH311813   1.117   5.106   5.932 -0.1416  0.2066  0.0622
  890YOPE   PO411814   1.071   4.689   5.960  0.1486 -0.0266  0.3125
  890YOPE   GL111815   0.858   4.689   6.339  0.1044 -0.2150 -0.3457
  890YOPE   GL211816   0.754   4.574   6.532 -0.0482 -0.0430  0.1758
  890YOPE   C1A11817   0.898   5.010   6.727 -0.0414  0.0118 -0.0972
  890YOPE   D2A11818   0.842   5.162   7.058  0.0329 -0.0186 -0.3099
  890YOPE   C3A11819   0.957   5.077   7.412 -0.1615 -0.2072  0.1376
  890YOPE   C4A11820   1.199   4.902   7.730 -0.1352  0.2941  0.0925
  890YOPE   C1B11821   0.768   4.582   6.954  0.0845  0.2945 -0.1606
  890YOPE   C2B11822   0.838   4.618   7.354  0.1690 -0.0401  0.2349
  890YOPE   D3B11823   0.703   4.337   7.634 -0.0539 -0.0160 -0.0384
  890YOPE   C4B11824   0.847   4.146   8.075 -0.0800 -0.1200 -0.2912
  891YOPE   NH311825  13.559  15.880   6.041  0.2843 -0.0145  0.1205
  891YOPE   PO411826  13.193  15.811   6.202 -0.0944 -0.0814  0.1243
  891YOPE   GL111827  13.143  15.936   6.558  0.0221 -0.0282  0.2196
  891YOPE   GL211828  13.513  15.990   6.621  0.0790  0.1168 -0.0665
  891YOPE   C1A11829  13.119  15.965   6.980 -0.0777 -0.2506  0.1638
  891YOPE   D2A11830  13.069  15.953   7.519 -0.2736  0.0098  0.1387
  891YOPE   C3A11831  13.388  16.051   7.864 -0.0338 -0.1221  0.0489
  891YOPE   C4A11832  13.667  16.151   8.211 -0.1646 -0.1772  0.2374
  891YOPE   C1B11833  13.731  16.199   6.982 -0.0809  0.2778 -0.2654
  891YOPE   C2B11834  13.780  16.210   7.412 -0.1441 -0.2906  0.0282
  891YOPE   D3B11835  13.703  16.436   7.800  0.0708 -0.0219 -0.1520
  891YOPE   C4B11836  13.494  16.617   8.171 -0.1852  0.0874  0.1663
  892YOPE   NH311837   8.746  14.142   6.393 -0.2772 -0.0917  0.3333
  892YOPE   PO411838   9.059  14.284   6.260  0.2304  0.0527  0.0321
  892YOPE   GL111839   9.222  14.026   6.659  0.1265 -0.0490 -0.1318
  892YOPE   GL211840   8.995  13.993   6.846  0.0588 -0.0786  0.1562
  892YOPE   C1A11841   9.398  14.144   7.089  0.3017  0.0818 -0.1784
  892YOPE   D2A11842   9.446  14.217   7.451  0.4957  0.0665  0.0660
  892YOPE   C3A11843   9.423  14.489   7.696 -0.1811  0.1522 -0.0106
  892YOPE   C4A11844   9.336  14.655   8.122  0.0062 -0.2177 -0.2248
  892YOPE   C1B11845   8.959  13.991   7.249  0.1653  0.2730 -0.1552
  892YOPE   C2B11846   8.938  14.059   7.684  0.0568 -0.1569 -0.0054
  892YOPE   D3B11847   9.192  13.961   7.956 -0.0956  0.0252 -0.0783
  892YOPE   C4B11848   9.537  14.167   8.096  0.0150 -0.3054  0.1972
  893YOPE   NH311849   3.507   7.727   5.900 -0.0316 -0.2395 -0.0560
  893YOPE   PO411850   3.118   7.986   5.996 -0.1299 -0.3307 -0.4461
  893YOPE   GL111851   3.170   8.262   6.310 -0.0017  0.0140 -0.0268
  893YOPE   GL211852   2.849   8.263   6.598  0.0073 -0.1219 -0.1257
  893YOPE   C1A11853   3.301   8.581   6.553  0.2906  0.0296 -0.2349
  893YOPE   D2A11854   3.368   8.934   6.684 -0.0899  0.1621 -0.0320
  893YOPE   C3A11855   3.763   9.019   7.026  0.1379 -0.0178 -0.3377
  893YOPE   C4A11856   3.935   9.331   7.235 -0.1876  0.2013 -0.1249
  893YOPE   C1B11857   2.886   8.281   7.096 -0.1655 -0.0574  0.0700
  893YOPE   C2B11858   2.853   8.224   7.545  0.4077  0.0676 -0.0206
  893YOPE   D3B11859   3.029   8.594   7.854  0.1596 -0.1730 -0.2881
  893YOPE   C4B11860   2.900   8.748   8.419 -0.2284  0.0679  0.1508
  894YOPE   NH311861  14.497   4.762   5.826 -0.0089  0.1472 -0.0760
  894YOPE   PO411862  14.036   4.664   5.794 -0.0231 -0.2077 -0.0087
  894YOPE   GL111863  14.174   4.619   6.207  0.1205 -0.1639  0.0332
  894YOPE   GL211864  14.037   4.725   6.487 -0.1951 -0.2587  0.2555
  894YOPE   C1A11865  14.507   4.638   6.568  0.1414  0.2361  0.0780
  894YOPE   D2A11866  14.939   4.598   6.675  0.0133 -0.1562 -0.2716
  894YOPE   C3A11867  15.140   4.458   7.140 -0.2040 -0.0814  0.1569
  894YOPE   C4A11868  15.595   4.368   7.237  0.0648  0.0734  0.0273
  894YOPE   C1B11869  14.143   4.761   6.870 -0.3691  0.0403 -0.2445
  894YOPE   C2B11870  13.962   4.634   7.254 -0.0835  0.1431 -0.0878
  894YOPE   D3B11871  13.650   4.798   7.626 -0.2019  0.1810  0.4350
  894YOPE   C4B11872  13.485   4.942   8.059 -0.3399 -0.0089  0.1177
  895YOPE   NH311873  11.833   2.177   5.918 -0.0258  0.0414  0.1090
  895YOPE   PO411874  12.047   1.905   6.098 -0.0190 -0.0694 -0.3938
  895YOPE   GL111875  11.989   1.866   6.518  0.1932  0.0368  0.0958
  895YOPE   GL211876  12.328   1.945   6.650 -0.1252 -0.0373 -0.1189
  895YOPE   C1A11877  11.955   1.667   6.848 -0.1041 -0.0306  0.0949
  895YOPE   D2A11878  12.004   1.485   7.290  0.2132 -0.0147  0.0388
  895YOPE   C3A11879  12.208   1.616   7.637  0.1117  0.0974  0.2164
  895YOPE   C4A11880  12.182   1.404   8.130  0.0223 -0.3502 -0.0294
  895YOPE   C1B11881  12.065   2.119   7.004 -0.0738  0.0830  0.0883
  895YOPE   C2B11882  11.955   2.044   7.404 -0.2932  0.3138 -0.0305
  895YOPE   D3B11883  11.952   2.001   7.783 -0.2038 -0.2253 -0.1192
  895YOPE   C4B11884  11.734   2.140   8.210 -0.2895 -0.1850  0.1124
  896YOPE   NH311885  13.240  15.217   6.080 -0.2671  0.2557  0.0766
  896YOPE   PO411886  12.883  14.941   5.898  0.0204  0.2693  0.3072
  896YOPE   GL111887  12.945  14.841   6.415  0.2503 -0.2220  0.0109
  896YOPE   GL211888  12.829  14.531   6.548 -0.1971 -0.2943  0.2610
  896YOPE   C1A11889  13.165  14.936   6.833  0.0573 -0.1371  0.0714
  896YOPE   D2A11890  13.093  15.023   7.226 -0.0594 -0.0545  0.0032
  896YOPE   C3A11891  13.286  15.039   7.570  0.1720 -0.2284  0.1617
  896YOPE   C4A11892  13.188  15.176   7.963 -0.1004 -0.0309 -0.0718
  896YOPE   C1B11893  12.865  14.317   6.935  0.2906  0.1420  0.0566
  896YOPE   C2B11894  12.739  14.123   7.345  0.1760  0.1591  0.0002
  896YOPE   D3B11895  12.592  14.245   7.761 -0.0473  0.0009  0.2006
  896YOPE   C4B11896  12.424  14.623   7.988 -0.1287 -0.0829  0.1515
  897YOPE   NH311897  17.866   4.325   5.564 -0.2348 -0.3066 -0.2748
  897YOPE   PO411898  18.115   4.423   5.949  0.4503 -0.1790  0.1659
  897YOPE   GL111899  17.969   4.661   6.327 -0.1124 -0.4232 -0.0640
  897YOPE   GL211900  18.250   4.843   6.358  0.0764 -0.2877 -0.0807
  897YOPE   C1A11901  17.667   4.616   6.584  0.2095  0.2959  0.1069
  897YOPE   D2A11902  17.326   4.803   6.878 -0.1726  0.1943  0.1282
  897YOPE   C3A11903  17.337   4.787   7.277  0.1053 -0.2948  0.1352
  897YOPE   C4A11904  17.392   4.799   7.739 -0.3945 -0.0375  0.1111
  897YOPE   C1B11905  18.268   4.898   6.758  0.1619 -0.1623  0.4597
  897YOPE   C2B11906  18.275   4.969   7.135 -0.1472  0.0510  0.2516
  897YOPE   D3B11907  18.074   5.190   7.579 -0.1996  0.2153  0.0941
  897YOPE   C4B11908  18.146   5.159   7.950 -0.1146  0.1904  0.2473
  898YOPE   NH311909  13.086   4.098   6.133  0.3507  0.2945 -0.2877
  898YOPE   PO411910  12.799   4.419   5.904  0.0149  0.0039  0.2601
  898YOPE   GL111911  12.693   4.452   6.369 -0.2107  0.3694 -0.3729
  898YOPE   GL211912  12.608   4.125   6.399 -0.0080  0.1150  0.0494
  898YOPE   C1A11913  12.813   4.470   6.711  0.3199  0.0598 -0.1484
  898YOPE   D2A11914  12.850   4.536   7.070 -0.3734 -0.3158 -0.0896
  898YOPE   C3A11915  13.136   4.419   7.411 -0.3540 -0.0807 -0.0207
  898YOPE   C4A11916  13.207   4.587   7.869 -0.2019  0.1326 -0.3259
  898YOPE   C1B11917  12.694   3.908   6.858 -0.3312  0.1313 -0.1603
  898YOPE   C2B11918  12.804   3.954   7.235 -0.3056  0.0339  0.2751
  898YOPE   D3B11919  12.992   3.992   7.694  0.0519  0.2207 -0.1624
  898YOPE   C4B11920  12.877   4.008   8.218  0.1176 -0.0623 -0.2241
  899YOPE   NH311921  17.118   6.384   5.850  0.2426 -0.1607  0.0042
  899YOPE   PO411922  17.478   6.712   5.874 -0.0359  0.1623 -0.3445
  899YOPE   GL111923  17.393   6.520   6.239 -0.0370 -0.1377  0.2921
  899YOPE   GL211924  17.553   6.143   6.296  0.2308 -0.0245 -0.1229
  899YOPE   C1A11925  17.182   6.674   6.537 -0.3885 -0.1400 -0.3514
  899YOPE   D2A11926  16.869   6.597   6.872  0.0272 -0.0342  0.0167
  899YOPE   C3A11927  16.489   6.787   6.971  0.2381  0.2837  0.1721
  899YOPE   C4A11928  16.336   7.088   7.279 -0.3254 -0.2202 -0.0443
  899YOPE   C1B11929  17.650   6.008   6.664  0.2056 -0.2969 -0.1053
  899YOPE   C2B11930  17.826   5.996   7.092 -0.2290 -0.4197 -0.0773
  899YOPE   D3B11931  17.695   5.983   7.575 -0.1916 -0.0817  0.2001
  899YOPE   C4B11932  17.644   6.353   7.861  0.1815  0.0767  0.0641
  900YOPE   NH311933  12.086  15.571   5.712 -0.1955 -0.1263 -0.1362
  900YOPE   PO411934  11.679  15.470   5.872  0.1279  0.4190 -0.0905
  900YOPE   GL111935  11.581  15.560   6.286  0.1263 -0.0889 -0.0652
  900YOPE   GL211936  11.522  15.269   6.410 -0.1982  0.0741  0.0216
  900YOPE   C1A11937  11.462  15.709   6.667  0.0005 -0.2868  0.0531
  900YOPE   D2A11938  11.518  15.701   7.097 -0.0788  0.0159  0.1024
  900YOPE   C3A11939  11.383  15.682   7.537  0.1671 -0.1481 -0.2504
  900YOPE   C4A11940  10.981  15.727   7.760 -0.2796  0.1446 -0.4630
  900YOPE   C1B11941  11.480  15.181   6.899 -0.2299  0.0042  0.0385
  900YOPE   C2B11942  11.513  15.207   7.328  0.0303 -0.2515  0.0475
  900YOPE   D3B11943  11.710  15.294   7.698 -0.2771  0.1548 -0.0529
  900YOPE   C4B11944  12.114  15.509   7.921 -0.1687 -0.1011  0.2478
  901YOPE   NH311945   8.935  15.319   6.127  0.1601 -0.0544 -0.2865
  901YOPE   PO411946   8.826  15.833   6.079  0.2951  0.3972 -0.2645
  901YOPE   GL111947   8.718  15.924   6.454 -0.3238  0.0393  0.1816
  901YOPE   GL211948   8.590  16.208   6.549 -0.0662 -0.1032  0.2383
  901YOPE   C1A11949   8.670  15.877   6.971 -0.2791 -0.0829  0.0246
  901YOPE   D2A11950   8.752  15.859   7.403 -0.2717  0.0028  0.0264
  901YOPE   C3A11951   8.952  16.208   7.685  0.0181 -0.2467 -0.0671
  901YOPE   C4A11952   9.263  16.166   7.915  0.0577  0.0096 -0.0069
  901YOPE   C1B11953   8.603  16.361   7.000  0.1280 -0.0494 -0.3966
  901YOPE   C2B11954   8.628  16.390   7.266  0.0996  0.1701 -0.1094
  901YOPE   D3B11955   8.496  16.500   7.629 -0.2712  0.2479 -0.1144
  901YOPE   C4B11956   8.412  16.779   8.039  0.3494  0.0551  0.0045
  902YOPE   NH311957  13.044  13.495   5.749 -0.0388 -0.0762  0.0822
  902YOPE   PO411958  12.878  13.580   6.225  0.1574  0.0660 -0.0763
  902YOPE   GL111959  12.701  13.623   6.566 -0.1032 -0.1759  0.1473
  902YOPE   GL211960  12.504  13.398   6.800  0.0886  0.4099 -0.0546
  902YOPE   C1A11961  12.647  13.877   6.893  0.2126 -0.0053  0.1490
  902YOPE   D2A11962  12.394  14.204   6.973  0.0890 -0.1595 -0.4081
  902YOPE   C3A11963  12.400  14.659   6.870  0.1954  0.1217  0.1018
  902YOPE   C4A11964  12.634  15.078   6.722 -0.1727 -0.0841 -0.0928
  902YOPE   C1B11965  12.481  13.230   7.137 -0.0810  0.2246  0.1025
  902YOPE   C2B11966  12.313  13.243   7.520  0.0021 -0.0502 -0.1896
  902YOPE   D3B11967  12.120  13.524   7.943  0.0849 -0.2581 -0.1700
  902YOPE   C4B11968  11.912  13.712   8.233  0.0283 -0.1333  0.1325
  903YOPE   NH311969  11.833   4.134   5.827  0.0114 -0.0216  0.0116
  903YOPE   PO411970  11.429   3.890   5.742  0.0289 -0.0944  0.0056
  903YOPE   GL111971  11.406   3.869   6.134 -0.0015  0.0737  0.2992
  903YOPE   GL211972  11.683   3.920   6.235 -0.0888 -0.1365  0.0567
  903YOPE   C1A11973  11.358   3.737   6.570  0.1286 -0.1375  0.2842
  903YOPE   D2A11974  11.213   3.934   6.917 -0.0203 -0.3048 -0.2962
  903YOPE   C3A11975  11.190   4.377   6.951  0.0295 -0.0903 -0.0059
  903YOPE   C4A11976  11.431   4.630   7.151 -0.0052 -0.0217  0.1475
  903YOPE   C1B11977  11.595   4.153   6.678  0.1058  0.3035 -0.1823
  903YOPE   C2B11978  11.733   4.234   7.053  0.1061 -0.0073 -0.0580
  903YOPE   D3B11979  11.528   4.335   7.476 -0.1513  0.0578  0.2199
  903YOPE   C4B11980  11.539   4.435   7.932 -0.0543  0.2919  0.0186
  904YOPE   NH311981   4.168   8.131   6.202 -0.1018  0.3637  0.0234
  904YOPE   PO411982   4.286   7.703   6.308  0.1214  0.1515  0.0331
  904YOPE   GL111983   4.410   7.550   6.702 -0.1384  0.0944  0.0891
  904YOPE   GL211984   4.158   7.362   6.799 -0.1697 -0.3744  0.0836
  904YOPE   C1A11985   4.599   7.457   7.113 -0.3444  0.0299  0.2272
  904YOPE   D2A11986   4.807   7.684   7.436 -0.2308  0.1352 -0.1157
  904YOPE   C3A11987   4.634   8.023   7.728 -0.0475  0.0252  0.0367
  904YOPE   C4A11988   4.973   8.370   8.009  0.0138 -0.2479  0.2505
  904YOPE   C1B11989   4.096   7.467   7.120  0.2619 -0.1388 -0.0162
  904YOPE   C2B11990   3.796   7.596   7.381  0.0004  0.0529  0.0159
  904YOPE   D3B11991   3.580   7.336   7.732 -0.0088  0.0389 -0.3078
  904YOPE   C4B11992   3.545   7.050   8.120  0.0694 -0.0185 -0.0747
  905YOPE   NH311993   0.575  12.647   6.380  0.0226 -0.1325  0.4005
  905YOPE   PO411994   0.169  12.627   6.616 -0.1072 -0.2034  0.1746
  905YOPE   GL111995   0.447  12.917   6.811  0.3290  0.0101  0.1372
  905YOPE   GL211996   0.369  12.764   7.078 -0.1604  0.4472 -0.1907
  905YOPE   C1A11997   0.740  13.096   7.063 -0.0283 -0.1548 -0.2236
  905YOPE   D2A11998   0.920  12.999   7.558  0.2395 -0.1001 -0.0765
  905YOPE   C3A11999   1.189  12.749   7.791  0.4162 -0.3266  0.2225
  905YOPE   C4A12000   1.098  12.576   8.293  0.0102  0.2788 -0.0240
  905YOPE   C1B12001   0.343  12.976   7.399  0.0586  0.0749  0.2620
  905YOPE   C2B12002   0.280  12.913   7.793  0.2846 -0.1101 -0.0486
  905YOPE   D3B12003   0.356  13.056   8.267  0.1847 -0.2880  0.0985
  905YOPE   C4B12004   0.596  13.413   8.336  0.0514 -0.0755 -0.1109
  906YOPE   NH312005  17.106  16.830   6.595  0.0117 -0.0015 -0.3267
  906YOPE   PO412006  16.752  17.074   6.682  0.1063 -0.0306  0.2462
  906YOPE   GL112007  16.860  17.201   7.074  0.0996 -0.0638  0.0678
  906YOPE   GL212008  17.214  17.097   7.121  0.0489 -0.0802 -0.0240
  906YOPE   C1A12009  16.679  17.263   7.589  0.1486 -0.0568 -0.3318
  906YOPE   D2A12010  16.461  16.994   7.848 -0.1185  0.2474 -0.0337
  906YOPE   C3A12011  16.696  16.992   8.239 -0.0663 -0.3314 -0.2416
  906YOPE   C4A12012  16.647  16.794   8.615  0.1780 -0.1469  0.1114
  906YOPE   C1B12013  17.206  17.175   7.551 -0.1469 -0.0329 -0.1596
  906YOPE   C2B12014  17.104  17.215   8.049 -0.0841  0.0237  0.0808
  906YOPE   D3B12015  17.159  16.965   8.348  0.0584 -0.1315 -0.0141
  906YOPE   C4B12016  17.447  16.635   8.536 -0.1378 -0.0191 -0.1041
  907YOPE   NH312017  11.516   0.175   5.820  0.3576  0.0297 -0.1304
  907YOPE   PO412018  11.475   0.541   5.926 -0.0771  0.1107 -0.1388
  907YOPE   GL112019  11.295   0.698   6.317  0.0781 -0.0558  0.2110
  907YOPE   GL212020  11.643   0.912   6.501  0.0060 -0.3220 -0.0391
  907YOPE   C1A12021  11.170   0.912   6.727 -0.0181  0.0895 -0.2213
  907YOPE   D2A12022  11.243   0.880   7.144  0.1187 -0.0999  0.0745
  907YOPE   C3A12023  11.019   0.889   7.549 -0.3432 -0.0479  0.4589
  907YOPE   C4A12024  10.657   0.714   7.789 -0.2769 -0.2446  0.0146
  907YOPE   C1B12025  11.908   1.150   6.709 -0.3899 -0.2224 -0.0619
  907YOPE   C2B12026  12.178   1.151   6.991 -0.1950  0.2853 -0.0382
  907YOPE   D3B12027  12.138   0.967   7.306  0.0172 -0.0794  0.2904
  907YOPE   C4B12028  11.913   1.140   7.677 -0.2850 -0.3060  0.0812
  908YOPE   NH312029  13.583   6.305   6.188 -0.1418 -0.0538  0.0209
  908YOPE   PO412030  13.205   5.987   6.097  0.0613 -0.0065 -0.1107
  908YOPE   GL112031  12.885   5.984   6.471  0.0901  0.0119  0.1769
  908YOPE   GL212032  12.738   5.957   6.796  0.1400  0.0218  0.0881
  908YOPE   C1A12033  12.766   6.402   6.696  0.3284  0.1106  0.0167
  908YOPE   D2A12034  12.968   6.393   7.128 -0.0809 -0.0460 -0.3018
  908YOPE   C3A12035  12.867   6.401   7.536  0.4818 -0.0138  0.0086
  908YOPE   C4A12036  12.794   6.558   7.811 -0.3277 -0.1630  0.0715
  908YOPE   C1B12037  12.477   5.817   7.189  0.0919  0.2992  0.0150
  908YOPE   C2B12038  12.482   5.842   7.647  0.0088  0.2684 -0.1410
  908YOPE   D3B12039  12.702   5.951   7.948  0.1505 -0.1281 -0.0841
  908YOPE   C4B12040  13.128   6.129   8.179  0.0374 -0.1592 -0.1803
  909YOPE   NH312041   5.989  17.108   6.069  0.4146 -0.2083 -0.1572
  909YOPE   PO412042   6.390  16.955   5.959 -0.0693 -0.2694  0.0969
  909YOPE   GL112043   6.409  17.206   6.322 -0.2759 -0.1962 -0.0829
  909YOPE   GL212044   6.607  17.414   6.390 -0.2558 -0.0823 -0.2591
  909YOPE   C1A12045   6.311  17.264   6.782 -0.2710  0.0543  0.1937
  909YOPE   D2A12046   6.457  17.282   7.152  0.0053 -0.2015 -0.0294
  909YOPE   C3A12047   6.228  17.250   7.552 -0.2399 -0.1000  0.1569
  909YOPE   C4A12048   6.264  17.024   7.963  0.1954  0.3063  0.4650
  909YOPE   C1B12049   6.730  17.537   6.803 -0.0668  0.1017 -0.0352
  909YOPE   C2B12050   6.865  17.598   7.179  0.1981 -0.3334 -0.0157
  909YOPE   D3B12051   7.146  17.841   7.379  0.0746 -0.0554 -0.3326
  909YOPE   C4B12052   7.388  18.143   7.700 -0.2070  0.0593  0.1666
  910YOPE   NH312053   0.127  16.904   6.104 -0.2097 -0.4208  0.0720
  910YOPE   PO412054  -0.284  16.784   6.377  0.0232 -0.1254  0.1728
  910YOPE   GL112055  -0.313  16.571   6.794 -0.3184 -0.1560 -0.1571
  910YOPE   GL212056  -0.513  16.660   7.086  0.1879  0.2857 -0.1104
  910YOPE   C1A12057  -0.136  16.366   7.306  0.1143 -0.1561 -0.4978
  910YOPE   D2A12058   0.127  16.156   7.694  0.0410  0.1283  0.0089
  910YOPE   C3A12059   0.097  16.143   8.182  0.1162 -0.0954 -0.0946
  910YOPE   C4A12060   0.244  16.106   8.568  0.3226  0.1563 -0.0151
  910YOPE   C1B12061  -0.443  16.721   7.463 -0.1741 -0.4474  0.2357
  910YOPE   C2B12062  -0.456  16.863   7.901  0.0871 -0.0741  0.1800
  910YOPE   D3B12063  -0.198  16.937   8.208 -0.0607  0.1450  0.1186
  910YOPE   C4B12064  -0.224  17.174   8.612  0.1820  0.0033  0.0692
  911YOPE   NH312065   1.320   0.804   6.508  0.1949 -0.4070 -0.0667
  911YOPE   PO412066   1.714   0.602   6.529 -0.3265  0.3767 -0.0887
  911YOPE   GL112067   1.631   0.527   6.937  0.0536  0.2780  0.1840
  911YOPE   GL212068   1.377   0.675   7.062  0.3323 -0.0791  0.0161
  911YOPE   C1A12069   1.580   0.280   7.285  0.4034 -0.3821 -0.0999
  911YOPE   D2A12070   1.745   0.454   7.624  0.0616  0.1506 -0.0567
  911YOPE   C3A12071   1.678   0.640   7.991  0.0423  0.1081 -0.1220
  911YOPE   C4A12072   1.647   0.693   8.401 -0.3298 -0.3949 -0.1586
  911YOPE   C1B12073   1.328   0.672   7.514 -0.0917  0.1977 -0.2127
  911YOPE   C2B12074   1.323   0.294   7.819 -0.1223  0.0155 -0.1880
  911YOPE   D3B12075   0.964   0.073   7.908  0.1579  0.1082 -0.0327
  911YOPE   C4B12076   0.677   0.070   8.159 -0.1863 -0.3508 -0.2234
  912YOPE   NH312077   5.676  11.920   5.759  0.0784 -0.0398 -0.0813
  912YOPE   PO412078   5.519  12.241   5.886 -0.0729  0.0314 -0.2373
  912YOPE   GL112079   5.642  12.074   6.282  0.2106 -0.0573  0.2963
  912YOPE   GL212080   5.414  12.251   6.416  0.0107 -0.1321 -0.1999
  912YOPE   C1A12081   5.717  11.674   6.458  0.2796  0.1393  0.5194
  912YOPE   D2A12082   5.769  11.219   6.628 -0.0355 -0.1513 -0.0804
  912YOPE   C3A12083   5.502  10.945   6.839  0.1043 -0.2262  0.2795
  912YOPE   C4A12084   5.379  10.958   7.223  0.1420  0.1730  0.2180
  912YOPE   C1B12085   5.456  12.394   6.788 -0.2175  0.1235 -0.1861
  912YOPE   C2B12086   5.591  12.372   7.167 -0.0435  0.4161  0.2180
  912YOPE   D3B12087   5.770  12.244   7.660  0.0583 -0.1466  0.3513
  912YOPE   C4B12088   6.045  12.257   7.965  0.1924 -0.0191 -0.0098
  913YOPE   NH312089   7.190   4.814   5.391 -0.1382 -0.3396 -0.1103
  913YOPE   PO412090   6.935   4.917   5.826  0.0009  0.1752 -0.1036
  913YOPE   GL112091   7.028   4.701   6.096 -0.2614 -0.1763 -0.0649
  913YOPE   GL212092   7.009   4.924   6.359  0.1021 -0.0182 -0.0523
  913YOPE   C1A12093   7.040   4.501   6.509  0.2188  0.3956  0.3385
  913YOPE   D2A12094   7.194   4.384   6.834 -0.1837 -0.4117 -0.0076
  913YOPE   C3A12095   7.385   4.335   7.303 -0.2263  0.0013  0.3072
  913YOPE   C4A12096   7.589   4.145   7.493  0.1431 -0.2553 -0.0212
  913YOPE   C1B12097   7.218   4.883   6.767  0.5908 -0.0835 -0.1770
  913YOPE   C2B12098   7.253   4.816   7.183  0.1636 -0.0692 -0.3909
  913YOPE   D3B12099   7.261   4.710   7.615 -0.0077 -0.0947 -0.1809
  913YOPE   C4B12100   7.095   4.264   7.764 -0.0632 -0.0554 -0.1271
  914YOPE   NH312101  14.363   1.592   6.061  0.3498  0.0446 -0.5287
  914YOPE   PO412102  14.713   1.279   6.266 -0.0238 -0.1051  0.2322
  914YOPE   GL112103  14.852   1.290   6.698  0.1654 -0.0479  0.0318
  914YOPE   GL212104  15.210   1.203   6.719 -0.0512  0.0383  0.1315
  914YOPE   C1A12105  14.932   1.280   7.142 -0.2986 -0.1583  0.0158
  914YOPE   D2A12106  15.184   1.266   7.487  0.1013 -0.0687 -0.3423
  914YOPE   C3A12107  15.287   1.568   7.917 -0.0444 -0.1337 -0.4235
  914YOPE   C4A12108  15.349   2.000   7.975  0.1994  0.2737  0.1211
  914YOPE   C1B12109  15.367   1.421   7.086 -0.0382  0.1360  0.1926
  914YOPE   C2B12110  15.333   1.720   7.358 -0.0590 -0.5555  0.3424
  914YOPE   D3B12111  15.091   2.057   7.543  0.0122 -0.1774 -0.0538
  914YOPE   C4B12112  14.906   2.300   7.944  0.0104 -0.1220  0.2479
  915YOPE   NH312113  11.090   0.862   5.810 -0.2972  0.0993 -0.4351
  915YOPE   PO412114  10.945   0.526   5.988  0.3683  0.1901  0.1056
  915YOPE   GL112115  10.877   0.262   6.423 -0.0730  0.1047  0.1413
  915YOPE   GL212116  11.247   0.158   6.315 -0.1863 -0.0332 -0.0741
  915YOPE   C1A12117  10.871   0.484   6.782 -0.0619 -0.1814 -0.2509
  915YOPE   D2A12118  10.774   0.588   7.242  0.0295 -0.1603  0.0247
  915YOPE   C3A12119  10.352   0.506   7.439 -0.2843  0.1395 -0.0850
  915YOPE   C4A12120  10.196   0.790   7.630  0.1473 -0.2686 -0.0720
  915YOPE   C1B12121  11.055  -0.137   6.639 -0.3409  0.0775  0.2589
  915YOPE   C2B12122  10.894  -0.330   7.056 -0.1221 -0.0249 -0.0366
  915YOPE   D3B12123  10.822  -0.291   7.557  0.0600 -0.1207  0.1710
  915YOPE   C4B12124  10.524  -0.284   7.933  0.3100  0.2376 -0.0217
  916YOPE   NH312125   0.602  17.580   6.799  0.0861  0.1760 -0.0468
  916YOPE   PO412126   1.034  17.765   6.715 -0.2945  0.1232 -0.1881
  916YOPE   GL112127   1.116  17.575   7.157  0.0665  0.0283 -0.1622
  916YOPE   GL212128   0.798  17.517   7.268 -0.3039  0.3463  0.1111
  916YOPE   C1A12129   1.295  17.339   7.457  0.1016  0.1910 -0.2219
  916YOPE   D2A12130   1.329  17.405   7.910  0.1643  0.2492 -0.1028
  916YOPE   C3A12131   1.366  17.762   8.062  0.0003  0.0559 -0.0933
  916YOPE   C4A12132   1.190  18.110   8.294 -0.3621 -0.1669  0.0012
  916YOPE   C1B12133   0.885  17.560   7.638 -0.0885 -0.2121 -0.1763
  916YOPE   C2B12134   0.784  17.166   7.845  0.2256  0.0336  0.0470
  916YOPE   D3B12135   0.840  16.998   8.230  0.2335 -0.2991 -0.1321
  916YOPE   C4B12136   1.090  16.787   8.456  0.3468  0.2188 -0.2505
  917YOPE   NH312137   8.624   5.477   5.881 -0.1255 -0.2384  0.0069
  917YOPE   PO412138   9.004   5.807   5.797 -0.2191 -0.0873  0.1881
  917YOPE   GL112139   8.948   5.960   6.166 -0.0081  0.0371 -0.0774
  917YOPE   GL212140   8.763   5.728   6.338 -0.1263 -0.0886 -0.3143
  917YOPE   C1A12141   9.287   5.780   6.452  0.2466  0.0575  0.2357
  917YOPE   D2A12142   9.551   5.467   6.727  0.0556 -0.0087 -0.0601
  917YOPE   C3A12143   9.390   5.350   7.151  0.0740 -0.0687 -0.1926
  917YOPE   C4A12144   9.067   5.139   7.281  0.2857 -0.0713  0.5059
  917YOPE   C1B12145   8.800   5.623   6.655 -0.2754  0.0816  0.3298
  917YOPE   C2B12146   8.820   5.538   7.087  0.1843  0.1472 -0.2440
  917YOPE   D3B12147   8.652   5.435   7.453  0.0648 -0.2420 -0.2696
  917YOPE   C4B12148   8.669   5.424   7.834 -0.1422  0.0880  0.0429
  918YOPE   NH312149   6.705  11.824   6.128 -0.0286 -0.0886  0.1500
  918YOPE   PO412150   6.538  12.179   6.131 -0.2527 -0.2232 -0.1695
  918YOPE   GL112151   6.800  12.139   6.485  0.0904 -0.1596 -0.0417
  918YOPE   GL212152   7.079  12.326   6.474 -0.0708  0.0131  0.0113
  918YOPE   C1A12153   6.926  11.915   6.864 -0.2375 -0.0330  0.1407
  918YOPE   D2A12154   7.090  11.729   7.153 -0.3346  0.0546 -0.1169
  918YOPE   C3A12155   6.875  11.471   7.326  0.0102  0.1872 -0.0247
  918YOPE   C4A12156   6.695  11.071   7.503 -0.0135 -0.3052 -0.3145
  918YOPE   C1B12157   6.923  12.415   6.960  0.1339 -0.1895 -0.0773
  918YOPE   C2B12158   6.882  12.549   7.394 -0.0201 -0.0975  0.2994
  918YOPE   D3B12159   6.710  12.863   7.665  0.0324 -0.0511  0.0476
  918YOPE   C4B12160   6.464  13.199   7.868 -0.1136  0.0023 -0.0770
  919YOPE   NH312161  17.092  12.390   6.481  0.3486  0.0005 -0.0835
  919YOPE   PO412162  16.858  12.728   6.563 -0.0566 -0.0365 -0.1892
  919YOPE   GL112163  17.066  12.756   6.925 -0.2219 -0.0685 -0.0263
  919YOPE   GL212164  17.234  13.062   7.009 -0.0035 -0.3811  0.0035
  919YOPE   C1A12165  16.860  12.646   7.269 -0.1098  0.0672 -0.0699
  919YOPE   D2A12166  16.895  12.459   7.725  0.2233  0.2099  0.0857
  919YOPE   C3A12167  17.240  12.327   7.973 -0.1919  0.0313 -0.1389
  919YOPE   C4A12168  17.246  12.007   8.161 -0.1344 -0.0488  0.0854
  919YOPE   C1B12169  17.074  13.046   7.474 -0.0016 -0.1358 -0.3606
  919YOPE   C2B12170  17.100  12.907   7.879 -0.0528  0.0199  0.2245
  919YOPE   D3B12171  16.913  12.691   8.154 -0.1006  0.0416  0.1363
  919YOPE   C4B12172  16.572  12.488   8.448 -0.3319  0.0915 -0.1678
  920YOPE   NH312173  15.445  17.003   6.623 -0.1654  0.0042 -0.1382
  920YOPE   PO412174  15.855  17.174   6.397 -0.0284  0.0856  0.0409
  920YOPE   GL112175  15.879  17.293   6.784 -0.2056  0.1516 -0.0449
  920YOPE   GL212176  16.126  17.055   6.817  0.2726 -0.1091 -0.1958
  920YOPE   C1A12177  15.989  17.367   7.207 -0.0240 -0.0918  0.0740
  920YOPE   D2A12178  16.191  17.471   7.640  0.0110 -0.5577 -0.1412
  920YOPE   C3A12179  15.991  17.591   7.990 -0.1554  0.2521 -0.1421
  920YOPE   C4A12180  15.928  17.410   8.475  0.0814  0.0134  0.1192
  920YOPE   C1B12181  15.886  16.819   7.131  0.2402  0.0869  0.2390
  920YOPE   C2B12182  15.766  16.809   7.499 -0.1558  0.1771  0.1157
  920YOPE   D3B12183  15.991  16.999   7.723  0.1364 -0.2284 -0.0824
  920YOPE   C4B12184  16.115  17.084   8.204  0.1881  0.4006  0.0434
  921YOPE   NH312185  15.949  14.226   5.984  0.1032  0.0469  0.2194
  921YOPE   PO412186  15.821  14.546   6.298 -0.1655 -0.1261 -0.0943
  921YOPE   GL112187  15.869  14.715   6.687  0.1083 -0.1676  0.1118
  921YOPE   GL212188  16.181  14.614   6.777  0.1145 -0.3560  0.0763
  921YOPE   C1A12189  15.874  14.690   7.201 -0.0255 -0.3034 -0.1746
  921YOPE   D2A12190  15.627  14.709   7.559  0.1359 -0.1833  0.1293
  921YOPE   C3A12191  15.558  14.734   7.952  0.0350  0.0138 -0.1983
  921YOPE   C4A12192  15.700  14.794   8.356  0.3743  0.0533  0.0863
  921YOPE   C1B12193  16.296  14.422   7.137 -0.0747  0.0177  0.0451
  921YOPE   C2B12194  16.431  14.523   7.439 -0.2032  0.0470 -0.3032
  921YOPE   D3B12195  16.577  14.677   7.850  0.0039 -0.1045 -0.0946
  921YOPE   C4B12196  17.025  14.824   7.787  0.1099  0.0583  0.0418
  922YOPE   NH312197   7.475   0.527   5.539 -0.4965 -0.1590  0.1595
  922YOPE   PO412198   7.505   0.914   5.685 -0.0049  0.1064  0.0245
  922YOPE   GL112199   7.511   1.166   6.046  0.0801 -0.1184 -0.0308
  922YOPE   GL212200   7.783   1.099   6.176  0.1733  0.1920  0.3492
  922YOPE   C1A12201   7.417   1.334   6.491 -0.1194  0.0350  0.0272
  922YOPE   D2A12202   7.558   1.470   6.958 -0.0224  0.0953 -0.2241
  922YOPE   C3A12203   7.231   1.726   7.027  0.2751 -0.0725  0.1268
  922YOPE   C4A12204   6.762   2.035   7.067  0.1038 -0.1215 -0.2999
  922YOPE   C1B12205   7.997   1.163   6.528 -0.0639 -0.1231 -0.3201
  922YOPE   C2B12206   8.148   0.887   6.894  0.1588 -0.2150  0.3460
  922YOPE   D3B12207   8.354   0.889   7.369  0.0686  0.1056  0.0583
  922YOPE   C4B12208   8.808   0.727   7.446 -0.1604  0.0613 -0.2919
  923YOPE   NH312209   4.737   5.121   6.102  0.0573 -0.2022 -0.0631
  923YOPE   PO412210   4.876   4.723   6.114  0.0320  0.1025  0.0648
  923YOPE   GL112211   4.696   4.531   6.456 -0.1848  0.0824  0.1918
  923YOPE   GL212212   4.801   4.398   6.562  0.1700  0.0235 -0.0595
  923YOPE   C1A12213   4.693   4.694   6.923  0.1208 -0.2724 -0.1055
  923YOPE   D2A12214   4.697   4.625   7.329 -0.0671  0.2529 -0.0021
  923YOPE   C3A12215   4.153   4.593   7.449 -0.1848 -0.1082  0.1153
  923YOPE   C4A12216   3.791   4.453   7.618  0.2161  0.1677 -0.1016
  923YOPE   C1B12217   5.008   4.299   6.878 -0.0410  0.2060 -0.0952
  923YOPE   C2B12218   5.117   4.191   7.228 -0.0868  0.1470  0.0545
  923YOPE   D3B12219   4.832   4.180   7.583 -0.2329 -0.0266  0.0365
  923YOPE   C4B12220   4.443   3.984   7.844  0.0964  0.3448 -0.0366
  924YOPE   NH312221   7.702   1.866   5.336  0.0711 -0.1700 -0.0420
  924YOPE   PO412222   7.531   1.983   5.643 -0.1534 -0.1679  0.2738
  924YOPE   GL112223   7.796   1.915   6.050 -0.2171 -0.0212  0.1238
  924YOPE   GL212224   7.817   1.604   6.091 -0.2228  0.0273 -0.1746
  924YOPE   C1A12225   7.889   2.170   6.295  0.0048  0.1504 -0.1900
  924YOPE   D2A12226   7.843   2.455   6.614  0.0220 -0.1793  0.0834
  924YOPE   C3A12227   7.637   2.435   7.033  0.1284  0.0187 -0.1682
  924YOPE   C4A12228   7.457   2.148   7.348  0.1950 -0.0011  0.1919
  924YOPE   C1B12229   7.899   1.701   6.531  0.1654  0.2418  0.0710
  924YOPE   C2B12230   8.117   1.539   6.953  0.1623  0.2895 -0.3943
  924YOPE   D3B12231   8.110   1.538   7.380  0.1022  0.0508 -0.0891
  924YOPE   C4B12232   8.312   1.331   7.633 -0.0683  0.2711 -0.3403
  925YOPE   NH312233  17.284   0.466   6.669  0.1619  0.1686 -0.0225
  925YOPE   PO412234  16.908   0.478   6.423  0.0744 -0.2566 -0.0940
  925YOPE   GL112235  16.779   0.407   6.834  0.0375  0.0438 -0.1487
  925YOPE   GL212236  16.629   0.077   7.012 -0.2837  0.1833 -0.3213
  925YOPE   C1A12237  16.815   0.709   7.184  0.1175  0.0786 -0.3014
  925YOPE   D2A12238  16.651   0.894   7.590 -0.1057  0.0834 -0.1714
  925YOPE   C3A12239  16.695   0.550   7.827  0.0947  0.0648 -0.0474
  925YOPE   C4A12240  16.636   0.223   8.161  0.0496 -0.0116 -0.2799
  925YOPE   C1B12241  16.508   0.401   7.400 -0.0321  0.0975 -0.0171
  925YOPE   C2B12242  16.365   0.114   7.721 -0.0218  0.1207  0.5016
  925YOPE   D3B12243  16.150   0.148   8.119 -0.1588 -0.0977  0.0172
  925YOPE   C4B12244  16.177   0.211   8.541  0.4801 -0.0552  0.1737
  926YOPE   NH312245  16.345   6.432   6.067 -0.0912 -0.0353 -0.1098
  926YOPE   PO412246  16.075   6.161   5.884  0.2213  0.0138 -0.1321
  926YOPE   GL112247  15.905   6.131   6.251  0.0389 -0.1006  0.0377
  926YOPE   GL212248  16.113   6.310   6.560  0.2432 -0.0929  0.2097
  926YOPE   C1A12249  15.620   6.241   6.550 -0.0242 -0.0212 -0.0839
  926YOPE   D2A12250  15.247   6.128   6.773  0.2665 -0.0607  0.3338
  926YOPE   C3A12251  15.327   5.726   7.022 -0.0762  0.1274 -0.0208
  926YOPE   C4A12252  15.482   5.495   7.232 -0.0115 -0.1756  0.0026
  926YOPE   C1B12253  16.010   6.438   6.990  0.3110  0.2039  0.2436
  926YOPE   C2B12254  15.719   6.263   7.264  0.2947 -0.1049  0.0426
  926YOPE   D3B12255  15.238   6.117   7.409 -0.1268 -0.0324 -0.0768
  926YOPE   C4B12256  14.948   6.207   7.618 -0.4025  0.1799 -0.3007
  927YOPE   NH312257   9.395   7.939   6.004 -0.2119 -0.4879 -0.0640
  927YOPE   PO412258   9.031   7.685   6.012  0.2089 -0.0183 -0.1798
  927YOPE   GL112259   8.965   7.567   6.595 -0.0050 -0.0435  0.0452
  927YOPE   GL212260   8.694   7.601   6.874 -0.1701  0.0665  0.1142
  927YOPE   C1A12261   9.143   7.494   6.959  0.1118 -0.3326 -0.0009
  927YOPE   D2A12262   9.299   7.254   7.313 -0.0608 -0.0816 -0.1341
  927YOPE   C3A12263   9.058   6.961   7.517  0.3057  0.3025  0.0913
  927YOPE   C4A12264   9.151   6.551   7.621  0.1791 -0.2403 -0.2969
  927YOPE   C1B12265   8.516   7.901   7.060 -0.0339 -0.0962  0.0661
  927YOPE   C2B12266   8.302   8.158   7.223 -0.2175 -0.2271 -0.0769
  927YOPE   D3B12267   8.202   8.448   7.438 -0.1937  0.1014 -0.1842
  927YOPE   C4B12268   8.160   8.641   7.905 -0.3108 -0.0195  0.2133
  928YOPE   NH312269   2.817   5.262   6.087  0.4711 -0.1467 -0.1192
  928YOPE   PO412270   2.845   5.653   5.771  0.0342 -0.0566  0.0342
  928YOPE   GL112271   2.862   5.760   6.238  0.0203 -0.2086  0.0019
  928YOPE   GL212272   3.100   5.638   6.362  0.1106  0.1455  0.1697
  928YOPE   C1A12273   2.687   5.545   6.631 -0.0640  0.2595  0.1162
  928YOPE   D2A12274   2.670   5.442   7.097 -0.1070 -0.0064  0.0905
  928YOPE   C3A12275   2.350   5.528   7.336  0.1352  0.0021 -0.6143
  928YOPE   C4A12276   1.850   5.466   7.436  0.1345  0.1327 -0.0515
  928YOPE   C1B12277   3.081   5.739   6.801  0.2505 -0.2254  0.3262
  928YOPE   C2B12278   3.332   5.809   7.169  0.0198  0.1333  0.0290
  928YOPE   D3B12279   3.363   5.749   7.518 -0.0421  0.2516  0.0771
  928YOPE   C4B12280   3.470   5.659   7.866  0.0440  0.1160  0.1858
  929YOPE   NH312281   4.804   7.018   6.432 -0.0255 -0.1795  0.3120
  929YOPE   PO412282   4.447   7.112   6.470  0.3465  0.2029 -0.5312
  929YOPE   GL112283   4.463   6.921   6.861  0.2352  0.1558  0.0648
  929YOPE   GL212284   4.749   6.904   6.971 -0.0848  0.1333  0.2863
  929YOPE   C1A12285   4.354   6.993   7.271  0.0341 -0.1240  0.0899
  929YOPE   D2A12286   4.581   6.974   7.699 -0.1527 -0.3624 -0.1508
  929YOPE   C3A12287   4.374   6.989   8.046 -0.4440 -0.3761  0.1297
  929YOPE   C4A12288   4.060   7.110   8.442 -0.1128 -0.0800 -0.2076
  929YOPE   C1B12289   5.024   7.061   7.307 -0.0783 -0.0789  0.3202
  929YOPE   C2B12290   5.018   7.323   7.652  0.1225 -0.1479 -0.0644
  929YOPE   D3B12291   4.616   7.493   7.973 -0.1302  0.2844  0.0253
  929YOPE   C4B12292   4.292   7.769   8.213 -0.0784 -0.0789  0.5096
  930YOPE   NH312293  17.690  12.300   6.531  0.2078  0.1640 -0.0092
  930YOPE   PO412294  17.303  11.924   6.481  0.0274 -0.3040 -0.0196
  930YOPE   GL112295  17.168  11.843   6.833 -0.1785  0.0671  0.1029
  930YOPE   GL212296  16.855  12.034   6.927 -0.1552 -0.0557  0.0088
  930YOPE   C1A12297  17.313  11.782   7.294 -0.1131  0.3821  0.0616
  930YOPE   D2A12298  17.221  11.950   7.666 -0.0551  0.1257 -0.2044
  930YOPE   C3A12299  17.388  11.592   7.913 -0.2972  0.2093 -0.0600
  930YOPE   C4A12300  17.478  11.574   8.368 -0.4199 -0.0746  0.0452
  930YOPE   C1B12301  16.826  11.542   7.037  0.5266  0.0433 -0.2097
  930YOPE   C2B12302  16.557  11.385   7.341 -0.0356 -0.2664 -0.0292
  930YOPE   D3B12303  16.243  11.200   7.533  0.1371  0.0659  0.1584
  930YOPE   C4B12304  16.077  10.998   7.862 -0.1040  0.1592 -0.0970
  931YOPE   NH312305   2.663   2.139   6.352 -0.1562 -0.1466 -0.2585
  931YOPE   PO412306   3.030   1.925   6.434 -0.1353  0.2081  0.1122
  931YOPE   GL112307   3.281   1.870   6.774  0.1244 -0.0042  0.1567
  931YOPE   GL212308   3.255   1.539   6.692  0.3659  0.1996 -0.0977
  931YOPE   C1A12309   3.278   1.889   7.190  0.1348 -0.4365  0.3103
  931YOPE   D2A12310   3.353   1.855   7.472 -0.1476  0.1146 -0.0103
  931YOPE   C3A12311   3.281   1.471   7.677  0.0126  0.1542 -0.0464
  931YOPE   C4A12312   2.967   1.330   8.025 -0.0638 -0.2977 -0.1344
  931YOPE   C1B12313   3.463   1.379   7.052  0.3292  0.0923  0.1447
  931YOPE   C2B12314   3.743   1.602   7.244  0.1288  0.0416 -0.2345
  931YOPE   D3B12315   3.973   1.609   7.592  0.0370  0.3508 -0.0215
  931YOPE   C4B12316   3.934   1.553   8.071 -0.0530  0.2326 -0.1133
  932YOPE   NH312317   2.926  17.457   6.275 -0.0406 -0.2481 -0.1395
  932YOPE   PO412318   2.936  17.251   6.595 -0.1763 -0.0439  0.1230
  932YOPE   GL112319   3.071  17.036   6.927  0.1615  0.1054  0.0485
  932YOPE   GL212320   3.139  16.687   6.847 -0.1826 -0.1378 -0.0063
  932YOPE   C1A12321   3.333  16.907   7.264 -0.2265 -0.0203 -0.0593
  932YOPE   D2A12322   3.407  16.624   7.629  0.0755 -0.0007  0.0518
  932YOPE   C3A12323   3.470  16.192   7.413  0.0705 -0.0269 -0.2679
  932YOPE   C4A12324   3.268  15.940   7.302 -0.1434  0.0833  0.3622
  932YOPE   C1B12325   3.079  16.387   7.143  0.1530  0.0492 -0.0889
  932YOPE   C2B12326   3.042  16.262   7.591 -0.1049 -0.1696  0.1709
  932YOPE   D3B12327   3.141  16.395   7.965 -0.1272  0.1400 -0.0794
  932YOPE   C4B12328   3.411  16.511   8.411 -0.1823 -0.1393 -0.0699
  933YOPE   NH312329  10.945   9.845   6.025 -0.1254 -0.1220  0.1527
  933YOPE   PO412330  10.915   9.369   6.060 -0.0109 -0.0882 -0.1308
  933YOPE   GL112331  10.820   9.557   6.450 -0.1570 -0.2889 -0.2573
  933YOPE   GL212332  10.662   9.233   6.539 -0.0225 -0.1348 -0.0727
  933YOPE   C1A12333  10.881   9.612   6.856  0.0964 -0.1486  0.0401
  933YOPE   D2A12334  10.811   9.569   7.359 -0.3290 -0.2288  0.0863
  933YOPE   C3A12335  10.501   9.418   7.643  0.5361 -0.0340  0.0485
  933YOPE   C4A12336  10.361   9.291   8.059 -0.0807  0.0403  0.0864
  933YOPE   C1B12337  10.745   9.131   7.024 -0.1903 -0.2133  0.1806
  933YOPE   C2B12338  10.677   8.937   7.448  0.1283 -0.0108  0.0591
  933YOPE   D3B12339  10.482   8.784   7.870  0.0745  0.1271  0.0219
  933YOPE   C4B12340  10.364   8.580   8.249  0.2253  0.0315  0.0000
  934YOPE   NH312341  12.686   6.188   5.917 -0.0709  0.0138 -0.1378
  934YOPE   PO412342  12.227   6.354   5.969 -0.2343 -0.1126 -0.0557
  934YOPE   GL112343  11.968   6.381   6.290  0.2328  0.0065  0.2648
  934YOPE   GL212344  11.820   6.231   6.388 -0.1253  0.0123  0.2073
  934YOPE   C1A12345  12.153   6.400   6.724 -0.1726  0.0034 -0.2052
  934YOPE   D2A12346  12.413   6.332   7.034 -0.1530  0.3577  0.2301
  934YOPE   C3A12347  12.304   6.266   7.470 -0.3285  0.0845 -0.2157
  934YOPE   C4A12348  12.305   6.343   7.942 -0.2515  0.1880 -0.0824
  934YOPE   C1B12349  11.754   6.043   6.732 -0.0851  0.1082  0.1655
  934YOPE   C2B12350  11.589   6.140   7.019 -0.0570 -0.0260  0.0486
  934YOPE   D3B12351  11.589   6.035   7.433  0.1076 -0.3042  0.0407
  934YOPE   C4B12352  11.547   5.821   7.873  0.2495 -0.0160  0.0447
  935YOPE   NH312353   0.141   5.538   5.922  0.0890  0.1556  0.0864
  935YOPE   PO412354   0.120   5.121   5.981 -0.0554 -0.0904 -0.2437
  935YOPE   GL112355  -0.022   5.115   6.385  0.1180 -0.2090 -0.1492
  935YOPE   GL212356  -0.317   5.041   6.310 -0.1079 -0.3216  0.1973
  935YOPE   C1A12357  -0.096   5.035   6.754 -0.0326  0.2419 -0.4724
  935YOPE   D2A12358  -0.098   5.007   7.198  0.2253 -0.1483  0.0419
  935YOPE   C3A12359  -0.012   4.764   7.586 -0.0524  0.0430 -0.2528
  935YOPE   C4A12360   0.202   4.634   7.982 -0.3156  0.1641  0.0733
  935YOPE   C1B12361  -0.478   5.261   6.689  0.1630 -0.1420  0.2037
  935YOPE   C2B12362  -0.517   5.236   7.116 -0.1019 -0.1270 -0.1738
  935YOPE   D3B12363  -0.778   5.160   7.455 -0.3491 -0.2659  0.0074
  935YOPE   C4B12364  -0.839   5.150   7.926 -0.0443 -0.0582 -0.0021
  936YOPE   NH312365   5.445   0.062   6.137  0.3604  0.1574 -0.1031
  936YOPE   PO412366   5.024   0.019   5.928 -0.1263 -0.1792 -0.0734
  936YOPE   GL112367   5.080  -0.069   6.464  0.0163  0.1735  0.2183
  936YOPE   GL212368   5.376  -0.254   6.568 -0.2490 -0.2778  0.0990
  936YOPE   C1A12369   4.999   0.037   6.919 -0.3461 -0.2093  0.0849
  936YOPE   D2A12370   5.041   0.044   7.453 -0.0354  0.2348  0.2426
  936YOPE   C3A12371   5.268   0.006   7.824 -0.0543 -0.2473 -0.4050
  936YOPE   C4A12372   5.491   0.136   8.131  0.4304 -0.0997 -0.2102
  936YOPE   C1B12373   5.263  -0.345   6.986  0.0158 -0.2089 -0.0306
  936YOPE   C2B12374   5.278  -0.407   7.442  0.1647 -0.1241 -0.2225
  936YOPE   D3B12375   5.389  -0.504   7.852 -0.0324 -0.4034  0.1633
  936YOPE   C4B12376   5.418  -0.356   8.245  0.0881 -0.1177 -0.1338
  937YOPE   NH312377  12.700   8.954   6.277  0.2995  0.0865 -0.0542
  937YOPE   PO412378  13.141   9.151   6.140 -0.1684 -0.0253 -0.3154
  937YOPE   GL112379  13.247   9.092   6.536  0.0738  0.0707 -0.0179
  937YOPE   GL212380  12.975   9.135   6.712  0.0323 -0.0673  0.0224
  937YOPE   C1A12381  13.526   8.998   6.915  0.0109  0.2833 -0.0714
  937YOPE   D2A12382  13.539   8.611   7.219  0.1954 -0.1592  0.2616
  937YOPE   C3A12383  13.646   8.587   7.656  0.3377  0.0354  0.1992
  937YOPE   C4A12384  13.817   8.920   7.824  0.0839  0.5244 -0.2341
  937YOPE   C1B12385  13.094   9.030   7.137 -0.0812  0.0234 -0.2270
  937YOPE   C2B12386  13.093   8.780   7.568  0.1719  0.1037  0.1990
  937YOPE   D3B12387  13.157   8.590   8.009  0.1326 -0.1352 -0.2344
  937YOPE   C4B12388  13.291   8.344   8.281 -0.2301 -0.1464 -0.0299
  938YOPE   NH312389  10.865  11.501   6.255  0.0241  0.1261 -0.0085
  938YOPE   PO412390  11.123  11.627   5.844  0.0761  0.3439  0.1743
  938YOPE   GL112391  11.368  11.525   6.258  0.3286  0.3060  0.0664
  938YOPE   GL212392  11.522  11.833   6.416 -0.0102 -0.3109  0.0788
  938YOPE   C1A12393  11.250  11.538   6.788  0.1861 -0.2165  0.2427
  938YOPE   D2A12394  11.039  11.628   7.172  0.0854  0.0476 -0.1646
  938YOPE   C3A12395  11.180  11.739   7.525  0.0438  0.0573  0.0029
  938YOPE   C4A12396  11.355  11.594   7.952 -0.2797 -0.4774 -0.4189
  938YOPE   C1B12397  11.233  12.034   6.629 -0.1624 -0.0531  0.0751
  938YOPE   C2B12398  11.198  12.065   7.071 -0.1799 -0.0949 -0.1493
  938YOPE   D3B12399  11.191  12.266   7.521  0.2058  0.0132 -0.0108
  938YOPE   C4B12400  11.301  12.087   7.898  0.0648  0.2141  0.2180
  939YOPE   NH312401  15.354  14.391   6.209  0.3640 -0.1967 -0.0984
  939YOPE   PO412402  15.650  14.062   6.334  0.1967 -0.0794 -0.1209
  939YOPE   GL112403  15.308  14.035   6.581  0.1652 -0.0594 -0.0380
  939YOPE   GL212404  15.365  14.293   6.844  0.0795  0.2411  0.1536
  939YOPE   C1A12405  14.873  13.998   6.762 -0.0896  0.1480 -0.1531
  939YOPE   D2A12406  14.475  14.199   6.854  0.2558 -0.1228  0.0540
  939YOPE   C3A12407  14.230  14.230   7.237  0.0461 -0.0404  0.1439
  939YOPE   C4A12408  14.444  14.257   7.698  0.0147 -0.0482 -0.0163
  939YOPE   C1B12409  15.238  14.318   7.338  0.0734  0.2249  0.0400
  939YOPE   C2B12410  15.414  14.287   7.793  0.0910 -0.1288  0.2450
  939YOPE   D3B12411  15.486  14.272   8.142 -0.1585  0.0583  0.0178
  939YOPE   C4B12412  15.621  14.095   8.474  0.2142 -0.1065  0.2588
  940YOPE   NH312413  10.315   8.372   6.420 -0.0920  0.0499  0.1676
  940YOPE   PO412414  10.536   8.027   6.323  0.2909 -0.2117 -0.0763
  940YOPE   GL112415  10.578   7.910   6.633  0.1195  0.0417  0.2892
  940YOPE   GL212416  10.703   8.211   6.742 -0.1006 -0.1420  0.3596
  940YOPE   C1A12417  10.588   7.760   7.027  0.0185  0.0969  0.0063
  940YOPE   D2A12418  10.607   7.378   7.416  0.0766 -0.3720  0.0130
  940YOPE   C3A12419  10.877   7.358   7.785 -0.0850  0.2034  0.1598
  940YOPE   C4A12420  10.803   7.368   8.296  0.0674  0.2392 -0.0361
  940YOPE   C1B12421  10.790   8.257   7.223  0.0478 -0.1525 -0.0045
  940YOPE   C2B12422  10.690   8.366   7.646 -0.3071 -0.2003  0.3060
  940YOPE   D3B12423  10.721   8.279   8.051  0.1037 -0.1754  0.1641
  940YOPE   C4B12424  11.163   8.303   8.278  0.0151  0.1632  0.1746
  941YOPE   NH312425   4.826   0.347   6.189  0.1287  0.2253  0.0636
  941YOPE   PO412426   4.946   0.706   6.152  0.0467  0.0450 -0.1496
  941YOPE   GL112427   5.104   0.988   6.459  0.1982  0.1716 -0.2969
  941YOPE   GL212428   4.921   1.210   6.353 -0.2928  0.2268 -0.2574
  941YOPE   C1A12429   5.232   0.872   6.909  0.0751  0.2292  0.2882
  941YOPE   D2A12430   5.334   0.925   7.409  0.0912  0.1605  0.1159
  941YOPE   C3A12431   5.598   1.068   7.495  0.1820  0.0064 -0.0321
  941YOPE   C4A12432   5.925   1.292   7.634  0.2473 -0.1948 -0.0650
  941YOPE   C1B12433   5.106   1.371   6.799  0.0364 -0.3386  0.1915
  941YOPE   C2B12434   5.319   1.407   7.152  0.2376  0.3974  0.2234
  941YOPE   D3B12435   5.495   1.542   7.512  0.0012  0.0978 -0.0724
  941YOPE   C4B12436   5.438   1.309   7.932 -0.1924 -0.1103 -0.2471
  942POPC   NC312437   4.236   2.539   5.735 -0.0834 -0.0472  0.1301
  942POPC   PO412438   3.992   2.831   5.823 -0.5190 -0.4224 -0.1956
  942POPC   GL112439   4.027   2.930   6.272  0.0721  0.1714 -0.0455
  942POPC   GL212440   4.267   2.873   6.528 -0.0652 -0.4265  0.0954
  942POPC   C1A12441   3.814   3.122   6.583  0.0210 -0.2304  0.1402
  942POPC   D2A12442   3.511   3.193   6.800 -0.2158 -0.2419 -0.2884
  942POPC   C3A12443   3.603   3.200   7.284 -0.2464  0.0447 -0.0091
  942POPC   C4A12444   3.661   3.002   7.680  0.0087 -0.1528 -0.1392
  942POPC   C1B12445   4.368   2.938   6.954  0.2912  0.3949  0.0476
  942POPC   C2B12446   4.629   2.830   7.332 -0.2045  0.1080 -0.2919
  942POPC   C3B12447   4.783   2.947   7.718 -0.1213 -0.0902  0.3392
  942POPC   C4B12448   4.840   3.241   7.987  0.2730  0.2404  0.1047
  943POPC   NC312449   1.389   6.076   5.412  0.1389 -0.3453 -0.3302
  943POPC   PO412450   1.357   5.989   5.715 -0.1950  0.1266  0.1071
  943POPC   GL112451   1.621   6.033   6.029 -0.1120 -0.0137 -0.0651
  943POPC   GL212452   1.707   6.319   6.112  0.2533 -0.0790  0.0938
  943POPC   C1A12453   1.898   5.918   6.358 -0.1406  0.1162  0.1313
  943POPC   D2A12454   2.154   6.064   6.678  0.1667 -0.2109 -0.2582
  943POPC   C3A12455   2.068   5.968   7.043  0.0643 -0.2169 -0.0725
  943POPC   C4A12456   2.035   5.907   7.538 -0.0079 -0.2779  0.1631
  943POPC   C1B12457   1.623   6.285   6.537 -0.0251 -0.0396 -0.1203
  943POPC   C2B12458   1.622   5.941   6.779 -0.2104 -0.0797 -0.0764
  943POPC   C3B12459   1.463   5.771   7.133 -0.1192 -0.1842  0.2412
  943POPC   C4B12460   1.057   5.567   7.296 -0.3733  0.2479 -0.1085
  944POPC   NC312461  17.656  15.238   6.048  0.0949 -0.3891 -0.0084
  944POPC   PO412462  17.260  15.050   6.127  0.1182  0.0776 -0.1245
  944POPC   GL112463  17.100  14.814   6.474  0.1393  0.2249  0.2184
  944POPC   GL212464  17.065  15.072   6.770  0.5579 -0.0478  0.1331
  944POPC   C1A12465  17.258  14.601   6.876 -0.0952 -0.0594  0.0973
  944POPC   D2A12466  17.356  14.089   7.006 -0.4899  0.1954  0.1333
  944POPC   C3A12467  17.747  13.934   7.238 -0.1340  0.0856  0.3861
  944POPC   C4A12468  17.782  13.644   7.523  0.0241 -0.0572  0.1919
  944POPC   C1B12469  17.477  15.110   6.918 -0.2345  0.0574  0.0358
  944POPC   C2B12470  17.970  15.043   6.941  0.0028 -0.1409  0.0132
  944POPC   C3B12471  18.326  15.286   7.251 -0.1435 -0.1607  0.2026
  944POPC   C4B12472  18.664  15.457   7.571  0.4899  0.1890  0.2494
  945POPC   NC312473  11.139   1.699   5.982 -0.2101  0.1876  0.3186
  945POPC   PO412474  10.830   1.403   5.769 -0.1610 -0.1174 -0.4275
  945POPC   GL112475  10.940   1.220   6.203  0.2126  0.1280 -0.1979
  945POPC   GL212476  10.542   1.339   6.219  0.1718 -0.2752  0.1830
  945POPC   C1A12477  10.896   1.330   6.697  0.0682  0.3211  0.0274
  945POPC   D2A12478  10.948   1.301   7.165  0.2097  0.0745  0.2546
  945POPC   C3A12479  11.090   1.369   7.566 -0.0267 -0.0109 -0.0140
  945POPC   C4A12480  11.421   1.380   7.863  0.4321  0.0621  0.2046
  945POPC   C1B12481  10.259   1.348   6.456  0.0751  0.1573 -0.0142
  945POPC   C2B12482  10.209   1.317   6.812 -0.1665  0.0854  0.0804
  945POPC   C3B12483  10.115   1.362   7.241 -0.0857  0.0797  0.1622
  945POPC   C4B12484  10.097   1.253   7.571 -0.2734  0.1581  0.1494
  946POPC   NC312485   8.240   0.999   5.234 -0.0716 -0.1328 -0.0976
  946POPC   PO412486   8.480   0.873   5.582  0.3227  0.0130  0.1007
  946POPC   GL112487   8.323   0.983   6.061  0.0372  0.2440  0.2340
  946POPC   GL212488   8.277   1.344   5.983  0.2661  0.3015 -0.1562
  946POPC   C1A12489   8.513   0.817   6.429 -0.2763 -0.1025 -0.2651
  946POPC   D2A12490   8.585   0.704   6.851 -0.1266  0.2502 -0.0912
  946POPC   C3A12491   8.897   0.416   6.954  0.1017 -0.2007  0.1043
  946POPC   C4A12492   8.852   0.133   7.341 -0.1898 -0.1169 -0.1421
  946POPC   C1B12493   8.362   1.507   6.430 -0.1913  0.1332 -0.3736
  946POPC   C2B12494   8.458   1.203   6.729  0.1069  0.1452 -0.3202
  946POPC   C3B12495   8.500   1.237   7.098  0.0078 -0.4515 -0.2049
  946POPC   C4B12496   8.763   1.221   7.540  0.0292 -0.0659 -0.0398
  947POPC   NC312497  10.017  14.942   5.746 -0.0287 -0.2027  0.1171
  947POPC   PO412498  10.272  14.618   5.707 -0.3212 -0.0372 -0.0210
  947POPC   GL112499  10.388  14.846   6.076 -0.0924 -0.1380  0.0737
  947POPC   GL212500  10.217  15.086   6.193 -0.3030 -0.2790  0.2137
  947POPC   C1A12501  10.744  15.099   6.181 -0.1994  0.0611  0.0773
  947POPC   D2A12502  11.055  14.995   6.494  0.3912 -0.1314  0.1131
  947POPC   C3A12503  10.992  14.826   6.945 -0.2388  0.1905  0.1912
  947POPC   C4A12504  10.910  14.521   7.226 -0.0016  0.3066  0.0483
  947POPC   C1B12505  10.150  14.964   6.628  0.2339  0.1344  0.0410
  947POPC   C2B12506  10.188  15.012   7.043 -0.3003  0.0840 -0.0882
  947POPC   C3B12507  10.248  15.070   7.519  0.1581 -0.4753  0.2439
  947POPC   C4B12508  10.113  14.865   7.881 -0.4117 -0.2501  0.0491
  948POPC   NC312509   1.986  15.709   6.215  0.3905 -0.3195 -0.0157
  948POPC   PO412510   1.674  15.736   6.461 -0.0989  0.2686 -0.0342
  948POPC   GL112511   1.732  15.929   6.954  0.4679 -0.0065  0.1656
  948POPC   GL212512   1.749  15.664   7.164 -0.0265  0.0085  0.3084
  948POPC   C1A12513   1.873  16.151   7.306 -0.0222  0.4366 -0.0780
  948POPC   D2A12514   1.972  16.236   7.788  0.4012  0.1052 -0.0449
  948POPC   C3A12515   2.241  16.194   8.115  0.1717 -0.1050  0.1906
  948POPC   C4A12516   2.506  16.157   8.481 -0.1401  0.0114 -0.1365
  948POPC   C1B12517   1.827  15.672   7.559 -0.0241  0.0595 -0.2412
  948POPC   C2B12518   1.759  15.798   8.035 -0.1487  0.3607 -0.0789
  948POPC   C3B12519   1.778  16.111   8.280  0.1181 -0.1384  0.1437
  948POPC   C4B12520   1.628  16.191   8.709 -0.1055  0.0733  0.2864
  949POPC   NC312521  10.734   5.660   5.944 -0.1088 -0.1656 -0.3019
  949POPC   PO412522  11.126   5.499   6.172  0.0547 -0.0179  0.0815
  949POPC   GL112523  10.966   5.454   6.460  0.1990  0.1235 -0.0647
  949POPC   GL212524  10.721   5.301   6.574 -0.1865 -0.0373  0.0920
  949POPC   C1A12525  11.104   5.329   6.891  0.0650  0.0934 -0.0482
  949POPC   D2A12526  11.330   5.216   7.238  0.1570 -0.2680 -0.2137
  949POPC   C3A12527  11.294   5.521   7.549 -0.2725  0.4733  0.0179
  949POPC   C4A12528  11.187   5.470   7.946 -0.2181  0.0610  0.1114
  949POPC   C1B12529  10.501   5.534   6.742 -0.1175  0.2542 -0.0624
  949POPC   C2B12530  10.419   5.581   7.140 -0.1793 -0.0258 -0.0196
  949POPC   C3B12531  10.235   5.562   7.473 -0.0608  0.0800  0.0422
  949POPC   C4B12532  10.134   5.519   7.941 -0.0101 -0.1465  0.2932
  950POPC   NC312533   4.789   4.738   5.595  0.0606 -0.1436 -0.0471
  950POPC   PO412534   5.096   5.064   5.793 -0.0302  0.0015 -0.0829
  950POPC   GL112535   5.141   5.047   6.370  0.1462 -0.4012  0.1196
  950POPC   GL212536   5.158   4.732   6.635 -0.0616 -0.2779 -0.0481
  950POPC   C1A12537   5.227   5.212   6.747  0.0529  0.0334 -0.0051
  950POPC   D2A12538   5.501   5.306   7.142  0.0427  0.2821 -0.2039
  950POPC   C3A12539   5.349   5.113   7.418 -0.2152  0.0224  0.4044
  950POPC   C4A12540   4.939   4.980   7.620  0.1701  0.1195  0.0772
  950POPC   C1B12541   5.140   4.741   7.134 -0.0915 -0.0877  0.0820
  950POPC   C2B12542   5.195   4.570   7.518  0.2736  0.3291  0.0490
  950POPC   C3B12543   5.371   4.837   7.853  0.0944 -0.1637  0.0183
  950POPC   C4B12544   5.319   5.017   8.293 -0.2059 -0.1407 -0.0099
  951POPC   NC312545   3.472  10.154   6.198  0.0473 -0.3339 -0.4713
  951POPC   PO412546   3.586   9.832   6.233  0.4037  0.1284  0.3122
  951POPC   GL112547   3.709   9.943   6.622  0.2077  0.0190 -0.0184
  951POPC   GL212548   3.658  10.195   6.754  0.1480  0.0722  0.0927
  951POPC   C1A12549   3.907   9.745   6.909  0.4245  0.1169  0.0839
  951POPC   D2A12550   4.378   9.585   7.148  0.1045  0.0799 -0.2951
  951POPC   C3A12551   4.319   9.519   7.536 -0.2512 -0.1957  0.0217
  951POPC   C4A12552   4.369   9.649   7.981 -0.1147 -0.2854  0.0861
  951POPC   C1B12553   3.681  10.140   7.142  0.0293  0.0962 -0.2533
  951POPC   C2B12554   3.708  10.371   7.547 -0.0851  0.0225  0.2894
  951POPC   C3B12555   3.783  10.564   7.857 -0.0682  0.3862  0.4770
  951POPC   C4B12556   4.077  10.573   8.136 -0.3809  0.0999  0.0325
  952POPC   NC312557   0.058  10.007   5.707 -0.1333  0.0868  0.1325
  952POPC   PO412558  -0.215  10.338   5.976  0.1048 -0.3139  0.2441
  952POPC   GL112559  -0.123  10.502   6.357 -0.1812 -0.2436 -0.3101
  952POPC   GL212560  -0.177  10.337   6.605 -0.0961 -0.1007  0.0250
  952POPC   C1A12561   0.256  10.496   6.693 -0.0515 -0.1317 -0.0327
  952POPC   D2A12562   0.490  10.929   6.703  0.1703  0.3451  0.3851
  952POPC   C3A12563   0.592  11.049   7.119  0.1564  0.0759  0.1307
  952POPC   C4A12564   0.983  10.944   7.313 -0.1055  0.2985 -0.0016
  952POPC   C1B12565  -0.077  10.096   6.963 -0.0899 -0.0483 -0.0587
  952POPC   C2B12566  -0.089  10.033   7.396  0.1988 -0.2938  0.3749
  952POPC   C3B12567   0.185  10.159   7.703  0.3127 -0.1951  0.0318
  952POPC   C4B12568   0.072  10.437   8.082  0.2518  0.2595 -0.0209
  953POPC   NC312569   8.849   3.907   5.673  0.0053 -0.1351  0.0318
  953POPC   PO412570   9.103   3.612   5.565  0.0964  0.0485  0.1689
  953POPC   GL112571   9.132   3.737   6.034  0.0720 -0.0604  0.0618
  953POPC   GL212572   9.358   3.740   6.209  0.2385 -0.1960 -0.1875
  953POPC   C1A12573   8.881   3.837   6.390 -0.1922 -0.0034  0.2110
  953POPC   D2A12574   8.680   3.721   6.666  0.0861  0.1255  0.1492
  953POPC   C3A12575   8.711   3.360   6.871  0.5746 -0.1548  0.1626
  953POPC   C4A12576   9.027   3.176   7.045 -0.1030 -0.0361  0.1504
  953POPC   C1B12577   9.460   3.940   6.526 -0.0625 -0.2115 -0.2483
  953POPC   C2B12578   9.564   3.888   6.936 -0.1348 -0.0932  0.1740
  953POPC   C3B12579   9.482   3.570   7.250 -0.1050 -0.0183  0.0460
  953POPC   C4B12580   9.451   3.552   7.803  0.2061  0.2210 -0.2119
  954POPC   NC312581   4.467   1.259   6.111 -0.1705 -0.1647  0.0026
  954POPC   PO412582   4.431   1.699   5.932 -0.2263 -0.0493  0.0750
  954POPC   GL112583   4.361   1.881   6.293  0.0391  0.3237  0.0386
  954POPC   GL212584   4.149   1.676   6.449  0.1703  0.0006  0.0738
  954POPC   C1A12585   4.279   2.073   6.728  0.3666 -0.2656  0.4008
  954POPC   D2A12586   4.180   2.326   7.058 -0.1998 -0.2040 -0.1334
  954POPC   C3A12587   4.383   2.375   7.484 -0.2658 -0.2085 -0.0507
  954POPC   C4A12588   4.155   2.012   7.828  0.2171 -0.3365  0.2768
  954POPC   C1B12589   4.545   1.555   6.770  0.1215  0.2585 -0.1528
  954POPC   C2B12590   4.797   1.555   7.171 -0.0113 -0.2964 -0.0818
  954POPC   C3B12591   4.991   1.460   7.571 -0.3922 -0.4101  0.2122
  954POPC   C4B12592   4.870   1.583   7.927 -0.1335  0.0318  0.0242
  955POPC   NC312593  10.421   6.687   6.113 -0.3395 -0.2304  0.0044
  955POPC   PO412594  10.841   6.572   6.134 -0.0944 -0.0067 -0.2663
  955POPC   GL112595  11.122   6.707   6.431  0.2465  0.0991  0.0216
  955POPC   GL212596  11.496   6.580   6.499 -0.2373 -0.0456 -0.2438
  955POPC   C1A12597  11.136   6.734   6.882  0.0254 -0.1223 -0.0040
  955POPC   D2A12598  11.244   6.500   7.245 -0.0522  0.0959  0.2114
  955POPC   C3A12599  10.932   6.446   7.575 -0.1266  0.1127  0.0736
  955POPC   C4A12600  10.736   6.326   7.917  0.0110  0.0747 -0.0698
  955POPC   C1B12601  11.733   6.551   6.824  0.1749 -0.4902 -0.2938
  955POPC   C2B12602  11.733   6.522   7.324  0.1375 -0.1332 -0.0785
  955POPC   C3B12603  11.440   6.504   7.727  0.0449  0.3246 -0.1942
  955POPC   C4B12604  11.191   6.337   8.074 -0.2657 -0.1215  0.3306
  956POPC   NC312605   1.695   4.185   5.731  0.0156 -0.2466 -0.1311
  956POPC   PO412606   1.511   3.913   6.036 -0.1045  0.3529  0.1955
  956POPC   GL112607   1.380   3.637   6.431  0.0057 -0.0770  0.1282
  956POPC   GL212608   1.373   3.864   6.619  0.1520  0.1119 -0.3956
  956POPC   C1A12609   0.992   3.467   6.729  0.0355  0.3276  0.3707
  956POPC   D2A12610   0.597   3.552   6.941 -0.0251 -0.3625  0.1306
  956POPC   C3A12611   0.340   3.843   6.798 -0.2727 -0.0792 -0.0177
  956POPC   C4A12612  -0.096   4.063   6.755 -0.3293  0.1080 -0.0080
  956POPC   C1B12613   1.283   3.703   7.096 -0.0372 -0.0948 -0.0054
  956POPC   C2B12614   0.957   3.765   7.359 -0.2316 -0.2665  0.2498
  956POPC   C3B12615   0.756   3.775   7.788  0.1609  0.0183 -0.1272
  956POPC   C4B12616   0.486   3.744   8.212 -0.1332 -0.1647  0.0940
  957POPC   NC312617  13.223  11.222   6.241 -0.0970 -0.1382 -0.0482
  957POPC   PO412618  13.477  11.524   6.242 -0.0661 -0.1178 -0.0436
  957POPC   GL112619  13.473  11.671   6.696 -0.6319  0.0862 -0.2552
  957POPC   GL212620  13.232  11.918   6.890 -0.1853 -0.1856 -0.3596
  957POPC   C1A12621  13.770  11.826   6.997 -0.0818  0.1965  0.0575
  957POPC   D2A12622  13.852  11.768   7.414 -0.0404  0.0365 -0.2650
  957POPC   C3A12623  13.956  11.910   7.764 -0.0144 -0.1291  0.3244
  957POPC   C4A12624  13.972  12.333   7.978 -0.2866 -0.2276 -0.0835
  957POPC   C1B12625  13.074  11.828   7.264 -0.0916  0.2028  0.1428
  957POPC   C2B12626  12.856  11.892   7.615  0.1945 -0.0985 -0.1910
  957POPC   C3B12627  12.672  11.603   7.877 -0.0768  0.2091 -0.0587
  957POPC   C4B12628  12.523  11.301   8.261 -0.1426  0.1783  0.1065
  958POPC   NC312629  16.125   1.285   6.019 -0.0480 -0.0805  0.1680
  958POPC   PO412630  16.113   0.904   6.232 -0.0319  0.0959 -0.2374
  958POPC   GL112631  16.234   1.199   6.544 -0.4429 -0.0576  0.1793
  958POPC   GL212632  16.194   1.020   6.795  0.0015  0.0307  0.1444
  958POPC   C1A12633  16.208   1.462   6.962  0.0676  0.2008 -0.3609
  958POPC   D2A12634  16.256   1.716   7.372 -0.1711  0.3056  0.1876
  958POPC   C3A12635  16.169   1.606   7.712 -0.2487 -0.2242 -0.2156
  958POPC   C4A12636  16.232   1.948   8.006  0.2862 -0.0557  0.2944
  958POPC   C1B12637  16.166   0.905   7.252  0.0305  0.0332 -0.1487
  958POPC   C2B12638  16.139   1.117   7.623 -0.2795  0.1310 -0.1944
  958POPC   C3B12639  16.358   1.177   7.951 -0.0956  0.0118 -0.0906
  958POPC   C4B12640  16.589   1.106   8.308  0.0375 -0.0227  0.0172
  959POPC   NC312641  15.891   8.610   5.857  0.2303  0.0261  0.0012
  959POPC   PO412642  15.522   8.552   6.163 -0.3102 -0.1559  0.0330
  959POPC   GL112643  15.849   8.565   6.466 -0.0271  0.0979 -0.1819
  959POPC   GL212644  16.054   8.313   6.423  0.0078 -0.1446  0.3151
  959POPC   C1A12645  15.879   8.649   6.856 -0.1547  0.0180  0.0648
  959POPC   D2A12646  15.982   8.609   7.339  0.2072  0.1569  0.4426
  959POPC   C3A12647  15.907   8.718   7.678 -0.0720  0.0307 -0.1167
  959POPC   C4A12648  15.731   8.926   8.088  0.0718 -0.1172  0.2306
  959POPC   C1B12649  16.348   8.367   6.739  0.1417 -0.0231  0.1287
  959POPC   C2B12650  16.280   8.212   7.084  0.1761  0.1303  0.2216
  959POPC   C3B12651  16.141   8.112   7.426  0.2145 -0.0481  0.1313
  959POPC   C4B12652  15.875   7.842   7.561  0.1006 -0.0632  0.1422
  960POPC   NC312653  13.573   8.739   6.032  0.2531 -0.1684 -0.1322
  960POPC   PO412654  13.892   8.474   6.047 -0.1793 -0.0218  0.2760
  960POPC   GL112655  13.605   8.427   6.402 -0.2715  0.2487  0.3436
  960POPC   GL212656  13.744   8.173   6.652  0.2083 -0.1275 -0.0885
  960POPC   C1A12657  13.325   8.590   6.748 -0.1477  0.1631 -0.1965
  960POPC   D2A12658  13.067   8.528   7.097 -0.0608  0.0066  0.3467
  960POPC   C3A12659  13.169   8.314   7.538  0.1014 -0.1843  0.2195
  960POPC   C4A12660  13.383   8.055   7.804 -0.1342 -0.0718  0.3758
  960POPC   C1B12661  13.830   8.266   7.067 -0.2126 -0.0098  0.0254
  960POPC   C2B12662  13.969   8.162   7.443  0.0091  0.1117 -0.1058
  960POPC   C3B12663  13.926   8.104   7.826  0.0921  0.1872  0.2115
  960POPC   C4B12664  14.055   7.909   8.160 -0.0378  0.3363  0.0292
  961POPC   NC312665  15.388  13.445   5.875  0.0072 -0.3014  0.0444
  961POPC   PO412666  15.379  13.615   6.245  0.3053  0.2685 -0.0374
  961POPC   GL112667  15.081  13.541   6.626  0.0076 -0.0899  0.2831
  961POPC   GL212668  14.739  13.519   6.800  0.3557 -0.2203  0.1167
  961POPC   C1A12669  15.297  13.315   6.931 -0.0124 -0.1580  0.1159
  961POPC   D2A12670  15.698  13.301   7.100 -0.0782  0.1387  0.1845
  961POPC   C3A12671  15.666  13.370   7.560 -0.0702 -0.1564 -0.2613
  961POPC   C4A12672  15.774  13.242   8.030  0.2189 -0.2786  0.2231
  961POPC   C1B12673  14.868  13.515   7.084 -0.2279 -0.1454  0.1541
  961POPC   C2B12674  14.735  13.493   7.522  0.0805  0.1032 -0.1166
  961POPC   C3B12675  14.760  13.348   7.998  0.0230 -0.0496 -0.2194
  961POPC   C4B12676  14.607  13.109   8.474 -0.1212 -0.0913  0.1001
  962POPC   NC312677  11.355   3.468   5.456  0.1694 -0.0435 -0.3178
  962POPC   PO412678  11.263   3.425   5.924 -0.0665 -0.2084 -0.1173
  962POPC   GL112679  11.192   3.264   6.319  0.3500 -0.2100 -0.1635
  962POPC   GL212680  11.552   3.310   6.441 -0.2478  0.4504 -0.0148
  962POPC   C1A12681  11.105   3.231   6.681  0.1311 -0.1905 -0.2188
  962POPC   D2A12682  11.228   3.352   7.073  0.2720 -0.2942  0.0636
  962POPC   C3A12683  10.972   3.583   7.321  0.3347  0.0092  0.1916
  962POPC   C4A12684  11.033   4.031   7.569 -0.0049  0.0619 -0.1361
  962POPC   C1B12685  11.796   3.219   6.828 -0.0805 -0.0756 -0.0450
  962POPC   C2B12686  11.785   3.233   7.282 -0.0226 -0.2710 -0.0730
  962POPC   C3B12687  11.860   3.054   7.746  0.0042 -0.1886 -0.0344
  962POPC   C4B12688  12.242   2.919   7.909 -0.1447 -0.0601 -0.0264
  963POPC   NC312689   8.990  17.528   5.197  0.6217  0.2534 -0.1517
  963POPC   PO412690   9.244  17.247   5.421  0.1668  0.0629  0.0957
  963POPC   GL112691   9.206  17.621   5.664 -0.0432  0.0042  0.0726
  963POPC   GL212692   9.518  17.758   5.702  0.2296 -0.1814 -0.3094
  963POPC   C1A12693   9.237  17.617   6.071  0.0895 -0.1718  0.0453
  963POPC   D2A12694   9.194  17.706   6.522 -0.0695 -0.1822 -0.0394
  963POPC   C3A12695   9.072  17.779   6.980 -0.0447  0.1783  0.0711
  963POPC   C4A12696   8.777  17.505   7.263  0.0790 -0.1126 -0.0470
  963POPC   C1B12697   9.590  17.965   5.996  0.1856 -0.0600 -0.1935
  963POPC   C2B12698   9.683  18.164   6.495  0.0337  0.3637  0.3007
  963POPC   C3B12699   9.860  18.373   6.796 -0.2734  0.0888  0.0103
  963POPC   C4B12700  10.345  18.332   6.982 -0.2506 -0.1172  0.1815
  964POPC   NC312701  15.834   2.807   5.239  0.1451 -0.1246 -0.1872
  964POPC   PO412702  15.966   3.156   5.446 -0.3972 -0.0521  0.2492
  964POPC   GL112703  15.989   3.042   5.926  0.2595 -0.2170  0.1229
  964POPC   GL212704  15.712   3.257   6.145 -0.1956 -0.1568 -0.1322
  964POPC   C1A12705  16.182   3.056   6.256 -0.0720  0.0411  0.0005
  964POPC   D2A12706  16.279   3.038   6.652  0.0542 -0.0152 -0.1297
  964POPC   C3A12707  16.467   3.192   7.006  0.0813  0.1894  0.0700
  964POPC   C4A12708  16.374   3.484   7.177 -0.3599  0.0076  0.1441
  964POPC   C1B12709  15.769   3.324   6.671 -0.0601 -0.3425 -0.2789
  964POPC   C2B12710  15.883   3.375   7.029 -0.2181 -0.1066 -0.0329
  964POPC   C3B12711  15.725   3.564   7.478 -0.3466 -0.0474  0.1377
  964POPC   C4B12712  15.972   3.577   7.933 -0.0231  0.2443  0.1522
  965POPC   NC312713   9.842  14.004   5.424 -0.0224  0.2404  0.4658
  965POPC   PO412714   9.871  14.341   5.773  0.1560  0.1719 -0.1023
  965POPC   GL112715   9.962  14.646   6.212  0.1078 -0.0007 -0.0957
  965POPC   GL212716   9.747  14.819   6.225 -0.1372 -0.2414 -0.1790
  965POPC   C1A12717  10.266  14.553   6.466  0.0049  0.1792 -0.0598
  965POPC   D2A12718  10.761  14.593   6.356 -0.1739 -0.2763  0.0324
  965POPC   C3A12719  11.045  14.365   6.762 -0.1707  0.3649  0.0068
  965POPC   C4A12720  11.334  14.137   6.959  0.1410  0.1444  0.0738
  965POPC   C1B12721   9.660  14.944   6.671  0.0424  0.1187 -0.1446
  965POPC   C2B12722   9.695  15.097   7.106  0.0202  0.1949  0.0209
  965POPC   C3B12723   9.715  15.261   7.542 -0.2261 -0.0232 -0.3454
  965POPC   C4B12724   9.959  15.352   7.916  0.1145  0.1513 -0.4658
  966POPC   NC312725   2.424   8.945   6.153 -0.2696  0.1046 -0.1512
  966POPC   PO412726   2.557   8.561   6.240  0.2234 -0.0125 -0.1600
  966POPC   GL112727   2.454   8.635   6.628  0.2776 -0.2838 -0.0547
  966POPC   GL212728   2.217   8.878   6.572  0.0102 -0.0412 -0.1578
  966POPC   C1A12729   2.436   8.807   7.072 -0.0006  0.1091 -0.0213
  966POPC   D2A12730   2.536   8.855   7.616  0.3412 -0.3212  0.2770
  966POPC   C3A12731   2.533   8.672   7.998  0.0130  0.0236 -0.0848
  966POPC   C4A12732   2.420   8.942   8.321 -0.0634 -0.2064  0.0053
  966POPC   C1B12733   2.058   9.087   6.869  0.0714  0.2034  0.0733
  966POPC   C2B12734   2.157   9.093   7.358  0.0288  0.1864  0.3200
  966POPC   C3B12735   2.370   9.329   7.584  0.0029 -0.1232 -0.1161
  966POPC   C4B12736   2.603   9.331   7.973  0.1610  0.0642  0.0891
  967POPC   NC312737   7.010  15.765   5.684  0.0811 -0.0319  0.2923
  967POPC   PO412738   7.489  15.901   5.761  0.1268  0.3654  0.0307
  967POPC   GL112739   7.366  15.610   6.084  0.1605 -0.2475  0.0089
  967POPC   GL212740   7.119  15.631   6.152  0.1244 -0.0708 -0.0390
  967POPC   C1A12741   7.441  15.499   6.470 -0.1712 -0.2168 -0.0509
  967POPC   D2A12742   7.456  15.397   6.909  0.0156 -0.0555  0.0077
  967POPC   C3A12743   7.214  15.503   7.191  0.0051 -0.2061  0.0062
  967POPC   C4A12744   6.788  15.526   7.325 -0.4835  0.0227  0.1084
  967POPC   C1B12745   7.256  16.012   6.423 -0.2187 -0.2734  0.0951
  967POPC   C2B12746   7.353  15.958   6.855 -0.0079 -0.1408  0.2192
  967POPC   C3B12747   7.616  15.831   7.255 -0.0378  0.0056  0.2057
  967POPC   C4B12748   7.902  15.632   7.398  0.0924  0.0183 -0.2798
  968POPC   NC312749  16.692  15.814   6.251 -0.0420 -0.2527  0.1959
  968POPC   PO412750  16.341  15.387   6.208 -0.1409  0.2264 -0.3593
  968POPC   GL112751  16.263  15.668   6.585 -0.0604 -0.0710  0.2059
  968POPC   GL212752  16.046  15.883   6.585  0.1394  0.3001  0.0087
  968POPC   C1A12753  16.173  15.525   7.028 -0.1825  0.2104 -0.1291
  968POPC   D2A12754  15.964  15.460   7.375 -0.1693  0.0396  0.0129
  968POPC   C3A12755  16.181  15.507   7.865  0.2763 -0.1281  0.1374
  968POPC   C4A12756  16.244  15.168   8.122  0.0429  0.0148 -0.0063
  968POPC   C1B12757  16.005  16.012   7.117  0.0044  0.0963 -0.1660
  968POPC   C2B12758  15.889  16.306   7.409 -0.2882  0.4169  0.1021
  968POPC   C3B12759  15.965  16.403   7.780  0.3686 -0.1082  0.1544
  968POPC   C4B12760  15.553  16.171   8.067  0.4479  0.3332  0.1655
  969POPC   NC312761   1.755   6.913   5.788 -0.0872  0.0916  0.0742
  969POPC   PO412762   1.639   6.892   6.159  0.1048 -0.1439 -0.0673
  969POPC   GL112763   1.414   6.796   6.569 -0.2237  0.0664  0.0749
  969POPC   GL212764   1.167   6.551   6.514  0.0271 -0.0601  0.1228
  969POPC   C1A12765   1.434   6.777   7.023  0.1178 -0.0577 -0.4108
  969POPC   D2A12766   1.379   6.566   7.456 -0.0229  0.1674  0.2775
  969POPC   C3A12767   1.456   6.277   7.755 -0.2241  0.3076  0.0324
  969POPC   C4A12768   1.773   6.247   7.934 -0.1749  0.0117  0.0579
  969POPC   C1B12769   1.226   6.413   6.816 -0.2262 -0.1035 -0.0789
  969POPC   C2B12770   1.158   6.210   7.213  0.3329 -0.3471  0.0068
  969POPC   C3B12771   0.832   6.436   7.461  0.0183 -0.0524 -0.0904
  969POPC   C4B12772   0.544   6.706   7.752  0.1988 -0.0931 -0.4181
  970POPC   NC312773   6.243   2.557   5.668 -0.2615  0.0602 -0.1784
  970POPC   PO412774   5.965   2.179   5.857 -0.0179  0.1951 -0.2011
  970POPC   GL112775   6.046   2.074   6.257 -0.2047 -0.3499  0.0066
  970POPC   GL212776   5.799   1.880   6.441 -0.0464  0.2149 -0.0421
  970POPC   C1A12777   6.138   2.274   6.653 -0.0948  0.1784  0.0714
  970POPC   D2A12778   6.088   2.687   6.885 -0.0256 -0.2538 -0.0415
  970POPC   C3A12779   6.260   2.736   7.344  0.0888  0.1532  0.1525
  970POPC   C4A12780   6.574   2.585   7.534  0.0701  0.0914 -0.2819
  970POPC   C1B12781   6.115   1.775   6.736  0.2726 -0.1737  0.0140
  970POPC   C2B12782   6.277   1.804   7.069  0.0643  0.2422  0.0353
  970POPC   C3B12783   6.046   1.800   7.487 -0.1409 -0.2505 -0.1728
  970POPC   C4B12784   5.842   1.725   7.907 -0.2648 -0.1477 -0.0677
  971POPC   NC312785   7.526  12.456   5.787 -0.0318  0.2741 -0.1620
  971POPC   PO412786   7.498  12.351   6.200  0.3302  0.3510 -0.1164
  971POPC   GL112787   7.509  12.546   6.667 -0.3988  0.3659  0.0215
  971POPC   GL212788   7.564  12.923   6.700 -0.1236  0.2790  0.1872
  971POPC   C1A12789   7.485  12.352   7.068  0.2393  0.0606 -0.0280
  971POPC   D2A12790   7.252  12.194   7.333 -0.0090 -0.1094  0.1409
  971POPC   C3A12791   7.532  12.179   7.629  0.1716 -0.0586  0.0422
  971POPC   C4A12792   7.710  12.604   7.892 -0.3201 -0.0899 -0.1028
  971POPC   C1B12793   7.263  12.843   7.055 -0.0226  0.1489 -0.0770
  971POPC   C2B12794   6.826  12.969   7.172 -0.1902 -0.2179 -0.0133
  971POPC   C3B12795   6.539  13.082   6.864  0.0368 -0.3160 -0.1465
  971POPC   C4B12796   6.301  13.097   6.422 -0.1551 -0.1897 -0.0515
  972POPC   NC312797  10.390   4.538   5.786  0.1281  0.1084  0.1960
  972POPC   PO412798  10.624   4.144   5.840 -0.1407 -0.1218  0.1070
  972POPC   GL112799  10.567   4.304   6.211 -0.1265 -0.0301  0.2631
  972POPC   GL212800  10.592   4.647   6.290 -0.0070 -0.1720  0.0311
  972POPC   C1A12801  10.606   4.298   6.686  0.1485 -0.0327 -0.1029
  972POPC   D2A12802  10.647   4.622   7.113  0.1091  0.0597 -0.0497
  972POPC   C3A12803  10.592   4.601   7.554  0.0179 -0.1662 -0.1497
  972POPC   C4A12804  10.997   4.466   7.767  0.0173 -0.0189 -0.2414
  972POPC   C1B12805  10.460   4.783   6.691  0.0977 -0.2160  0.1394
  972POPC   C2B12806  10.595   5.121   7.005 -0.0271  0.0483  0.1869
  972POPC   C3B12807  10.491   5.092   7.423  0.1267 -0.4863 -0.1105
  972POPC   C4B12808  10.367   5.120   7.740 -0.0781 -0.1770 -0.0573
  973POPC   NC312809   7.361  14.532   5.346  0.2524  0.1532  0.3278
  973POPC   PO412810   7.636  14.383   5.649  0.0073 -0.1341 -0.3107
  973POPC   GL112811   7.732  14.604   6.002  0.1574 -0.1585 -0.1579
  973POPC   GL212812   7.832  14.487   6.265 -0.0404  0.0982 -0.1391
  973POPC   C1A12813   7.609  14.948   6.387 -0.3232  0.1145  0.3179
  973POPC   D2A12814   7.253  15.044   6.595  0.3870 -0.3488 -0.1986
  973POPC   C3A12815   7.304  14.911   7.064 -0.0179  0.4897  0.1882
  973POPC   C4A12816   7.470  15.147   7.443 -0.2832 -0.0082 -0.0702
  973POPC   C1B12817   7.741  14.605   6.754  0.1882 -0.1557 -0.1166
  973POPC   C2B12818   7.846  14.774   7.135 -0.2451  0.0065 -0.3691
  973POPC   C3B12819   7.761  14.617   7.557  0.1372 -0.0197  0.2505
  973POPC   C4B12820   7.954  14.692   7.923  0.1699  0.0758  0.2461
  974POPC   NC312821  10.053  12.360   6.185 -0.1778  0.0476 -0.0333
  974POPC   PO412822  10.246  12.814   6.027  0.1193  0.1601 -0.1658
  974POPC   GL112823  10.462  12.766   6.425  0.1548  0.1712 -0.0428
  974POPC   GL212824  10.194  12.717   6.561 -0.0528  0.0115  0.0116
  974POPC   C1A12825  10.484  13.040   6.862 -0.0886 -0.1466  0.0200
  974POPC   D2A12826  10.542  13.471   6.777  0.1141 -0.0671  0.0676
  974POPC   C3A12827  10.336  13.864   6.873 -0.0631  0.1844 -0.0037
  974POPC   C4A12828  10.332  14.071   7.193  0.0215 -0.2075  0.3109
  974POPC   C1B12829  10.069  12.809   6.934 -0.0472  0.0139 -0.2565
  974POPC   C2B12830   9.956  12.850   7.303  0.2958  0.2150 -0.1346
  974POPC   C3B12831  10.006  13.121   7.503 -0.1084 -0.4188  0.1702
  974POPC   C4B12832  10.155  13.504   7.627  0.1706 -0.1638  0.3051
  975POPC   NC312833   0.662   2.716   5.822  0.0826 -0.2664  0.3439
  975POPC   PO412834   0.847   2.490   6.208 -0.2301 -0.1176  0.0953
  975POPC   GL112835   0.975   2.326   6.555 -0.1023 -0.0387 -0.3507
  975POPC   GL212836   0.759   2.060   6.766  0.0722  0.2952 -0.1370
  975POPC   C1A12837   1.008   2.334   7.051  0.1461 -0.1179 -0.1308
  975POPC   D2A12838   1.018   2.374   7.467 -0.4039 -0.1729  0.0151
  975POPC   C3A12839   0.724   2.673   7.644  0.1009  0.1536  0.1790
  975POPC   C4A12840   0.573   2.756   8.064 -0.0318 -0.1813 -0.0614
  975POPC   C1B12841   0.823   1.913   7.159  0.0547  0.3388  0.3173
  975POPC   C2B12842   0.667   1.811   7.513  0.1882 -0.0376 -0.1018
  975POPC   C3B12843   0.589   1.662   7.889  0.1934  0.0885 -0.0121
  975POPC   C4B12844   0.490   1.470   8.278 -0.1039 -0.0845  0.1707
  976POPC   NC312845   2.182  12.824   5.748 -0.0268 -0.0520 -0.2875
  976POPC   PO412846   1.838  13.172   5.703  0.1819  0.2198 -0.0279
  976POPC   GL112847   1.840  12.911   6.137 -0.1957 -0.2594 -0.0050
  976POPC   GL212848   1.536  12.845   6.222 -0.0076  0.3459  0.0535
  976POPC   C1A12849   1.984  13.068   6.473  0.2379  0.1757  0.0754
  976POPC   D2A12850   2.237  13.396   6.667 -0.1487 -0.1323 -0.0644
  976POPC   C3A12851   2.060  13.373   7.148 -0.0049  0.0333 -0.1507
  976POPC   C4A12852   1.727  13.038   7.209 -0.1061  0.1269 -0.0750
  976POPC   C1B12853   1.549  12.394   6.356 -0.1584 -0.1543 -0.2216
  976POPC   C2B12854   1.584  12.101   6.773 -0.0602  0.0628 -0.1017
  976POPC   C3B12855   1.374  11.731   6.970 -0.0074  0.0685  0.2383
  976POPC   C4B12856   1.081  11.403   7.100 -0.1726 -0.0131 -0.2809
  977POPC   NC312857   4.637   2.175   5.937  0.0932 -0.1176 -0.0088
  977POPC   PO412858   4.618   2.669   6.032  0.0196 -0.4149 -0.1794
  977POPC   GL112859   4.549   2.468   6.398  0.0432  0.0336 -0.0219
  977POPC   GL212860   4.210   2.408   6.331 -0.2778  0.0286 -0.1117
  977POPC   C1A12861   4.638   2.487   6.852 -0.2087 -0.1802  0.0490
  977POPC   D2A12862   4.932   2.349   7.357 -0.1073 -0.2716 -0.0083
  977POPC   C3A12863   4.843   2.467   7.705  0.2113 -0.2192 -0.0010
  977POPC   C4A12864   4.844   2.721   8.198 -0.1734  0.0011 -0.2227
  977POPC   C1B12865   3.945   2.521   6.594 -0.2702 -0.1264  0.1128
  977POPC   C2B12866   3.863   2.774   6.976  0.0807  0.0941 -0.2614
  977POPC   C3B12867   4.036   2.859   7.327 -0.3510  0.0094  0.1518
  977POPC   C4B12868   4.331   2.874   7.709 -0.1032  0.0177  0.1448
  978POPC   NC312869  17.049   7.751   5.614  0.2655 -0.2215  0.1353
  978POPC   PO412870  17.471   7.733   5.903  0.0775  0.1019 -0.1800
  978POPC   GL112871  17.410   7.662   6.310 -0.2073 -0.0212  0.1561
  978POPC   GL212872  17.006   7.513   6.388 -0.0583  0.0742 -0.2897
  978POPC   C1A12873  17.486   7.742   6.763 -0.0450 -0.0596  0.0164
  978POPC   D2A12874  17.560   7.773   7.270 -0.0165  0.0166 -0.0326
  978POPC   C3A12875  17.684   8.128   7.289 -0.0790 -0.2284 -0.0824
  978POPC   C4A12876  17.538   8.449   7.295  0.2517  0.0407  0.0898
  978POPC   C1B12877  17.043   7.139   6.619  0.1544 -0.0892 -0.3276
  978POPC   C2B12878  17.208   6.875   7.000  0.0413  0.0378  0.1771
  978POPC   C3B12879  17.152   6.945   7.342 -0.0353  0.1418 -0.5116
  978POPC   C4B12880  16.758   6.961   7.508 -0.0266  0.1151  0.1289
  979POPC   NC312881   3.187   3.342   6.035 -0.3284  0.3020 -0.1337
  979POPC   PO412882   3.479   3.023   5.994 -0.1528 -0.1591  0.1213
  979POPC   GL112883   3.357   2.965   6.376  0.1784  0.1577 -0.1353
  979POPC   GL212884   3.425   2.743   6.599 -0.0127 -0.2071  0.1471
  979POPC   C1A12885   2.943   2.898   6.642  0.1110 -0.0398 -0.0607
  979POPC   D2A12886   2.781   2.902   7.004  0.0632 -0.0157  0.4733
  979POPC   C3A12887   2.639   3.268   7.234 -0.0276 -0.0732  0.0076
  979POPC   C4A12888   2.699   3.625   7.461 -0.2221  0.1289  0.0326
  979POPC   C1B12889   3.256   2.836   7.004 -0.0808  0.0781 -0.2302
  979POPC   C2B12890   3.128   2.923   7.382  0.1582 -0.0985 -0.3056
  979POPC   C3B12891   3.252   3.088   7.835  0.1262  0.1532  0.2033
  979POPC   C4B12892   3.110   3.325   8.068 -0.0604  0.3215 -0.2270
  980POPC   NC312893   1.205   0.310   6.718  0.2954  0.0440  0.1233
  980POPC   PO412894   0.696   0.171   6.546  0.0344 -0.0701 -0.0705
  980POPC   GL112895   0.714   0.117   7.042 -0.1048 -0.0720 -0.2728
  980POPC   GL212896   1.031   0.220   7.220  0.2274  0.0666  0.0346
  980POPC   C1A12897   0.528   0.049   7.372  0.2882  0.2973  0.2887
  980POPC   D2A12898   0.422  -0.277   7.679  0.2586 -0.1751  0.1344
  980POPC   C3A12899   0.368  -0.263   8.001 -0.0836  0.2046  0.0639
  980POPC   C4A12900   0.278  -0.299   8.381 -0.0801  0.0740 -0.0458
  980POPC   C1B12901   1.241  -0.055   7.518 -0.1305  0.2028  0.1212
  980POPC   C2B12902   1.608  -0.131   7.597  0.3258  0.0077  0.3732
  980POPC   C3B12903   1.874  -0.341   7.844  0.0741  0.1092 -0.0205
  980POPC   C4B12904   1.894  -0.711   8.070 -0.1526 -0.2746 -0.0484
  981POPC   NC312905  13.459   1.810   5.975 -0.1247 -0.0461 -0.3393
  981POPC   PO412906  13.072   1.788   6.201  0.3430  0.0442 -0.1827
  981POPC   GL112907  12.969   1.795   6.680 -0.0857  0.1608  0.2856
  981POPC   GL212908  13.113   1.707   6.821  0.1925 -0.3553 -0.0200
  981POPC   C1A12909  12.755   2.098   6.933 -0.2028 -0.0748 -0.0516
  981POPC   D2A12910  12.414   1.887   7.294  0.0549 -0.2146 -0.1513
  981POPC   C3A12911  12.543   2.049   7.785  0.1040 -0.0203 -0.2195
  981POPC   C4A12912  12.781   1.927   8.227  0.0445 -0.0110 -0.2235
  981POPC   C1B12913  13.140   1.877   7.194  0.1122  0.4277  0.2831
  981POPC   C2B12914  13.328   2.075   7.634 -0.0655  0.2584  0.2234
  981POPC   C3B12915  13.257   1.898   8.016  0.3392 -0.2149 -0.2038
  981POPC   C4B12916  13.205   1.412   8.061 -0.0524 -0.0201 -0.1006
  982YOPC   NC312917   2.357   1.423   6.308 -0.1113 -0.2890 -0.0476
  982YOPC   PO412918   2.193   1.819   6.431 -0.2165 -0.1635  0.0006
  982YOPC   GL112919   2.381   1.956   6.839  0.0666  0.0780 -0.1829
  982YOPC   GL212920   2.759   1.901   6.826  0.0189 -0.2010 -0.0788
  982YOPC   C1A12921   2.360   1.739   7.105  0.2204  0.1217 -0.2823
  982YOPC   D2A12922   2.105   1.614   7.504  0.1653  0.0405 -0.0760
  982YOPC   C3A12923   2.146   1.599   7.888  0.3020 -0.2401 -0.0160
  982YOPC   C4A12924   2.288   1.459   8.350  0.5366  0.3725 -0.0566
  982YOPC   C1B12925   2.780   1.962   7.254  0.0514  0.1392  0.1032
  982YOPC   C2B12926   2.494   1.929   7.621  0.0293  0.0298 -0.4210
  982YOPC   D3B12927   2.366   2.295   7.838  0.2553  0.0879  0.1787
  982YOPC   C4B12928   2.410   2.396   8.339 -0.1144  0.2832  0.0086
  983YOPC   NC312929   9.951  11.615   6.127  0.1718 -0.1090 -0.1976
  983YOPC   PO412930   9.714  12.007   6.296  0.0963  0.1640 -0.3317
  983YOPC   GL112931   9.741  11.879   6.723 -0.0263 -0.0728 -0.0948
  983YOPC   GL212932  10.137  11.871   6.879  0.2807  0.0847  0.0588
  983YOPC   C1A12933   9.568  11.953   7.097  0.2063 -0.1256  0.2591
  983YOPC   D2A12934   9.633  11.910   7.501  0.0758  0.1205  0.2370
  983YOPC   C3A12935   9.849  11.796   7.768  0.0365 -0.1027  0.1421
  983YOPC   C4A12936  10.271  11.750   7.818  0.1796  0.0810  0.0372
  983YOPC   C1B12937  10.116  12.313   7.037  0.1663 -0.0887 -0.1092
  983YOPC   C2B12938  10.187  12.429   7.479 -0.0976  0.0783 -0.0085
  983YOPC   D3B12939   9.965  12.240   7.802 -0.3124 -0.1482  0.0871
  983YOPC   C4B12940  10.113  12.048   8.205 -0.2820  0.1377  0.0175
  984YOPC   NC312941   0.685  13.459   6.218 -0.2829  0.1536  0.5575
  984YOPC   PO412942   0.449  13.158   6.285 -0.1996  0.0116 -0.2017
  984YOPC   GL112943   0.460  13.402   6.693 -0.0305 -0.3538 -0.1968
  984YOPC   GL212944   0.463  13.626   6.601  0.3384  0.1654 -0.0152
  984YOPC   C1A12945   0.764  13.625   7.003  0.0210 -0.1520  0.2222
  984YOPC   D2A12946   1.138  13.910   6.959 -0.2241 -0.2720  0.1715
  984YOPC   C3A12947   1.444  13.711   7.025 -0.0961  0.1304  0.0671
  984YOPC   C4A12948   1.836  13.727   6.896  0.0095  0.1343  0.1692
  984YOPC   C1B12949   0.340  13.912   6.968  0.1485  0.3371  0.0394
  984YOPC   C2B12950   0.337  13.875   7.453  0.0476  0.1552 -0.0947
  984YOPC   D3B12951  -0.014  14.165   7.603 -0.3906 -0.0772 -0.2137
  984YOPC   C4B12952  -0.384  14.049   7.688 -0.1502  0.0655  0.0274
  985YOPC   NC312953  13.968  12.241   5.665 -0.1810  0.4019 -0.1941
  985YOPC   PO412954  14.064  12.090   6.055  0.2844 -0.1239  0.0184
  985YOPC   GL112955  14.243  12.185   6.507 -0.1130  0.1289 -0.0759
  985YOPC   GL212956  13.960  12.093   6.632  0.1537  0.1800 -0.2947
  985YOPC   C1A12957  14.363  12.027   6.892 -0.1023  0.0539  0.0382
  985YOPC   D2A12958  14.332  11.908   7.351  0.0730  0.1335  0.0970
  985YOPC   C3A12959  14.415  11.579   7.612 -0.0787 -0.2151 -0.1700
  985YOPC   C4A12960  14.494  11.325   7.755  0.3388 -0.2366 -0.0757
  985YOPC   C1B12961  14.005  12.276   7.100 -0.0560  0.0995  0.0259
  985YOPC   C2B12962  14.022  12.290   7.471  0.6360 -0.1321 -0.0609
  985YOPC   D3B12963  14.332  12.506   7.596 -0.1663 -0.0606  0.1026
  985YOPC   C4B12964  14.685  12.688   7.318  0.0613 -0.0429  0.1187
  986YOPC   NC312965  14.276   2.731   5.722  0.2586 -0.0730  0.1941
  986YOPC   PO412966  14.298   2.781   6.108  0.3278 -0.0258 -0.2421
  986YOPC   GL112967  14.120   2.932   6.491  0.0230  0.0252  0.2496
  986YOPC   GL212968  13.799   2.826   6.601  0.0162  0.1386 -0.2702
  986YOPC   C1A12969  14.270   2.662   6.861 -0.2118  0.0048  0.0253
  986YOPC   D2A12970  14.379   2.695   7.358  0.4995 -0.0053  0.0881
  986YOPC   C3A12971  14.000   2.858   7.589 -0.1798 -0.0395  0.0631
  986YOPC   C4A12972  13.622   2.898   7.859 -0.0075 -0.0305 -0.1821
  986YOPC   C1B12973  13.724   2.990   7.085  0.0380  0.0220 -0.1007
  986YOPC   C2B12974  13.563   3.175   7.484  0.0380  0.0212  0.1232
  986YOPC   D3B12975  13.915   3.332   7.658  0.0275  0.0247  0.1728
  986YOPC   C4B12976  14.024   3.131   8.023  0.1095  0.1169 -0.0858
  987YOPC   NC312977   5.252   0.974   5.921 -0.0470 -0.1432 -0.1693
  987YOPC   PO412978   5.037   1.409   5.928  0.1644  0.1401 -0.0904
  987YOPC   GL112979   5.331   1.508   6.200 -0.5259  0.3375  0.1356
  987YOPC   GL212980   5.293   1.762   6.402  0.1380 -0.2331  0.2613
  987YOPC   C1A12981   5.569   1.251   6.543  0.1849  0.0574  0.0615
  987YOPC   D2A12982   5.755   0.836   6.679  0.0211  0.0403 -0.1320
  987YOPC   C3A12983   5.958   0.765   7.088 -0.0542  0.1313 -0.3987
  987YOPC   C4A12984   6.126   0.875   7.414  0.0115 -0.0674  0.2137
  987YOPC   C1B12985   5.105   1.853   6.770  0.1433 -0.2501 -0.0352
  987YOPC   C2B12986   5.191   1.957   7.211  0.0071 -0.0035 -0.0875
  987YOPC   D3B12987   5.455   2.316   7.238 -0.1688  0.2245  0.4198
  987YOPC   C4B12988   5.947   2.326   7.259  0.1432  0.0901 -0.2014
  988YOPC   NC312989   4.754   7.515   6.336 -0.1708 -0.2645  0.0232
  988YOPC   PO412990   4.686   8.004   6.193  0.0961 -0.1615 -0.1056
  988YOPC   GL112991   4.691   7.987   6.680 -0.0936 -0.0622  0.1113
  988YOPC   GL212992   4.723   8.351   6.890  0.2437 -0.1787 -0.1753
  988YOPC   C1A12993   4.965   7.896   6.995  0.1390 -0.3755  0.0799
  988YOPC   D2A12994   5.106   8.149   7.400  0.1603 -0.0999 -0.0688
  988YOPC   C3A12995   5.383   8.202   7.680 -0.2837 -0.2591 -0.2625
  988YOPC   C4A12996   5.659   8.160   8.012  0.1445  0.0627 -0.1762
  988YOPC   C1B12997   4.522   8.303   7.290  0.2790 -0.1753  0.0466
  988YOPC   C2B12998   4.163   8.224   7.627 -0.1246  0.3763  0.1794
  988YOPC   D3B12999   3.988   8.629   7.835  0.0318  0.2069 -0.0488
  988YOPC   C4B13000   4.153   8.692   8.167 -0.1940  0.1138 -0.1926
  989YOPC   NC313001  12.628  11.444   5.782  0.0578 -0.0006  0.2237
  989YOPC   PO413002  12.703  11.285   6.235 -0.1817  0.0668  0.1409
  989YOPC   GL113003  12.848  11.507   6.572  0.0985 -0.0085 -0.1177
  989YOPC   GL213004  12.693  11.259   6.803 -0.0940  0.2845  0.1202
  989YOPC   C1A13005  12.727  11.784   6.874 -0.3553  0.2561  0.0270
  989YOPC   D2A13006  12.589  11.912   7.219 -0.0291  0.0167  0.1780
  989YOPC   C3A13007  12.491  12.325   7.309 -0.0262  0.0093  0.2941
  989YOPC   C4A13008  12.373  12.663   7.650 -0.2828 -0.2596 -0.0802
  989YOPC   C1B13009  12.624  10.911   7.040 -0.1494  0.3507  0.2161
  989YOPC   C2B13010  12.539  10.884   7.457  0.0760 -0.0427  0.0048
  989YOPC   D3B13011  12.652  10.592   7.842  0.1699  0.0070 -0.3503
  989YOPC   C4B13012  12.805  10.287   8.203  0.0309 -0.1380 -0.0835
  990YOPC   NC313013  11.175   6.317   5.714 -0.0515  0.0027  0.1147
  990YOPC   PO413014  11.409   6.258   6.102  0.2785  0.0443  0.2576
  990YOPC   GL113015  11.294   6.158   6.503 -0.1297  0.1147  0.1962
  990YOPC   GL213016  11.270   5.795   6.609  0.0527 -0.2559 -0.3300
  990YOPC   C1A13017  11.136   6.224   6.822  0.0898 -0.2190  0.0946
  990YOPC   D2A13018  10.738   6.331   7.070 -0.0332  0.1477  0.1178
  990YOPC   C3A13019  10.673   6.037   7.420  0.0159  0.2020 -0.0326
  990YOPC   C4A13020  10.484   5.906   7.821  0.2477  0.0578  0.0858
  990YOPC   C1B13021  11.288   5.759   7.007 -0.0762 -0.0011 -0.0515
  990YOPC   C2B13022  11.145   6.023   7.338 -0.1594  0.2340 -0.2169
  990YOPC   D3B13023  11.064   5.951   7.754 -0.2359  0.0840 -0.1670
  990YOPC   C4B13024  10.850   5.767   8.078  0.0051 -0.3435 -0.0496
  991YOPC   NC313025  17.419   7.231   6.032  0.3350  0.3598 -0.1808
  991YOPC   PO413026  17.838   7.312   6.077 -0.0154  0.0442  0.1023
  991YOPC   GL113027  17.645   7.233   6.474 -0.3878  0.0427  0.1863
  991YOPC   GL213028  17.691   6.943   6.440  0.0321  0.0814  0.0041
  991YOPC   C1A13029  17.595   7.219   6.957  0.1680  0.1537 -0.1745
  991YOPC   D2A13030  17.731   6.930   7.294 -0.0001 -0.1943 -0.0047
  991YOPC   C3A13031  18.021   6.957   7.650  0.0943 -0.1243  0.1919
  991YOPC   C4A13032  18.148   7.165   8.101 -0.0817 -0.1188 -0.0488
  991YOPC   C1B13033  17.683   6.610   6.717 -0.0164  0.0555  0.0898
  991YOPC   C2B13034  17.362   6.373   7.035 -0.1406  0.2195 -0.1451
  991YOPC   D3B13035  17.481   6.479   7.362  0.1914  0.2300  0.2026
  991YOPC   C4B13036  17.460   6.811   7.724  0.0194 -0.1638 -0.2312
  992YOPC   NC313037   9.588   9.793   6.344  0.1127 -0.3850  0.0571
  992YOPC   PO413038   9.969   9.781   6.119  0.0358 -0.0756 -0.1037
  992YOPC   GL113039  10.028   9.908   6.600 -0.0802 -0.3042  0.3496
  992YOPC   GL213040  10.385   9.857   6.690  0.1106 -0.1683  0.1959
  992YOPC   C1A13041   9.903   9.763   6.966 -0.2143 -0.2424 -0.0511
  992YOPC   D2A13042   9.470   9.731   7.060  0.0187 -0.0615  0.3869
  992YOPC   C3A13043   9.272   9.416   7.252 -0.4463 -0.2626  0.3109
  992YOPC   C4A13044   9.402   9.022   7.231 -0.0049  0.2422 -0.1582
  992YOPC   C1B13045  10.394   9.656   7.135  0.0171  0.3290 -0.2420
  992YOPC   C2B13046  10.237   9.822   7.471 -0.0391  0.2233  0.2193
  992YOPC   D3B13047  10.136   9.660   7.846  0.1170  0.3938  0.0243
  992YOPC   C4B13048  10.187   9.630   8.279  0.1132 -0.1984 -0.1224
  993YOPC   NC313049  12.043  12.600   5.827  0.1578  0.1770  0.1893
  993YOPC   PO413050  12.041  12.975   5.993 -0.1671 -0.1105  0.1875
  993YOPC   GL113051  12.027  12.995   6.375 -0.1272  0.2180  0.0629
  993YOPC   GL213052  11.741  12.879   6.435  0.1325 -0.0444 -0.2382
  993YOPC   C1A13053  12.199  12.950   6.848 -0.0218  0.0974 -0.0445
  993YOPC   D2A13054  12.566  12.760   7.077  0.0102  0.1191 -0.0351
  993YOPC   C3A13055  12.713  12.917   7.388  0.0706  0.0007  0.1312
  993YOPC   C4A13056  12.795  13.150   7.708  0.1457 -0.0487  0.1705
  993YOPC   C1B13057  11.646  12.925   6.867 -0.1413  0.0882 -0.2786
  993YOPC   C2B13058  11.453  13.185   7.193 -0.0430  0.1308  0.4862
  993YOPC   D3B13059  11.373  13.127   7.602  0.2039 -0.2994 -0.1932
  993YOPC   C4B13060  11.103  13.339   7.876 -0.1630 -0.1900 -0.1208
  994YOPC   NC313061   5.053  16.891   6.262 -0.2462  0.0940 -0.3121
  994YOPC   PO413062   5.540  16.954   6.388 -0.1599 -0.0011 -0.1163
  994YOPC   GL113063   5.242  17.112   6.811 -0.0839  0.1804 -0.2619
  994YOPC   GL213064   4.942  16.940   6.825  0.2101 -0.1911 -0.0300
  994YOPC   C1A13065   5.207  16.985   7.292 -0.0646  0.0320 -0.1154
  994YOPC   D2A13066   5.095  17.074   7.660 -0.3949 -0.1109 -0.0754
  994YOPC   C3A13067   5.256  16.939   8.134  0.0078 -0.0364 -0.1469
  994YOPC   C4A13068   5.283  16.795   8.605 -0.2750 -0.1026 -0.1129
  994YOPC   C1B13069   4.666  16.849   7.122  0.1899 -0.4355  0.0365
  994YOPC   C2B13070   4.785  16.713   7.518  0.0183  0.1939  0.0201
  994YOPC   D3B13071   4.841  16.726   8.036 -0.1021 -0.4580 -0.2153
  994YOPC   C4B13072   4.730  17.069   8.387  0.0363  0.1500 -0.0913
  995YOPC   NC313073   8.244   9.976   6.462  0.0576 -0.4100  0.1361
  995YOPC   PO413074   8.238  10.366   6.276  0.3033 -0.0031  0.2624
  995YOPC   GL113075   8.084  10.439   6.670 -0.1889 -0.1357  0.0068
  995YOPC   GL213076   8.346  10.646   6.735 -0.0735  0.1675  0.0351
  995YOPC   C1A13077   8.143  10.391   7.088 -0.4248 -0.0914 -0.1378
  995YOPC   D2A13078   7.890  10.338   7.338 -0.3149  0.2717 -0.0467
  995YOPC   C3A13079   8.011  10.418   7.809  0.2557 -0.0458 -0.0524
  995YOPC   C4A13080   7.831  10.454   8.261  0.4581 -0.0793  0.0302
  995YOPC   C1B13081   8.497  10.773   7.133  0.2204 -0.3461 -0.1639
  995YOPC   C2B13082   8.668  10.932   7.429 -0.1396 -0.1298 -0.0608
  995YOPC   D3B13083   8.875  10.727   7.831  0.2181 -0.1875  0.1688
  995YOPC   C4B13084   9.023  10.405   8.156 -0.0889  0.0549  0.2298
  996YOPC   NC313085   0.529  16.398   6.618 -0.1260 -0.0974  0.0728
  996YOPC   PO413086   0.189  16.036   6.448  0.1332  0.0067 -0.3187
  996YOPC   GL113087   0.072  15.784   6.800 -0.1745  0.3929  0.0509
  996YOPC   GL213088  -0.181  15.575   6.852 -0.2739 -0.0904 -0.1187
  996YOPC   C1A13089   0.170  15.874   7.232  0.0074  0.0082 -0.0938
  996YOPC   D2A13090   0.353  15.735   7.625  0.1791 -0.2112  0.2703
  996YOPC   C3A13091   0.299  15.673   7.984  0.1147  0.0284  0.0090
  996YOPC   C4A13092   0.292  15.322   8.254  0.0631 -0.0783  0.2186
  996YOPC   C1B13093  -0.028  15.459   7.374  0.0148 -0.0622  0.1085
  996YOPC   C2B13094   0.083  15.229   7.682  0.0726  0.0676  0.2552
  996YOPC   D3B13095   0.435  15.243   7.812 -0.0226  0.2091  0.0129
  996YOPC   C4B13096   0.732  15.428   8.070  0.0882  0.2422 -0.1998
  997YOPC   NC313097   5.494  16.476   5.782  0.0067  0.2806  0.0963
  997YOPC   PO413098   5.388  16.509   6.163  0.2017  0.1141  0.1778
  997YOPC   GL113099   5.321  16.600   6.591 -0.0121  0.0619 -0.0564
  997YOPC   GL213100   5.630  16.563   6.705 -0.0216  0.0465 -0.0083
  997YOPC   C1A13101   5.176  16.546   7.078 -0.0811 -0.3241  0.2392
  997YOPC   D2A13102   5.071  16.356   7.438 -0.0347 -0.1729  0.1030
  997YOPC   C3A13103   5.135  16.499   7.762  0.1377  0.1604 -0.1898
  997YOPC   C4A13104   5.256  16.431   8.159 -0.1614  0.2679  0.1479
  997YOPC   C1B13105   5.649  16.712   7.098  0.1098  0.1049 -0.1661
  997YOPC   C2B13106   5.507  16.656   7.520  0.1085 -0.2744  0.0177
  997YOPC   D3B13107   5.647  16.593   7.914  0.1311 -0.1072  0.0009
  997YOPC   C4B13108   5.759  16.558   8.357 -0.0077 -0.2192  0.2335
  998YOPC   NC313109  10.025  13.353   5.992  0.0352 -0.0970  0.1839
  998YOPC   PO413110   9.569  13.533   5.982  0.1601  0.1086  0.0070
  998YOPC   GL113111   9.706  13.553   6.368  0.1702 -0.0970  0.4433
  998YOPC   GL213112   9.650  13.678   6.602 -0.1454 -0.0611  0.0495
  998YOPC   C1A13113  10.046  13.346   6.701  0.2010  0.0952  0.2025
  998YOPC   D2A13114  10.087  13.370   7.095 -0.1206  0.1018  0.3565
  998YOPC   C3A13115  10.456  13.413   7.230  0.2153  0.0012 -0.0668
  998YOPC   C4A13116  10.882  13.396   7.223 -0.0400  0.0139  0.0362
  998YOPC   C1B13117   9.847  13.750   6.935 -0.1274 -0.2809  0.1705
  998YOPC   C2B13118   9.899  13.872   7.310  0.0451 -0.3116  0.2283
  998YOPC   D3B13119   9.966  14.243   7.567 -0.0374 -0.0509  0.0101
  998YOPC   C4B13120   9.935  14.409   7.887  0.0690 -0.2168 -0.0952
  999YOPC   NC313121  12.726  16.538   5.831 -0.0155  0.0405 -0.0246
  999YOPC   PO413122  12.231  16.624   5.690  0.0551  0.1507  0.0366
  999YOPC   GL113123  12.306  16.833   6.119 -0.1483 -0.5179 -0.0590
  999YOPC   GL213124  12.117  17.150   6.083 -0.0287  0.5031  0.0930
  999YOPC   C1A13125  12.359  16.709   6.604 -0.0350 -0.0987 -0.1203
  999YOPC   D2A13126  12.435  16.623   7.005  0.1221 -0.2963  0.2603
  999YOPC   C3A13127  12.299  16.318   7.289  0.3232 -0.1427  0.1249
  999YOPC   C4A13128  12.099  16.266   7.621 -0.2196 -0.1670 -0.0354
  999YOPC   C1B13129  11.983  17.040   6.507 -0.3108  0.1543  0.1223
  999YOPC   C2B13130  11.826  16.688   6.653  0.0353 -0.0866 -0.0493
  999YOPC   D3B13131  11.857  16.775   7.115  0.1694 -0.0257  0.2946
  999YOPC   C4B13132  12.217  16.773   7.470  0.0279  0.2553 -0.0482
 1000YOPC   NC313133   9.113  11.105   6.566  0.0287  0.2576  0.2976
 1000YOPC   PO413134   8.662  10.948   6.428 -0.2909 -0.3294 -0.2900
 1000YOPC   GL113135   8.666  11.070   6.843 -0.1153 -0.1301  0.2260
 1000YOPC   GL213136   8.349  11.155   6.759  0.0611 -0.1073  0.0399
 1000YOPC   C1A13137   8.924  11.270   7.185  0.1684 -0.0747 -0.1692
 1000YOPC   D2A13138   8.880  11.459   7.593  0.0969 -0.1097 -0.1830
 1000YOPC   C3A13139   9.036  11.359   7.983 -0.2164  0.1426 -0.0028
 1000YOPC   C4A13140   9.204  11.019   8.330 -0.1417  0.0346 -0.0503
 1000YOPC   C1B13141   8.347  11.271   7.238 -0.0416  0.0311 -0.0508
 1000YOPC   C2B13142   8.369  11.274   7.657  0.1728  0.0983 -0.0154
 1000YOPC   D3B13143   7.996  11.329   7.830  0.0938  0.1962 -0.0046
 1000YOPC   C4B13144   7.541  11.395   7.961  0.2876 -0.0118 -0.1182
 1001YOPC   NC313145  14.313   1.003   6.279  0.1122  0.0067 -0.1255
 1001YOPC   PO413146  13.880   0.862   6.067  0.0994  0.1007 -0.4287
 1001YOPC   GL113147  13.877   0.818   6.494 -0.1733 -0.1237 -0.0690
 1001YOPC   GL213148  13.917   1.093   6.654  0.1097 -0.0033 -0.1127
 1001YOPC   C1A13149  13.469   0.802   6.837 -0.0655 -0.1388  0.1011
 1001YOPC   D2A13150  13.507   0.454   7.193  0.1663 -0.0136 -0.2378
 1001YOPC   C3A13151  13.309   0.332   7.458  0.0456  0.1872  0.3778
 1001YOPC   C4A13152  13.473  -0.002   7.687  0.2111 -0.0745  0.1980
 1001YOPC   C1B13153  13.893   1.145   7.091 -0.0719 -0.0861 -0.1613
 1001YOPC   C2B13154  14.086   1.042   7.475  0.1495 -0.0031  0.0332
 1001YOPC   D3B13155  14.273   1.344   7.846 -0.2164 -0.2031  0.2611
 1001YOPC   C4B13156  14.686   1.361   8.116  0.0142 -0.4728 -0.0160
 1002YOPC   NC313157   8.016   8.318   5.783  0.1238 -0.2094  0.1463
 1002YOPC   PO413158   8.325   8.510   5.944  0.0647 -0.1148  0.0202
 1002YOPC   GL113159   8.459   8.487   6.362  0.1774 -0.0701 -0.0096
 1002YOPC   GL213160   8.687   8.667   6.440  0.0884 -0.1308 -0.1083
 1002YOPC   C1A13161   8.776   8.144   6.538  0.0412 -0.0087 -0.3651
 1002YOPC   D2A13162   9.041   8.017   6.860 -0.0103 -0.1075 -0.0001
 1002YOPC   C3A13163   8.900   7.893   7.315 -0.0362 -0.0111 -0.0662
 1002YOPC   C4A13164   8.593   7.900   7.616 -0.1441 -0.2359  0.3655
 1002YOPC   C1B13165   8.740   8.539   6.816  0.0050  0.4045  0.1700
 1002YOPC   C2B13166   8.747   8.339   7.134 -0.1055 -0.0270 -0.1334
 1002YOPC   D3B13167   8.686   8.372   7.564  0.0095  0.1327  0.1795
 1002YOPC   C4B13168   8.499   8.250   7.951  0.1285  0.0134 -0.1073
 1003YOPC   NC313169  16.249   2.138   4.922 -0.1782  0.2491 -0.1275
 1003YOPC   PO413170  16.504   2.014   5.347 -0.1976  0.2708 -0.1952
 1003YOPC   GL113171  16.574   1.919   5.780 -0.1271 -0.1620  0.1151
 1003YOPC   GL213172  16.825   2.177   5.834  0.5913  0.1529 -0.1694
 1003YOPC   C1A13173  16.422   2.163   6.184  0.0340  0.2031  0.0660
 1003YOPC   D2A13174  16.548   2.520   6.512 -0.0158  0.1109 -0.0842
 1003YOPC   C3A13175  16.453   2.644   6.943  0.0295  0.1086 -0.0851
 1003YOPC   C4A13176  16.363   2.782   7.353 -0.0639 -0.1458 -0.0906
 1003YOPC   C1B13177  16.877   2.513   6.061  0.1316  0.0222  0.0805
 1003YOPC   C2B13178  17.079   2.741   6.367  0.1204 -0.0855  0.2199
 1003YOPC   D3B13179  16.885   2.759   6.762  0.0367 -0.0014 -0.0830
 1003YOPC   C4B13180  17.011   2.714   7.191 -0.3532  0.0415 -0.1208
 1004YOPC   NC313181  13.500   1.149   6.323  0.0037 -0.1329 -0.0823
 1004YOPC   PO413182  13.894   1.331   6.193  0.1095 -0.3446  0.1944
 1004YOPC   GL113183  13.978   1.601   6.499  0.0577 -0.2424  0.0600
 1004YOPC   GL213184  14.291   1.430   6.586  0.0907  0.0428  0.3585
 1004YOPC   C1A13185  13.919   1.605   6.854  0.0206  0.0986 -0.1159
 1004YOPC   D2A13186  14.062   1.567   7.351  0.1177 -0.0408 -0.0556
 1004YOPC   C3A13187  14.192   1.806   7.609  0.2223  0.0710  0.1789
 1004YOPC   C4A13188  14.387   1.805   7.922  0.1634 -0.0565  0.3854
 1004YOPC   C1B13189  14.540   1.664   6.917 -0.2191 -0.1201 -0.1650
 1004YOPC   C2B13190  14.669   1.764   7.372 -0.0290 -0.0850  0.1738
 1004YOPC   D3B13191  14.833   1.616   7.697  0.1164 -0.2767 -0.2067
 1004YOPC   C4B13192  14.845   1.845   8.102  0.0191 -0.1352 -0.2752
 1005YOPC   NC313193   1.504  11.320   6.177  0.5173 -0.0233 -0.1469
 1005YOPC   PO413194   1.791  11.679   6.067 -0.1034 -0.1286 -0.1576
 1005YOPC   GL113195   1.978  11.496   6.376  0.1101 -0.0779  0.0460
 1005YOPC   GL213196   1.815  11.212   6.537 -0.0326 -0.0478  0.2678
 1005YOPC   C1A13197   1.990  11.711   6.866 -0.0321  0.0568  0.2737
 1005YOPC   D2A13198   2.072  12.101   6.990 -0.1493  0.0376  0.2703
 1005YOPC   C3A13199   2.428  12.119   6.843 -0.2645  0.2230 -0.1710
 1005YOPC   C4A13200   2.877  12.112   6.902  0.3692 -0.1200  0.1913
 1005YOPC   C1B13201   1.812  10.821   6.698  0.0375 -0.1083 -0.1554
 1005YOPC   C2B13202   1.754  10.335   6.836 -0.1184  0.1928 -0.0575
 1005YOPC   D3B13203   1.843  10.321   7.313 -0.0677  0.1385 -0.4218
 1005YOPC   C4B13204   2.036  10.241   7.762  0.1586  0.0611  0.1315
 1006YOPC   NC313205  15.587  15.860   5.902  0.1133  0.1322 -0.0366
 1006YOPC   PO413206  15.779  15.535   6.218 -0.0875 -0.1066 -0.0306
 1006YOPC   GL113207  15.769  15.424   6.600 -0.0928 -0.1018 -0.0895
 1006YOPC   GL213208  15.626  15.632   6.769 -0.0270  0.2162  0.0574
 1006YOPC   C1A13209  15.756  15.125   6.912  0.3372  0.0661 -0.0192
 1006YOPC   D2A13210  15.645  15.120   7.284 -0.1500  0.3142 -0.1098
 1006YOPC   C3A13211  15.755  15.246   7.759 -0.0295 -0.1477  0.3279
 1006YOPC   C4A13212  15.808  15.306   8.194  0.0205  0.2008 -0.1615
 1006YOPC   C1B13213  15.571  15.785   7.234  0.1071 -0.3262  0.1049
 1006YOPC   C2B13214  15.684  15.857   7.598 -0.1910 -0.2717 -0.0922
 1006YOPC   D3B13215  15.509  15.629   7.871  0.2174  0.0739 -0.1199
 1006YOPC   C4B13216  15.593  15.725   8.300 -0.1512 -0.1840 -0.0760
 1007YOPC   NC313217   2.132   0.690   6.238 -0.2149 -0.0652 -0.1080
 1007YOPC   PO413218   2.157   0.986   6.481  0.0660 -0.1007 -0.0597
 1007YOPC   GL113219   2.510   0.847   6.809  0.1653 -0.1089  0.2772
 1007YOPC   GL213220   2.290   0.919   7.073 -0.2466  0.4527 -0.0580
 1007YOPC   C1A13221   2.798   0.621   6.860  0.2908 -0.1076  0.0970
 1007YOPC   D2A13222   2.913   0.384   7.107  0.0869  0.1484 -0.0080
 1007YOPC   C3A13223   3.013   0.519   7.471  0.3668 -0.2769 -0.0490
 1007YOPC   C4A13224   3.098   0.464   7.888  0.3702  0.1649 -0.1980
 1007YOPC   C1B13225   2.606   0.740   7.368 -0.0303 -0.2008  0.0599
 1007YOPC   C2B13226   2.702   0.806   7.843 -0.2029  0.2759 -0.0090
 1007YOPC   D3B13227   2.614   0.605   8.253  0.0334 -0.0008 -0.0480
 1007YOPC   C4B13228   2.613   0.319   8.574  0.1256 -0.5641 -0.0364
 1008YOPC   NC313229   4.417  12.838   6.084 -0.1123 -0.0005  0.4180
 1008YOPC   PO413230   4.841  12.686   6.221  0.1328 -0.0723  0.3250
 1008YOPC   GL113231   4.961  12.460   6.622 -0.1758  0.1977  0.0050
 1008YOPC   GL213232   4.728  12.144   6.636  0.1572 -0.0079 -0.1052
 1008YOPC   C1A13233   5.015  12.299   7.084  0.0322 -0.2141  0.2295
 1008YOPC   D2A13234   4.865  12.123   7.526  0.0587  0.0617 -0.1674
 1008YOPC   C3A13235   5.085  12.156   7.996  0.0115 -0.2121  0.0337
 1008YOPC   C4A13236   5.494  12.256   8.071 -0.2260 -0.0697  0.4033
 1008YOPC   C1B13237   5.137  11.977   6.638 -0.1684 -0.0970 -0.2163
 1008YOPC   C2B13238   5.543  11.874   6.930 -0.2465  0.2014 -0.0552
 1008YOPC   D3B13239   5.400  11.692   7.336  0.3659 -0.4209  0.2618
 1008YOPC   C4B13240   5.474  11.798   7.793 -0.2185 -0.0378  0.0987
 1009YOPC   NC313241   9.663  17.307   5.652 -0.1033  0.0197 -0.0276
 1009YOPC   PO413242   9.699  16.874   5.716 -0.1768 -0.1261  0.2333
 1009YOPC   GL113243   9.463  17.007   6.069 -0.1962 -0.0634 -0.1062
 1009YOPC   GL213244   9.144  17.092   5.917  0.0943  0.1888 -0.1175
 1009YOPC   C1A13245   9.430  17.253   6.391 -0.2184  0.0387 -0.1538
 1009YOPC   D2A13246   9.495  17.342   6.757  0.2862 -0.1703 -0.3741
 1009YOPC   C3A13247   9.250  17.325   7.140 -0.0354 -0.0435  0.0653
 1009YOPC   C4A13248   9.276  17.103   7.661  0.2358 -0.2687 -0.0868
 1009YOPC   C1B13249   8.967  16.841   6.209  0.0212  0.0473  0.1321
 1009YOPC   C2B13250   9.242  16.822   6.474 -0.0569 -0.1118  0.0866
 1009YOPC   D3B13251   9.216  16.830   6.924 -0.1186  0.0055  0.0890
 1009YOPC   C4B13252   9.222  16.741   7.313  0.2037  0.1484  0.0322
 1010YOPC   NC313253  14.349   0.084   6.083  0.3274  0.1921  0.0682
 1010YOPC   PO413254  14.702   0.029   6.294 -0.2865  0.2079 -0.2160
 1010YOPC   GL113255  14.640  -0.190   6.786 -0.1901  0.0239 -0.1427
 1010YOPC   GL213256  14.495  -0.477   6.820 -0.0398 -0.0627  0.0058
 1010YOPC   C1A13257  14.240  -0.325   7.161  0.0509  0.2440  0.1538
 1010YOPC   D2A13258  13.702  -0.363   7.305  0.1260 -0.0412  0.1524
 1010YOPC   C3A13259  13.584  -0.511   7.733  0.2333 -0.1542 -0.0925
 1010YOPC   C4A13260  13.211  -0.851   7.776 -0.5811 -0.3226 -0.0762
 1010YOPC   C1B13261  14.653  -0.702   7.169  0.0169 -0.2878  0.0436
 1010YOPC   C2B13262  14.717  -0.912   7.598  0.0857  0.0861 -0.3553
 1010YOPC   D3B13263  14.542  -1.025   7.993  0.1300  0.0006 -0.0815
 1010YOPC   C4B13264  14.292  -1.215   8.333 -0.0148 -0.1210 -0.0690
 1011YOPC   NC313265  10.260  17.472   5.549 -0.2008  0.0740 -0.0824
 1011YOPC   PO413266  10.690  17.603   5.621  0.0297 -0.3336 -0.1572
 1011YOPC   GL113267  10.431  17.631   5.997  0.0182  0.2290  0.2179
 1011YOPC   GL213268  10.590  17.778   6.324 -0.1254  0.1635  0.0380
 1011YOPC   C1A13269  10.209  17.481   6.405 -0.3107  0.1998 -0.0431
 1011YOPC   D2A13270  10.022  17.394   6.722  0.0103  0.0214  0.0072
 1011YOPC   C3A13271  10.043  17.413   7.197  0.1408 -0.0610  0.3366
 1011YOPC   C4A13272  10.047  17.522   7.557  0.0550  0.4317 -0.0015
 1011YOPC   C1B13273  10.621  17.869   6.793 -0.1457 -0.1905 -0.2800
 1011YOPC   C2B13274  10.410  17.738   7.185  0.0036  0.2106  0.1100
 1011YOPC   D3B13275  10.392  17.929   7.577  0.0661  0.0455 -0.0337
 1011YOPC   C4B13276  10.628  18.111   7.873 -0.1240  0.1538 -0.1989
 1012YOPC   NC313277   2.369   7.530   5.909 -0.0395 -0.1095  0.0012
 1012YOPC   PO413278   2.742   7.580   5.725  0.0243  0.1285 -0.1669
 1012YOPC   GL113279   2.775   7.512   6.241 -0.1561  0.2982 -0.2196
 1012YOPC   GL213280   2.788   7.175   6.445  0.0963  0.0049  0.0234
 1012YOPC   C1A13281   2.652   7.632   6.625  0.0674  0.0399 -0.0056
 1012YOPC   D2A13282   2.921   7.826   6.857  0.0554 -0.0585  0.1245
 1012YOPC   C3A13283   2.852   7.776   7.282 -0.0378  0.0985 -0.2812
 1012YOPC   C4A13284   2.864   7.703   7.758  0.0469  0.1323  0.1125
 1012YOPC   C1B13285   3.124   6.841   6.820  0.0287  0.2501  0.1662
 1012YOPC   C2B13286   3.431   6.739   7.210  0.0800  0.0589  0.0979
 1012YOPC   D3B13287   3.451   6.821   7.670 -0.1884  0.0043  0.1503
 1012YOPC   C4B13288   3.376   6.621   8.133  0.0119  0.1889 -0.2618
 1013YOPC   NC313289  14.812   7.380   6.229 -0.0167 -0.0336 -0.1408
 1013YOPC   PO413290  15.133   7.703   6.239  0.0445 -0.2255  0.1264
 1013YOPC   GL113291  15.065   7.720   6.669 -0.2145  0.0864  0.0040
 1013YOPC   GL213292  14.853   7.487   6.735  0.1024 -0.0997  0.0907
 1013YOPC   C1A13293  15.037   7.812   7.140  0.0262 -0.2796  0.0482
 1013YOPC   D2A13294  15.073   7.965   7.530 -0.0266 -0.2038  0.1003
 1013YOPC   C3A13295  15.040   8.107   7.945 -0.0788 -0.2676  0.0481
 1013YOPC   C4A13296  14.860   7.991   8.289  0.2622  0.2236  0.1697
 1013YOPC   C1B13297  15.020   7.338   7.142 -0.0503 -0.2411 -0.1499
 1013YOPC   C2B13298  15.103   7.221   7.619 -0.1414 -0.0948 -0.1118
 1013YOPC   D3B13299  15.466   7.153   7.812  0.1972  0.1765 -0.1481
 1013YOPC   C4B13300  15.759   6.907   8.029 -0.1518 -0.0462  0.1766
 1014YOPC   NC313301  14.056   2.430   6.312  0.0012 -0.3528 -0.0555
 1014YOPC   PO413302  13.837   2.076   6.187 -0.0045  0.2076  0.3327
 1014YOPC   GL113303  13.623   2.239   6.554  0.5087 -0.1254 -0.0791
 1014YOPC   GL213304  13.349   2.211   6.682 -0.4031  0.0974 -0.0591
 1014YOPC   C1A13305  13.713   2.436   7.009  0.1647 -0.0269 -0.3190
 1014YOPC   D2A13306  13.565   2.645   7.410 -0.0028  0.2157  0.2701
 1014YOPC   C3A13307  13.165   2.680   7.673 -0.0972 -0.1330  0.2114
 1014YOPC   C4A13308  12.895   2.850   8.089  0.1199 -0.1368 -0.3759
 1014YOPC   C1B13309  13.587   1.969   6.970  0.0184  0.3100  0.0767
 1014YOPC   C2B13310  13.763   1.965   7.345  0.2196  0.0328 -0.1453
 1014YOPC   D3B13311  14.007   2.317   7.644  0.4245  0.2545  0.2666
 1014YOPC   C4B13312  14.042   2.634   8.047 -0.5618  0.0348  0.2140
 1015YOPC   NC313313   9.161   8.741   6.278  0.0677  0.2513 -0.2562
 1015YOPC   PO413314   9.527   8.375   6.242  0.0305  0.3032  0.1031
 1015YOPC   GL113315   9.645   8.179   6.457  0.1844  0.1237 -0.0778
 1015YOPC   GL213316   9.870   8.361   6.646  0.2621 -0.1022 -0.0039
 1015YOPC   C1A13317   9.498   7.932   6.714  0.0315  0.0106 -0.0244
 1015YOPC   D2A13318   9.451   7.772   7.202 -0.3829  0.0087 -0.1355
 1015YOPC   C3A13319   9.327   7.677   7.596 -0.2168  0.0116  0.2777
 1015YOPC   C4A13320   9.052   7.456   7.744 -0.0878 -0.3922  0.0752
 1015YOPC   C1B13321   9.750   8.238   7.075 -0.0870  0.4228  0.1902
 1015YOPC   C2B13322   9.860   8.017   7.320  0.1445 -0.2351 -0.1946
 1015YOPC   D3B13323   9.711   8.137   7.746 -0.1434 -0.3526  0.2930
 1015YOPC   C4B13324   9.419   7.884   8.076  0.0271  0.0433  0.3551
 1016YOPC   NC313325   3.639   4.790   5.317  0.0732  0.0612 -0.0033
 1016YOPC   PO413326   3.533   4.742   5.788  0.0559 -0.0208 -0.3593
 1016YOPC   GL113327   3.606   4.736   6.336  0.0688 -0.1210 -0.0266
 1016YOPC   GL213328   3.312   4.654   6.417  0.2839 -0.1765  0.3991
 1016YOPC   C1A13329   3.761   4.473   6.598  0.0376  0.1475  0.0963
 1016YOPC   D2A13330   4.235   4.232   6.622 -0.2904  0.0893 -0.3559
 1016YOPC   C3A13331   4.484   4.259   7.008  0.0123 -0.2355  0.0859
 1016YOPC   C4A13332   4.359   4.165   7.396 -0.0903  0.1451 -0.2283
 1016YOPC   C1B13333   3.122   4.743   6.849  0.1141 -0.1073 -0.2059
 1016YOPC   C2B13334   2.740   4.898   7.103  0.0468 -0.0402  0.2166
 1016YOPC   D3B13335   2.879   5.155   7.460  0.1910  0.3479 -0.1014
 1016YOPC   C4B13336   2.907   5.610   7.522 -0.3650  0.0070  0.1432
 1017YOPC   NC313337   6.725   9.247   6.039 -0.0701  0.0895 -0.0664
 1017YOPC   PO413338   7.172   9.202   6.219 -0.0787 -0.0906 -0.0187
 1017YOPC   GL113339   7.135   9.346   6.622  0.4217  0.0464  0.0758
 1017YOPC   GL213340   7.312   9.575   6.621  0.0437 -0.0675  0.0264
 1017YOPC   C1A13341   6.927   9.251   6.931  0.0775  0.0670  0.0606
 1017YOPC   D2A13342   6.774   9.139   7.375  0.0145 -0.0626  0.1144
 1017YOPC   C3A13343   7.021   9.276   7.797  0.2235 -0.1998  0.4456
 1017YOPC   C4A13344   7.308   9.244   8.052 -0.1820 -0.1792 -0.0269
 1017YOPC   C1B13345   7.335   9.523   7.088  0.0448 -0.3054 -0.0406
 1017YOPC   C2B13346   7.318   9.317   7.398 -0.0514  0.2745 -0.0225
 1017YOPC   D3B13347   7.528   9.018   7.651 -0.1245  0.2954 -0.2892
 1017YOPC   C4B13348   7.849   9.024   7.908 -0.1255 -0.1292 -0.1197
 1018YOPC   NC313349   4.710   9.273   5.933 -0.0626 -0.2333 -0.3442
 1018YOPC   PO413350   5.008   8.946   6.045 -0.0117 -0.0558  0.1600
 1018YOPC   GL113351   4.809   9.082   6.451  0.0360  0.1906  0.0914
 1018YOPC   GL213352   4.815   8.816   6.600  0.2867 -0.1587 -0.0583
 1018YOPC   C1A13353   4.692   9.154   6.936 -0.2619 -0.0926 -0.1733
 1018YOPC   D2A13354   4.691   9.170   7.449 -0.0124 -0.0783 -0.0272
 1018YOPC   C3A13355   4.776   9.446   7.727  0.0205  0.0501  0.1294
 1018YOPC   C4A13356   5.129   9.475   8.074  0.0754  0.1005  0.0190
 1018YOPC   C1B13357   4.798   8.746   7.179  0.0917 -0.1101  0.1027
 1018YOPC   C2B13358   4.913   8.571   7.520  0.1852  0.0263  0.1904
 1018YOPC   D3B13359   4.549   8.501   7.810 -0.1703  0.1416  0.1325
 1018YOPC   C4B13360   4.466   8.307   8.156 -0.0376 -0.0696 -0.1225
 1019YOPC   NC313361   8.120   3.785   5.140 -0.0154  0.0813  0.1449
 1019YOPC   PO413362   7.859   3.984   5.513  0.3930 -0.0250 -0.1319
 1019YOPC   GL113363   8.021   3.869   5.918 -0.0728 -0.2454 -0.1413
 1019YOPC   GL213364   7.984   3.561   6.088  0.0690  0.0663 -0.0218
 1019YOPC   C1A13365   7.825   3.889   6.397  0.1297 -0.2318 -0.3642
 1019YOPC   D2A13366   7.619   4.132   6.826  0.1035  0.2479  0.1568
 1019YOPC   C3A13367   7.521   3.837   7.122  0.0618  0.1069  0.1188
 1019YOPC   C4A13368   7.633   3.557   7.488 -0.2012 -0.1150  0.0472
 1019YOPC   C1B13369   7.469   3.577   6.095 -0.3651  0.2654  0.0535
 1019YOPC   C2B13370   7.046   3.676   6.105  0.1597 -0.2598  0.0075
 1019YOPC   D3B13371   6.772   3.283   6.286 -0.0377 -0.1631  0.1751
 1019YOPC   C4B13372   6.424   3.249   6.602  0.1833  0.0521  0.0921
 1020YOPC   NC313373   3.395   5.829   5.743  0.1517 -0.2594 -0.2360
 1020YOPC   PO413374   3.434   5.901   6.124 -0.1640 -0.0328  0.1841
 1020YOPC   GL113375   3.231   6.122   6.433  0.0748  0.0036 -0.0257
 1020YOPC   GL213376   3.054   6.448   6.396 -0.0842 -0.1646 -0.1970
 1020YOPC   C1A13377   3.249   6.245   6.853  0.0019  0.3091  0.0324
 1020YOPC   D2A13378   3.243   6.270   7.338  0.0156 -0.2515  0.1765
 1020YOPC   C3A13379   2.960   6.132   7.671 -0.0258  0.0886  0.0800
 1020YOPC   C4A13380   2.657   5.811   8.019 -0.2326 -0.0410 -0.0265
 1020YOPC   C1B13381   2.655   6.623   6.530 -0.1938  0.0253  0.0394
 1020YOPC   C2B13382   2.350   6.479   6.886  0.2610  0.2280  0.1086
 1020YOPC   D3B13383   2.207   6.436   7.332  0.0409 -0.1044 -0.2134
 1020YOPC   C4B13384   1.958   6.592   7.600  0.1311 -0.0019 -0.1368
 1021YOPC   NC313385  13.903  16.250   5.534 -0.1408  0.2816  0.2520
 1021YOPC   PO413386  13.781  16.321   6.042  0.1167  0.1267 -0.0203
 1021YOPC   GL113387  13.425  16.379   6.236 -0.0692  0.0109 -0.0240
 1021YOPC   GL213388  13.174  16.372   6.362 -0.0138 -0.0095  0.1903
 1021YOPC   C1A13389  13.334  16.853   6.393 -0.0890  0.0912 -0.1461
 1021YOPC   D2A13390  13.478  17.048   6.790 -0.2548  0.0396  0.0183
 1021YOPC   C3A13391  13.763  16.863   6.997 -0.0140  0.0622  0.1553
 1021YOPC   C4A13392  14.074  16.515   7.149  0.2528  0.0304  0.0796
 1021YOPC   C1B13393  13.310  16.424   6.755 -0.1399 -0.0729  0.1302
 1021YOPC   C2B13394  13.437  16.503   7.197  0.2725 -0.1002 -0.1035
 1021YOPC   D3B13395  13.161  16.554   7.643  0.2310  0.0120 -0.0304
 1021YOPC   C4B13396  12.990  16.652   8.022 -0.2586  0.1432 -0.0159
 1022YOPC   NC313397  11.265   7.926   6.005  0.2185 -0.0940 -0.1325
 1022YOPC   PO413398  11.527   8.252   6.121 -0.0494  0.0080  0.1156
 1022YOPC   GL113399  11.668   8.229   6.500 -0.1845 -0.1231  0.1753
 1022YOPC   GL213400  11.799   8.498   6.627  0.2592 -0.0894  0.1285
 1022YOPC   C1A13401  11.671   8.053   6.920 -0.0716 -0.1344  0.0448
 1022YOPC   D2A13402  11.790   8.145   7.371 -0.4821 -0.1244 -0.0400
 1022YOPC   C3A13403  11.563   8.015   7.684 -0.2617 -0.0978 -0.1559
 1022YOPC   C4A13404  11.558   7.961   8.048  0.2375  0.1482 -0.0392
 1022YOPC   C1B13405  11.595   8.569   6.951  0.1076  0.0287 -0.1841
 1022YOPC   C2B13406  11.602   8.592   7.329 -0.1426 -0.0212 -0.2125
 1022YOPC   D3B13407  11.601   8.848   7.775  0.3468  0.1823 -0.2170
 1022YOPC   C4B13408  11.365   8.863   8.123  0.0126  0.0958  0.0767
 1023YOPC   NC313409   4.782   8.471   6.021 -0.0973  0.1873  0.1107
 1023YOPC   PO413410   4.516   8.479   6.362 -0.2887  0.0135 -0.0115
 1023YOPC   GL113411   4.214   8.357   6.711  0.1601 -0.0033 -0.1890
 1023YOPC   GL213412   4.211   8.045   6.706  0.0057 -0.0720 -0.2798
 1023YOPC   C1A13413   3.746   8.513   6.769 -0.0067 -0.0064 -0.2215
 1023YOPC   D2A13414   3.346   8.617   7.072 -0.1163 -0.3046 -0.0041
 1023YOPC   C3A13415   3.306   8.352   7.432  0.2238 -0.3074  0.2507
 1023YOPC   C4A13416   3.688   8.101   7.517 -0.1531 -0.2086  0.3218
 1023YOPC   C1B13417   4.335   7.884   7.109 -0.2051 -0.2077 -0.2631
 1023YOPC   C2B13418   4.292   7.717   7.503 -0.0203 -0.0194 -0.2993
 1023YOPC   D3B13419   4.218   7.305   7.641 -0.1597 -0.0893 -0.0827
 1023YOPC   C4B13420   3.996   7.321   7.999  0.2215  0.0451 -0.1593
 1024YOPC   NC313421   0.103   6.493   5.507  0.2620  0.1363  0.0169
 1024YOPC   PO413422   0.446   6.500   5.799 -0.2984 -0.1895  0.1135
 1024YOPC   GL113423   0.623   6.609   6.210  0.1863 -0.0405  0.0831
 1024YOPC   GL213424   0.401   6.376   6.373  0.0002  0.0547 -0.2061
 1024YOPC   C1A13425   0.395   6.829   6.597  0.3251 -0.1565 -0.2038
 1024YOPC   D2A13426   0.172   7.125   6.825 -0.1372 -0.3817 -0.1158
 1024YOPC   C3A13427   0.494   7.306   7.101 -0.1644  0.0373  0.2623
 1024YOPC   C4A13428   0.492   7.262   7.493  0.2536  0.1273 -0.0213
 1024YOPC   C1B13429   0.218   6.348   6.784  0.0622  0.0353 -0.1813
 1024YOPC   C2B13430   0.010   6.471   7.112 -0.1207  0.0494  0.1310
 1024YOPC   D3B13431   0.267   6.294   7.514 -0.0312 -0.0378 -0.4115
 1024YOPC   C4B13432   0.404   6.077   7.815  0.1900 -0.2585 -0.1827
 1025YOPC   NC313433  16.339  11.596   6.159 -0.1584 -0.3535  0.2360
 1025YOPC   PO413434  16.239  12.047   6.348  0.2667 -0.0563 -0.3689
 1025YOPC   GL113435  16.132  11.928   6.775  0.1545  0.4775  0.0117
 1025YOPC   GL213436  15.679  11.866   6.838  0.1162 -0.0475 -0.3925
 1025YOPC   C1A13437  16.214  11.800   7.149  0.1447 -0.1650  0.1626
 1025YOPC   D2A13438  16.237  11.994   7.564 -0.0060  0.2392  0.1156
 1025YOPC   C3A13439  16.374  11.647   7.893  0.1328  0.1026 -0.2867
 1025YOPC   C4A13440  16.255  11.481   8.288  0.0010 -0.1350  0.0652
 1025YOPC   C1B13441  15.727  11.761   7.210  0.1459  0.0406  0.1485
 1025YOPC   C2B13442  15.986  11.583   7.575  0.0776  0.1461  0.2939
 1025YOPC   D3B13443  15.807  11.393   7.975  0.0805 -0.0242  0.1881
 1025YOPC   C4B13444  15.422  11.310   8.187 -0.3322  0.2715 -0.1793
 1026YOPC   NC313445   5.497  14.590   6.240  0.3765  0.1863  0.0314
 1026YOPC   PO413446   5.671  14.266   6.209 -0.2718  0.0278 -0.1247
 1026YOPC   GL113447   5.958  14.037   6.586  0.1201  0.1332  0.1389
 1026YOPC   GL213448   5.917  13.798   6.523  0.1498 -0.2076 -0.2030
 1026YOPC   C1A13449   5.988  14.154   7.065 -0.1824 -0.0618 -0.0660
 1026YOPC   D2A13450   5.930  14.049   7.444 -0.0648 -0.1587 -0.1299
 1026YOPC   C3A13451   5.727  14.115   7.893 -0.0436  0.0203 -0.0917
 1026YOPC   C4A13452   5.890  14.179   8.336 -0.1848 -0.0985 -0.0572
 1026YOPC   C1B13453   5.784  13.607   6.997 -0.0511 -0.1838  0.3338
 1026YOPC   C2B13454   5.756  13.563   7.416  0.1931 -0.1216  0.1578
 1026YOPC   D3B13455   5.992  13.206   7.697 -0.1773 -0.1413  0.3609
 1026YOPC   C4B13456   6.039  12.934   8.103  0.0043  0.1050  0.1357
 1027YOPC   NC313457  16.850  13.635   6.396  0.0811 -0.1233 -0.1702
 1027YOPC   PO413458  16.383  13.518   6.466 -0.0053  0.1076 -0.3436
 1027YOPC   GL113459  16.646  13.320   6.848  0.0939 -0.0259  0.0309
 1027YOPC   GL213460  16.631  12.951   6.970 -0.1412 -0.0343 -0.1399
 1027YOPC   C1A13461  16.852  13.416   7.225 -0.0508  0.0757  0.0923
 1027YOPC   D2A13462  16.753  13.388   7.678 -0.0289  0.0613 -0.0334
 1027YOPC   C3A13463  16.813  13.231   8.103  0.1939  0.1019  0.1628
 1027YOPC   C4A13464  16.625  12.998   8.464  0.2471  0.1554  0.0635
 1027YOPC   C1B13465  16.402  12.891   7.328  0.3047 -0.1012 -0.3051
 1027YOPC   C2B13466  16.588  12.838   7.769 -0.1984 -0.2125 -0.1294
 1027YOPC   D3B13467  16.379  12.780   8.091  0.1178 -0.0745  0.0224
 1027YOPC   C4B13468  16.059  12.705   8.407 -0.2192  0.0074  0.0399
 1028YOPC   NC313469  14.375   5.549   6.074 -0.3250  0.0613 -0.1772
 1028YOPC   PO413470  14.512   5.957   6.104 -0.1534  0.0231 -0.0731
 1028YOPC   GL113471  14.362   5.964   6.544 -0.4534 -0.0736  0.3517
 1028YOPC   GL213472  14.321   5.627   6.573  0.1071  0.0628  0.4298
 1028YOPC   C1A13473  14.382   6.174   6.884  0.1920 -0.0638  0.0664
 1028YOPC   D2A13474  14.450   6.215   7.355 -0.1236  0.0775 -0.1361
 1028YOPC   C3A13475  14.587   5.825   7.543 -0.0157  0.0328  0.3321
 1028YOPC   C4A13476  14.220   5.554   7.810  0.2741  0.2560  0.0760
 1028YOPC   C1B13477  14.441   5.622   6.984 -0.2503  0.0196 -0.2097
 1028YOPC   C2B13478  14.436   5.329   7.353  0.1315 -0.1737  0.1988
 1028YOPC   D3B13479  14.665   5.227   7.662  0.0452  0.1711  0.0503
 1028YOPC   C4B13480  14.845   5.030   8.009 -0.0043  0.2367 -0.0898
 1029YOPC   NC313481  11.613   5.821   6.198 -0.0556  0.4288 -0.2462
 1029YOPC   PO413482  11.890   5.490   6.257  0.2272 -0.0920 -0.1520
 1029YOPC   GL113483  12.032   5.417   6.666 -0.0209  0.0811  0.0947
 1029YOPC   GL213484  11.804   5.559   6.755 -0.2000 -0.0511  0.3660
 1029YOPC   C1A13485  12.333   5.357   6.913 -0.1425  0.3471 -0.2718
 1029YOPC   D2A13486  12.136   5.422   7.269 -0.2714 -0.1285  0.0569
 1029YOPC   C3A13487  12.336   5.365   7.757  0.1321 -0.1887 -0.0545
 1029YOPC   C4A13488  12.745   5.403   7.927  0.3359  0.0296  0.0014
 1029YOPC   C1B13489  11.668   5.553   7.209 -0.3473 -0.3624 -0.4013
 1029YOPC   C2B13490  11.786   5.326   7.580  0.5280  0.0212 -0.0218
 1029YOPC   D3B13491  11.839   5.443   8.006 -0.1519  0.0981 -0.0173
 1029YOPC   C4B13492  11.848   5.670   8.351 -0.1468 -0.1385  0.0264
 1030YOPC   NC313493  15.109   5.408   5.984 -0.1160 -0.0087 -0.0450
 1030YOPC   PO413494  14.695   5.209   5.904 -0.1871  0.3129  0.2519
 1030YOPC   GL113495  14.784   5.339   6.337  0.1287 -0.0075  0.0455
 1030YOPC   GL213496  14.809   5.567   6.322  0.3182 -0.1360  0.1030
 1030YOPC   C1A13497  14.591   5.219   6.675 -0.1412 -0.1526 -0.3340
 1030YOPC   D2A13498  14.585   4.962   7.049  0.2282 -0.0009 -0.0022
 1030YOPC   C3A13499  14.394   4.850   7.428 -0.0784  0.0649 -0.2734
 1030YOPC   C4A13500  14.203   4.973   7.884  0.0067  0.0466  0.1443
 1030YOPC   C1B13501  14.878   5.681   6.706 -0.0290  0.3061  0.1148
 1030YOPC   C2B13502  14.866   5.884   7.117  0.0507  0.5304  0.0136
 1030YOPC   D3B13503  14.810   6.360   7.064 -0.1581 -0.1916 -0.0100
 1030YOPC   C4B13504  15.026   6.685   6.832  0.0216  0.1879  0.0043
 1031YOPC   NC313505   3.705  15.788   6.149 -0.0558  0.3277  0.1346
 1031YOPC   PO413506   4.194  15.819   6.278 -0.0904 -0.2596 -0.0459
 1031YOPC   GL113507   4.352  15.873   6.706  0.1234  0.4139  0.1678
 1031YOPC   GL213508   4.671  15.924   6.867  0.1906 -0.1837 -0.4636
 1031YOPC   C1A13509   4.158  15.881   7.096 -0.1415  0.2640 -0.2027
 1031YOPC   D2A13510   4.276  16.079   7.450  0.1812 -0.1050 -0.1013
 1031YOPC   C3A13511   4.378  15.830   7.797  0.0627 -0.1004  0.2328
 1031YOPC   C4A13512   4.525  15.736   8.217 -0.2682  0.0418 -0.0162
 1031YOPC   C1B13513   4.690  15.884   7.330  0.0128  0.2478  0.1591
 1031YOPC   C2B13514   4.680  15.558   7.589  0.0879 -0.1359 -0.2142
 1031YOPC   D3B13515   4.925  15.500   7.970  0.3971 -0.0969  0.0604
 1031YOPC   C4B13516   4.927  15.162   8.187 -0.0093  0.3808  0.1318
 1032YOPC   NC313517  11.584   4.431   5.427 -0.0487 -0.1490  0.0293
 1032YOPC   PO413518  11.920   4.601   5.689 -0.1093 -0.0929  0.0340
 1032YOPC   GL113519  12.076   4.624   6.177  0.1056  0.2201 -0.0690
 1032YOPC   GL213520  12.007   4.282   6.386 -0.2136  0.0774 -0.2078
 1032YOPC   C1A13521  12.078   4.688   6.617  0.0747  0.2157 -0.0867
 1032YOPC   D2A13522  12.365   4.732   7.023  0.1847 -0.3921 -0.2346
 1032YOPC   C3A13523  12.686   4.988   7.126 -0.1715 -0.1399 -0.1301
 1032YOPC   C4A13524  12.652   5.354   7.370 -0.1011  0.2853 -0.1865
 1032YOPC   C1B13525  12.201   4.143   6.759  0.1381  0.1198  0.3144
 1032YOPC   C2B13526  12.401   4.228   7.142 -0.1218  0.1701  0.2299
 1032YOPC   D3B13527  12.487   4.271   7.492  0.0055  0.1945 -0.0619
 1032YOPC   C4B13528  12.689   4.348   7.819 -0.0093 -0.0265  0.0991
 1033YOPC   NC313529  10.043   0.230   5.222 -0.0596 -0.3142 -0.1020
 1033YOPC   PO413530   9.881  -0.130   5.343 -0.3550 -0.1061 -0.3998
 1033YOPC   GL113531  10.023  -0.003   5.720 -0.0999  0.1959  0.2043
 1033YOPC   GL213532   9.935  -0.292   5.958  0.0818  0.1732  0.1587
 1033YOPC   C1A13533  10.062   0.079   6.162  0.1291 -0.0870  0.0605
 1033YOPC   D2A13534  10.232   0.106   6.516 -0.2282  0.0446 -0.0657
 1033YOPC   C3A13535  10.112   0.044   6.800  0.1870 -0.1007 -0.2326
 1033YOPC   C4A13536   9.984   0.085   7.301  0.0963 -0.0324  0.2206
 1033YOPC   C1B13537   9.705  -0.236   6.394  0.0461 -0.1374 -0.0790
 1033YOPC   C2B13538   9.577   0.011   6.844 -0.1573 -0.1367  0.0270
 1033YOPC   D3B13539   9.595  -0.257   7.282  0.1774  0.1531 -0.0560
 1033YOPC   C4B13540   9.199  -0.234   7.541  0.0586 -0.0610  0.1040
 1034YOPC   NC313541  10.141   2.525   5.147  0.2361 -0.0341 -0.0013
 1034YOPC   PO413542   9.772   2.386   5.412 -0.0095 -0.1023 -0.0421
 1034YOPC   GL113543   9.762   2.315   5.863 -0.3279 -0.1421  0.0471
 1034YOPC   GL213544  10.057   2.265   6.004 -0.1327 -0.0837  0.0487
 1034YOPC   C1A13545   9.578   2.268   6.266 -0.1095 -0.1498 -0.2148
 1034YOPC   D2A13546   9.606   2.238   6.665  0.1469 -0.3399 -0.0172
 1034YOPC   C3A13547   9.613   2.286   7.090 -0.1722 -0.1847 -0.1911
 1034YOPC   C4A13548   9.598   2.634   7.446  0.2448  0.1425  0.1775
 1034YOPC   C1B13549  10.065   2.482   6.434  0.0364 -0.0261 -0.0321
 1034YOPC   C2B13550  10.182   2.404   6.869 -0.1476  0.1448  0.0902
 1034YOPC   D3B13551  10.146   2.311   7.198  0.2182 -0.0784  0.0996
 1034YOPC   C4B13552  10.057   2.234   7.610  0.0680  0.2288  0.0702
 1035YOPC   NC313553   4.949  13.112   5.969 -0.3196 -0.2911 -0.0063
 1035YOPC   PO413554   4.498  13.363   6.086  0.1884  0.2708 -0.3722
 1035YOPC   GL113555   4.635  13.640   6.431  0.0899 -0.2904  0.2022
 1035YOPC   GL213556   4.779  13.835   6.338 -0.0963 -0.1995  0.1484
 1035YOPC   C1A13557   4.561  13.864   6.797  0.1151 -0.1964 -0.0257
 1035YOPC   D2A13558   4.557  14.056   7.184  0.1191 -0.0050 -0.2993
 1035YOPC   C3A13559   4.692  14.012   7.536  0.1521  0.2757 -0.4196
 1035YOPC   C4A13560   4.879  14.342   7.871  0.0604  0.0720  0.2906
 1035YOPC   C1B13561   5.003  14.037   6.704  0.1790  0.3216  0.1450
 1035YOPC   C2B13562   5.212  14.442   6.848 -0.0280  0.1360  0.2124
 1035YOPC   D3B13563   4.963  14.754   7.110  0.0077 -0.1173  0.1908
 1035YOPC   C4B13564   4.577  14.651   7.461  0.0716 -0.0661  0.1294
 1036YOPC   NC313565  10.673   7.513   6.265  0.1290  0.0636  0.2281
 1036YOPC   PO413566  10.937   7.670   6.290  0.0488 -0.2172 -0.0523
 1036YOPC   GL113567  11.005   7.594   6.711  0.0915  0.3118  0.0088
 1036YOPC   GL213568  11.100   7.777   6.852 -0.2806  0.0246 -0.3012
 1036YOPC   C1A13569  10.945   7.258   7.044 -0.0490  0.0855  0.1907
 1036YOPC   D2A13570  10.908   6.901   7.315 -0.1329 -0.2408 -0.0168
 1036YOPC   C3A13571  11.227   6.923   7.639  0.1238  0.1517  0.0707
 1036YOPC   C4A13572  11.105   6.886   8.015  0.1036 -0.3925  0.0280
 1036YOPC   C1B13573  11.014   7.707   7.277  0.1171 -0.1079  0.3994
 1036YOPC   C2B13574  10.673   7.781   7.739  0.0150 -0.1602  0.1754
 1036YOPC   D3B13575  10.489   7.676   8.055  0.0000 -0.1477  0.2444
 1036YOPC   C4B13576  10.352   8.014   8.305 -0.1707  0.0468 -0.0824
 1037YOPC   NC313577   6.891   3.944   5.657 -0.1442 -0.1737  0.0458
 1037YOPC   PO413578   6.464   3.961   5.844 -0.1442  0.0869 -0.0672
 1037YOPC   GL113579   6.431   4.333   6.093 -0.1892 -0.0205 -0.0837
 1037YOPC   GL213580   6.530   4.654   6.168  0.1763 -0.1296  0.1178
 1037YOPC   C1A13581   6.375   4.202   6.549 -0.0095  0.0980  0.1956
 1037YOPC   D2A13582   6.435   4.039   6.899  0.0971  0.3133  0.0446
 1037YOPC   C3A13583   6.453   4.109   7.285  0.0006 -0.0058  0.3456
 1037YOPC   C4A13584   6.605   4.137   7.723  0.2372  0.1822 -0.2606
 1037YOPC   C1B13585   6.586   4.762   6.580  0.2357  0.0584  0.1536
 1037YOPC   C2B13586   6.700   4.471   6.848 -0.1692  0.0178 -0.0521
 1037YOPC   D3B13587   6.808   4.592   7.333 -0.2815 -0.0917 -0.0971
 1037YOPC   C4B13588   6.696   4.655   7.712 -0.1357 -0.1283  0.1860
 1038YOPC   NC313589   1.222   3.496   5.956 -0.2887  0.1933 -0.0674
 1038YOPC   PO413590   1.112   3.039   5.779  0.0474  0.0759  0.0845
 1038YOPC   GL113591   1.094   3.016   6.253 -0.0838  0.0852 -0.1841
 1038YOPC   GL213592   1.280   2.711   6.375 -0.0290  0.0410  0.2522
 1038YOPC   C1A13593   1.381   3.144   6.570 -0.1312 -0.1543  0.0230
 1038YOPC   D2A13594   1.382   3.199   7.030 -0.0889  0.0139  0.0862
 1038YOPC   C3A13595   1.112   2.990   7.388 -0.1435 -0.3997  0.1857
 1038YOPC   C4A13596   1.050   2.974   7.794  0.0243 -0.0285  0.1272
 1038YOPC   C1B13597   1.136   2.750   6.800  0.3522  0.1812  0.0408
 1038YOPC   C2B13598   0.741   2.763   7.038 -0.1175  0.0425 -0.0364
 1038YOPC   D3B13599   0.728   3.137   7.166 -0.3562 -0.0201 -0.0631
 1038YOPC   C4B13600   0.702   3.360   7.542  0.1739 -0.2535  0.0471
 1039YOPC   NC313601   1.900   4.693   5.524  0.2174 -0.1102 -0.0395
 1039YOPC   PO413602   2.190   4.340   5.713  0.3725  0.1205 -0.2987
 1039YOPC   GL113603   1.967   4.220   6.204  0.1989  0.1280  0.2370
 1039YOPC   GL213604   2.212   4.078   6.415  0.0031  0.0103 -0.0978
 1039YOPC   C1A13605   1.798   4.249   6.587  0.2287 -0.1421  0.0976
 1039YOPC   D2A13606   1.731   4.144   7.048 -0.0523  0.0089  0.1245
 1039YOPC   C3A13607   1.747   4.462   7.349 -0.1600 -0.4347 -0.1919
 1039YOPC   C4A13608   1.622   4.671   7.677  0.2439  0.0796 -0.0809
 1039YOPC   C1B13609   2.352   4.037   6.855 -0.1756  0.0586 -0.0435
 1039YOPC   C2B13610   2.314   3.897   7.283  0.0051 -0.1697 -0.2332
 1039YOPC   D3B13611   2.496   3.982   7.708  0.2189 -0.0171 -0.2816
 1039YOPC   C4B13612   2.630   4.022   8.138  0.1836  0.0307 -0.2518
 1040YOPC   NC313613   7.374   7.393   5.937  0.0406 -0.3523  0.0807
 1040YOPC   PO413614   7.571   7.189   6.050  0.0704 -0.2212 -0.0733
 1040YOPC   GL113615   7.340   7.432   6.528  0.1757 -0.1724  0.0382
 1040YOPC   GL213616   7.089   7.509   6.316  0.3112  0.0389  0.1194
 1040YOPC   C1A13617   7.069   7.445   6.897 -0.1359 -0.1935  0.0538
 1040YOPC   D2A13618   6.984   7.604   7.272  0.2795  0.1999 -0.0150
 1040YOPC   C3A13619   6.682   7.486   7.500  0.0295 -0.2949  0.1569
 1040YOPC   C4A13620   6.241   7.226   7.497 -0.2720  0.0718 -0.1861
 1040YOPC   C1B13621   6.726   7.555   6.555 -0.0199  0.3033  0.0940
 1040YOPC   C2B13622   6.454   7.911   6.598  0.0931 -0.0661 -0.2389
 1040YOPC   D3B13623   6.445   8.409   6.682  0.1734  0.0882  0.0342
 1040YOPC   C4B13624   6.246   8.736   6.673 -0.2249  0.1105 -0.0505
 1041YOPC   NC313625  11.676  17.326   5.770  0.0282  0.1921  0.0148
 1041YOPC   PO413626  11.268  17.566   5.886 -0.3400  0.0421 -0.1402
 1041YOPC   GL113627  11.116  17.441   6.244  0.1370 -0.1168  0.1891
 1041YOPC   GL213628  10.871  17.328   6.211  0.1411  0.1259  0.2220
 1041YOPC   C1A13629  11.154  17.202   6.623  0.2218 -0.0218 -0.1525
 1041YOPC   D2A13630  11.109  17.091   6.990 -0.1783 -0.2745  0.1642
 1041YOPC   C3A13631  11.134  17.213   7.475 -0.2203  0.5627  0.3529
 1041YOPC   C4A13632  11.124  17.314   7.917  0.1307 -0.0878  0.0587
 1041YOPC   C1B13633  10.675  17.314   6.518 -0.1115 -0.2894 -0.0500
 1041YOPC   C2B13634  10.470  17.360   6.904 -0.1159 -0.0704  0.1363
 1041YOPC   D3B13635  10.554  17.245   7.309 -0.0848  0.1148  0.0387
 1041YOPC   C4B13636  10.614  17.100   7.811  0.2691  0.2244  0.1812
 1042YOPC   NC313637   8.567  15.440   5.657  0.0621  0.2091 -0.0552
 1042YOPC   PO413638   8.440  15.400   5.980 -0.2208  0.2211 -0.1401
 1042YOPC   GL113639   8.585  15.447   6.527  0.0212 -0.0575 -0.1259
 1042YOPC   GL213640   8.313  15.502   6.765  0.1796  0.0215 -0.1394
 1042YOPC   C1A13641   8.857  15.423   6.936 -0.1826  0.0313  0.0651
 1042YOPC   D2A13642   8.942  15.188   7.318  0.0676 -0.1643  0.2326
 1042YOPC   C3A13643   8.632  15.160   7.658  0.2013  0.2021 -0.0638
 1042YOPC   C4A13644   8.625  15.245   8.059 -0.1505 -0.3748 -0.0659
 1042YOPC   C1B13645   8.382  15.553   7.138  0.1272  0.2392 -0.1946
 1042YOPC   C2B13646   8.342  15.553   7.598 -0.0549  0.0511 -0.1331
 1042YOPC   D3B13647   8.530  15.797   7.942  0.1016  0.1354 -0.0653
 1042YOPC   C4B13648   8.921  15.776   7.958 -0.0020 -0.1702  0.2343
 1043YOPC   NC313649   7.202   2.294   5.449  0.1762  0.1409 -0.2769
 1043YOPC   PO413650   6.771   2.574   5.546  0.0966 -0.1147 -0.0666
 1043YOPC   GL113651   6.770   2.431   5.997 -0.2541  0.0209 -0.0303
 1043YOPC   GL213652   6.941   2.696   6.175 -0.0891 -0.0341  0.1874
 1043YOPC   C1A13653   6.551   2.183   6.263 -0.1142  0.1277 -0.1757
 1043YOPC   D2A13654   6.589   1.974   6.625  0.0000  0.1054  0.0855
 1043YOPC   C3A13655   6.970   1.758   6.603  0.4727  0.0322  0.0165
 1043YOPC   C4A13656   6.915   1.435   6.264 -0.0883 -0.1823  0.3416
 1043YOPC   C1B13657   6.886   2.892   6.623 -0.0929 -0.0684  0.1781
 1043YOPC   C2B13658   6.744   2.824   7.064 -0.3219 -0.0818 -0.0890
 1043YOPC   D3B13659   6.603   3.051   7.412  0.0617 -0.0715  0.1672
 1043YOPC   C4B13660   6.486   2.967   7.833  0.1615  0.0585  0.0453
 1044YOPC   NC313661  15.165   2.776   5.695 -0.0353  0.0515 -0.0605
 1044YOPC   PO413662  14.776   2.901   5.657 -0.3435 -0.0597 -0.2293
 1044YOPC   GL113663  14.821   2.881   6.125 -0.0855  0.1211  0.2700
 1044YOPC   GL213664  14.771   3.187   6.286 -0.0458 -0.1653 -0.2587
 1044YOPC   C1A13665  15.088   2.703   6.501  0.1502  0.2986 -0.3450
 1044YOPC   D2A13666  14.925   2.622   6.840  0.5284 -0.0349  0.2205
 1044YOPC   C3A13667  15.023   2.208   7.048  0.1228 -0.1405  0.0775
 1044YOPC   C4A13668  15.029   1.737   6.893  0.0384  0.2986  0.1268
 1044YOPC   C1B13669  14.672   3.004   6.646 -0.0172 -0.1185 -0.0954
 1044YOPC   C2B13670  14.656   2.970   7.069  0.1546  0.2978  0.3278
 1044YOPC   D3B13671  14.902   3.178   7.438 -0.3079 -0.0466 -0.1226
 1044YOPC   C4B13672  14.954   3.363   7.895  0.0367  0.1321  0.1829
 1045YOPC   NC313673   5.560  11.045   6.143 -0.0507  0.1804 -0.1910
 1045YOPC   PO413674   5.802  10.553   6.005  0.0257 -0.1846 -0.0029
 1045YOPC   GL113675   5.952  10.745   6.375 -0.1992  0.0868 -0.1220
 1045YOPC   GL213676   6.304  10.773   6.411 -0.6221  0.0688  0.0685
 1045YOPC   C1A13677   5.954  10.767   6.824 -0.1749 -0.1357  0.2264
 1045YOPC   D2A13678   5.881  10.962   7.152  0.2035 -0.0121  0.0005
 1045YOPC   C3A13679   5.841  11.406   7.151  0.0744  0.3401  0.0762
 1045YOPC   C4A13680   6.108  11.750   7.071 -0.0679  0.0417 -0.1368
 1045YOPC   C1B13681   6.485  10.622   6.836  0.1188 -0.0288  0.0096
 1045YOPC   C2B13682   6.663  10.176   6.961  0.3432 -0.3624  0.1584
 1045YOPC   D3B13683   6.687  10.098   7.384  0.1148  0.2476  0.2372
 1045YOPC   C4B13684   6.632  10.016   7.847  0.0758  0.1236 -0.3025
 1046YOPC   NC313685  14.806   9.805   6.346  0.0097 -0.0584 -0.1067
 1046YOPC   PO413686  14.557  10.102   6.062 -0.3237 -0.2791 -0.1227
 1046YOPC   GL113687  14.262   9.992   6.444  0.1432  0.2892 -0.3135
 1046YOPC   GL213688  14.147  10.196   6.666  0.0907 -0.0951 -0.0015
 1046YOPC   C1A13689  14.101   9.630   6.734 -0.0306  0.1962  0.3234
 1046YOPC   D2A13690  14.043   9.210   6.894  0.0531  0.1741 -0.1998
 1046YOPC   C3A13691  13.917   9.109   7.328 -0.2355 -0.0975  0.1555
 1046YOPC   C4A13692  13.441   9.140   7.477 -0.1417  0.1589 -0.0859
 1046YOPC   C1B13693  14.292  10.558   6.908  0.1626 -0.1013  0.2497
 1046YOPC   C2B13694  14.583  10.863   7.042  0.2178  0.0929  0.0715
 1046YOPC   D3B13695  14.848  11.125   7.303 -0.3111 -0.1074 -0.4273
 1046YOPC   C4B13696  15.055  11.238   7.758 -0.2413  0.0846 -0.1026
 1047YOPC   NC313697   6.016   0.290   6.027 -0.1480 -0.0931 -0.0320
 1047YOPC   PO413698   5.932  -0.076   6.114 -0.0482  0.0964  0.0878
 1047YOPC   GL113699   5.815   0.064   6.484  0.0443  0.0575  0.0861
 1047YOPC   GL213700   5.851   0.367   6.531  0.0744 -0.0788 -0.0515
 1047YOPC   C1A13701   5.730  -0.005   6.961  0.0517 -0.1986 -0.0072
 1047YOPC   D2A13702   5.561   0.035   7.393 -0.1482  0.0437 -0.1045
 1047YOPC   C3A13703   5.764  -0.208   7.759 -0.0793  0.0989  0.4241
 1047YOPC   C4A13704   5.942  -0.412   8.009 -0.1688 -0.0715  0.2037
 1047YOPC   C1B13705   6.096   0.373   6.851 -0.1021  0.0529  0.0206
 1047YOPC   C2B13706   6.347   0.335   7.185 -0.1936  0.0382 -0.3887
 1047YOPC   D3B13707   6.591   0.126   7.381  0.1740  0.1272 -0.1573
 1047YOPC   C4B13708   6.820   0.119   7.849  0.1849 -0.0038 -0.0865
 1048YOPC   NC313709  17.102   1.122   6.098 -0.0057  0.0537 -0.0040
 1048YOPC   PO413710  17.369   0.839   6.385 -0.0733  0.0027  0.1531
 1048YOPC   GL113711  17.448   0.886   6.883  0.0329  0.3258 -0.3103
 1048YOPC   GL213712  17.662   1.064   6.858  0.0900  0.1870 -0.1662
 1048YOPC   C1A13713  17.352   0.738   7.246  0.1222  0.1187 -0.1756
 1048YOPC   D2A13714  17.173   0.690   7.671 -0.0784 -0.0541 -0.0591
 1048YOPC   C3A13715  17.220   0.388   8.003  0.0160  0.2066  0.1519
 1048YOPC   C4A13716  17.523   0.316   8.273  0.0557 -0.1357 -0.0867
 1048YOPC   C1B13717  17.735   1.133   7.272  0.1406  0.0240  0.3097
 1048YOPC   C2B13718  17.508   1.153   7.811 -0.1260 -0.0526 -0.1647
 1048YOPC   D3B13719  17.420   0.876   8.105  0.1109  0.0979 -0.2072
 1048YOPC   C4B13720  17.384   0.777   8.500 -0.2733 -0.0225  0.1696
 1049YOPC   NC313721   9.004   2.533   5.541  0.0244 -0.2896  0.0825
 1049YOPC   PO413722   8.847   2.100   5.741 -0.0399 -0.0074 -0.0310
 1049YOPC   GL113723   8.713   2.195   6.129 -0.0683 -0.1755 -0.0782
 1049YOPC   GL213724   8.407   2.355   6.036  0.3146 -0.1195 -0.2659
 1049YOPC   C1A13725   8.575   2.392   6.565 -0.1008 -0.2138 -0.0065
 1049YOPC   D2A13726   8.651   2.354   7.032  0.2580 -0.0941 -0.1404
 1049YOPC   C3A13727   8.426   2.427   7.404 -0.0180 -0.0678 -0.1211
 1049YOPC   C4A13728   8.083   2.809   7.520  0.2272 -0.1255 -0.0960
 1049YOPC   C1B13729   8.203   2.674   6.343  0.1447  0.1231 -0.1500
 1049YOPC   C2B13730   7.902   2.975   6.434 -0.2598  0.0856 -0.0829
 1049YOPC   D3B13731   7.690   3.398   6.600 -0.3146  0.3033  0.3180
 1049YOPC   C4B13732   7.867   3.476   7.046 -0.0540 -0.1355  0.1251
 1050YOPC   NC313733  12.173  10.586   6.112 -0.3054 -0.0298  0.1164
 1050YOPC   PO413734  12.056  10.182   6.332  0.0278 -0.0818 -0.1402
 1050YOPC   GL113735  11.989  10.284   6.733 -0.4922 -0.2773 -0.1639
 1050YOPC   GL213736  12.137  10.564   6.929 -0.1225  0.2181  0.3057
 1050YOPC   C1A13737  11.765  10.202   7.095 -0.0768  0.3462  0.2354
 1050YOPC   D2A13738  11.711   9.882   7.313  0.0504  0.1447 -0.1632
 1050YOPC   C3A13739  11.607   9.762   7.791  0.0989  0.1110  0.1534
 1050YOPC   C4A13740  11.638   9.759   8.257  0.2430  0.0226  0.1054
 1050YOPC   C1B13741  11.995  10.668   7.357  0.0141  0.2031  0.0743
 1050YOPC   C2B13742  11.660  10.406   7.533 -0.3264  0.1643  0.1094
 1050YOPC   D3B13743  11.883  10.137   7.914  0.1303  0.1752  0.1055
 1050YOPC   C4B13744  12.123   9.796   8.066 -0.1597 -0.0057 -0.0247
 1051YOPC   NC313745   0.235  14.278   5.828 -0.5312 -0.3452  0.1833
 1051YOPC   PO413746  -0.028  14.518   6.180  0.2630  0.4253  0.0989
 1051YOPC   GL113747  -0.188  14.397   6.607 -0.1505 -0.0946 -0.0070
 1051YOPC   GL213748  -0.038  14.205   6.868  0.3549 -0.0268 -0.0913
 1051YOPC   C1A13749  -0.153  14.640   7.022 -0.3139  0.0378 -0.0308
 1051YOPC   D2A13750  -0.306  14.492   7.352  0.1929  0.2836 -0.2933
 1051YOPC   C3A13751  -0.660  14.393   7.389  0.1409 -0.0512  0.0488
 1051YOPC   C4A13752  -1.027  14.340   7.607  0.2453  0.1863 -0.0558
 1051YOPC   C1B13753   0.211  14.337   7.230 -0.1362 -0.3657 -0.0394
 1051YOPC   C2B13754   0.486  14.413   7.477 -0.0483 -0.1233 -0.1617
 1051YOPC   D3B13755   0.586  14.142   7.778  0.0147 -0.0446 -0.1845
 1051YOPC   C4B13756   0.644  13.923   8.189 -0.1832  0.1613 -0.0493
 1052YOPC   NC313757   3.712  17.295   5.814 -0.0616 -0.1942 -0.1961
 1052YOPC   PO413758   4.023  17.057   5.964  0.0733  0.0868  0.2194
 1052YOPC   GL113759   4.059  17.177   6.386 -0.1589 -0.0594 -0.1153
 1052YOPC   GL213760   4.336  17.349   6.571 -0.1085 -0.0654 -0.0128
 1052YOPC   C1A13761   3.806  17.349   6.686  0.0807 -0.0676  0.2259
 1052YOPC   D2A13762   3.792  17.682   7.040  0.0082  0.1478  0.3553
 1052YOPC   C3A13763   3.845  17.556   7.517  0.0951 -0.0487 -0.1643
 1052YOPC   C4A13764   3.908  17.733   7.873 -0.1412 -0.0028 -0.1423
 1052YOPC   C1B13765   4.174  17.429   6.992 -0.0082 -0.0435 -0.0572
 1052YOPC   C2B13766   4.211  17.302   7.399  0.0968  0.2250  0.0756
 1052YOPC   D3B13767   4.253  16.877   7.490  0.1791  0.0397 -0.1894
 1052YOPC   C4B13768   4.391  16.739   7.855 -0.0233  0.0223 -0.2608
 1053YOPC   NC313769  12.841   9.669   5.984  0.0306  0.1619 -0.0504
 1053YOPC   PO413770  12.891   9.570   6.334 -0.2307 -0.0301  0.1192
 1053YOPC   GL113771  12.868   9.714   6.647 -0.0100  0.4349 -0.2452
 1053YOPC   GL213772  12.731  10.015   6.620  0.0309 -0.2797 -0.0472
 1053YOPC   C1A13773  13.070   9.948   6.951  0.0363 -0.0257  0.1539
 1053YOPC   D2A13774  13.309  10.222   7.226  0.3248  0.0766 -0.1529
 1053YOPC   C3A13775  13.642  10.077   7.390 -0.1221  0.1093 -0.1633
 1053YOPC   C4A13776  14.062  10.024   7.636 -0.3249 -0.3863  0.2217
 1053YOPC   C1B13777  12.688  10.245   7.014  0.0370  0.1853  0.1489
 1053YOPC   C2B13778  12.460  10.396   7.272 -0.0245  0.1151 -0.0145
 1053YOPC   D3B13779  12.103  10.143   7.488  0.2436 -0.0942  0.0606
 1053YOPC   C4B13780  12.135   9.707   7.578  0.0098  0.0072 -0.0395
 1054YOPC   NC313781   4.199  16.219   5.911  0.0816 -0.0357 -0.2947
 1054YOPC   PO413782   3.824  16.323   6.121 -0.1585 -0.4163  0.0520
 1054YOPC   GL113783   3.537  16.441   6.520  0.1678  0.3886  0.2890
 1054YOPC   GL213784   3.667  16.604   6.777 -0.0756 -0.0559  0.4455
 1054YOPC   C1A13785   3.342  16.140   6.802 -0.2095 -0.1045 -0.1704
 1054YOPC   D2A13786   3.010  15.896   6.850  0.3478 -0.1183  0.1874
 1054YOPC   C3A13787   2.745  16.025   7.175 -0.1481  0.1591 -0.1371
 1054YOPC   C4A13788   2.468  16.194   7.451  0.4163 -0.4183 -0.1403
 1054YOPC   C1B13789   3.757  16.522   7.208  0.1154 -0.2867 -0.0361
 1054YOPC   C2B13790   3.975  16.461   7.617 -0.1718 -0.1746  0.0869
 1054YOPC   D3B13791   3.838  16.661   7.897  0.0833  0.0822 -0.0017
 1054YOPC   C4B13792   3.811  16.793   8.314 -0.2175 -0.1483 -0.0581
 1055YOPC   NC313793  12.143  14.820   5.940 -0.0773 -0.0758 -0.0356
 1055YOPC   PO413794  12.100  15.265   6.103  0.3224 -0.0133  0.0259
 1055YOPC   GL113795  12.236  15.267   6.547 -0.1615 -0.1975 -0.0908
 1055YOPC   GL213796  12.372  15.507   6.615 -0.0002 -0.0316  0.0066
 1055YOPC   C1A13797  12.296  15.231   6.985 -0.2541 -0.0560 -0.2344
 1055YOPC   D2A13798  12.588  15.105   7.301 -0.1008  0.2696  0.3087
 1055YOPC   C3A13799  12.560  14.684   7.393  0.1082  0.2982 -0.2162
 1055YOPC   C4A13800  12.215  14.462   7.551 -0.1232  0.2579  0.1857
 1055YOPC   C1B13801  12.348  15.729   7.016  0.1423  0.2978  0.0353
 1055YOPC   C2B13802  12.055  15.942   7.188  0.0119 -0.1931 -0.1140
 1055YOPC   D3B13803  11.885  15.799   7.568  0.0476 -0.2632  0.2294
 1055YOPC   C4B13804  11.643  15.720   7.929 -0.0689 -0.1583 -0.2028
 1056YOPC   NC313805   8.485  14.077   5.644 -0.0066  0.1336 -0.1061
 1056YOPC   PO413806   8.517  13.759   6.117  0.0122 -0.1366  0.1045
 1056YOPC   GL113807   8.322  13.922   6.608 -0.0034  0.0752 -0.0282
 1056YOPC   GL213808   8.077  13.688   6.721  0.0231 -0.0730  0.0391
 1056YOPC   C1A13809   8.478  14.100   7.021  0.3729  0.2181 -0.0344
 1056YOPC   D2A13810   8.524  14.097   7.413 -0.0797 -0.2362  0.0453
 1056YOPC   C3A13811   8.431  14.200   7.850  0.3076  0.3071 -0.0216
 1056YOPC   C4A13812   8.358  14.319   8.213 -0.2547 -0.0595 -0.3655
 1056YOPC   C1B13813   8.179  13.737   7.171  0.1252 -0.0750  0.2472
 1056YOPC   C2B13814   8.237  13.724   7.608 -0.0872  0.0335  0.0123
 1056YOPC   D3B13815   8.588  13.697   7.889  0.1892 -0.1201 -0.3442
 1056YOPC   C4B13816   8.858  13.839   8.285  0.1232  0.1189 -0.3693
 1057YOPC   NC313817   1.615  16.624   6.434 -0.1927 -0.1846  0.1025
 1057YOPC   PO413818   2.126  16.734   6.520 -0.1019 -0.1501  0.0674
 1057YOPC   GL113819   2.298  16.905   6.926  0.0684  0.1854 -0.0667
 1057YOPC   GL213820   2.449  17.205   6.906 -0.1093 -0.1788  0.2882
 1057YOPC   C1A13821   2.409  17.056   7.396  0.1757 -0.0241 -0.1407
 1057YOPC   D2A13822   2.366  17.055   7.861 -0.3092 -0.0916 -0.0158
 1057YOPC   C3A13823   2.758  17.068   8.121  0.0920 -0.1436  0.0414
 1057YOPC   C4A13824   2.895  17.262   8.540  0.0133 -0.3992  0.0156
 1057YOPC   C1B13825   2.821  17.286   7.262 -0.1394 -0.1284  0.0459
 1057YOPC   C2B13826   2.691  17.481   7.700 -0.1328 -0.1465 -0.2160
 1057YOPC   D3B13827   3.032  17.458   8.003 -0.0320 -0.2372 -0.0858
 1057YOPC   C4B13828   3.334  17.469   8.416 -0.2142  0.4323 -0.0748
 1058YOPC   NC313829  11.303  15.818   5.862 -0.1257  0.2831  0.2718
 1058YOPC   PO413830  11.728  15.882   5.586  0.0673 -0.1653  0.2466
 1058YOPC   GL113831  11.790  16.063   5.963 -0.1094 -0.0571 -0.1149
 1058YOPC   GL213832  11.938  15.833   6.135 -0.2283  0.0240 -0.3376
 1058YOPC   C1A13833  11.617  16.258   6.392  0.0510 -0.1505 -0.0858
 1058YOPC   D2A13834  11.211  16.178   6.577 -0.1858 -0.0331 -0.1478
 1058YOPC   C3A13835  11.197  16.289   7.011 -0.0149 -0.0438  0.0907
 1058YOPC   C4A13836  11.098  15.971   7.254  0.2335  0.2021 -0.1394
 1058YOPC   C1B13837  11.954  15.853   6.597 -0.0764  0.2688 -0.4031
 1058YOPC   C2B13838  11.906  15.502   6.918 -0.0251 -0.0638 -0.0651
 1058YOPC   D3B13839  11.988  15.399   7.332  0.0723  0.1314  0.1329
 1058YOPC   C4B13840  12.289  15.500   7.456 -0.1061  0.2032  0.0165
 1059YOPC   NC313841  10.612   0.890   5.683 -0.0599  0.1076 -0.0464
 1059YOPC   PO413842  10.257   1.011   5.771  0.3048 -0.1321  0.1191
 1059YOPC   GL113843  10.093   1.064   6.106 -0.2607 -0.2998 -0.1009
 1059YOPC   GL213844   9.915   1.235   6.101 -0.0871 -0.1308  0.1188
 1059YOPC   C1A13845   9.924   0.958   6.559 -0.0496  0.0652 -0.1411
 1059YOPC   D2A13846   9.881   0.962   7.019  0.2101  0.0119  0.2418
 1059YOPC   C3A13847   9.853   0.614   7.274  0.1010 -0.1444 -0.0254
 1059YOPC   C4A13848   9.789   0.450   7.697 -0.0943  0.1121 -0.1515
 1059YOPC   C1B13849   9.715   1.407   6.353  0.0929  0.1966  0.0500
 1059YOPC   C2B13850   9.692   1.326   6.793 -0.0067 -0.1525 -0.0853
 1059YOPC   D3B13851   9.256   1.336   6.821 -0.0552 -0.1720  0.0125
 1059YOPC   C4B13852   9.063   1.469   7.241  0.0547 -0.0366  0.2087
 1060YOPC   NC313853  10.027   4.378   5.194  0.0228  0.0225  0.1301
 1060YOPC   PO413854  10.118   4.087   5.547  0.0626  0.1144 -0.3773
 1060YOPC   GL113855  10.084   4.149   5.917  0.1752 -0.1215  0.1403
 1060YOPC   GL213856   9.897   4.038   6.025  0.1440 -0.2755  0.2564
 1060YOPC   C1A13857  10.158   4.144   6.444 -0.1496 -0.2991  0.0026
 1060YOPC   D2A13858  10.067   4.187   6.896 -0.0086  0.1157  0.1077
 1060YOPC   C3A13859  10.341   4.246   7.148  0.3320 -0.0472 -0.2590
 1060YOPC   C4A13860  10.790   4.091   7.117  0.1870  0.1386  0.0443
 1060YOPC   C1B13861   9.865   3.697   6.132 -0.2851  0.0019 -0.1090
 1060YOPC   C2B13862  10.169   3.420   6.280  0.0205 -0.1594 -0.0965
 1060YOPC   D3B13863  10.202   3.261   6.749  0.2171  0.0814  0.2161
 1060YOPC   C4B13864  10.041   3.265   7.175 -0.1705 -0.0075  0.1381
 1061YOPC   NC313865  17.229  10.515   6.290 -0.0772  0.2938  0.3308
 1061YOPC   PO413866  17.046  10.093   6.196  0.2466  0.0474  0.0147
 1061YOPC   GL113867  16.643  10.046   6.549 -0.0236  0.1874  0.3559
 1061YOPC   GL213868  16.520   9.800   6.668  0.0935 -0.0397 -0.0267
 1061YOPC   C1A13869  16.754  10.130   7.026  0.0231 -0.1629  0.0561
 1061YOPC   D2A13870  16.650  10.015   7.497 -0.1154 -0.2492 -0.1644
 1061YOPC   C3A13871  16.569  10.146   7.891  0.2446  0.0051 -0.1239
 1061YOPC   C4A13872  16.604  10.027   8.234  0.1646  0.0009  0.0777
 1061YOPC   C1B13873  16.351   9.403   6.847  0.1701 -0.0975  0.1537
 1061YOPC   C2B13874  16.349   8.918   6.829 -0.1052 -0.0193 -0.1127
 1061YOPC   D3B13875  16.442   8.716   7.247 -0.2301 -0.0560 -0.1813
 1061YOPC   C4B13876  16.365   8.557   7.703  0.0576 -0.0240 -0.0245
 1062YOPC   NC313877   0.420   3.508   5.535  0.1421  0.0700  0.2489
 1062YOPC   PO413878  -0.083   3.548   5.574  0.3885  0.1104 -0.1684
 1062YOPC   GL113879  -0.159   3.845   5.850  0.2955  0.1837 -0.0145
 1062YOPC   GL213880  -0.483   3.847   5.893 -0.0906  0.1607  0.1073
 1062YOPC   C1A13881  -0.031   3.857   6.272  0.3016 -0.0895  0.1842
 1062YOPC   D2A13882   0.476   3.813   6.260  0.1582  0.0542 -0.1861
 1062YOPC   C3A13883   0.624   3.353   6.362 -0.1192  0.1447  0.3449
 1062YOPC   C4A13884   0.786   2.993   6.606 -0.1677 -0.4124  0.0227
 1062YOPC   C1B13885  -0.652   4.094   6.227 -0.1579 -0.0630  0.1491
 1062YOPC   C2B13886  -0.547   4.215   6.631 -0.0804 -0.1810  0.0621
 1062YOPC   D3B13887  -0.314   4.391   7.038 -0.5601 -0.0084 -0.1497
 1062YOPC   C4B13888  -0.246   4.334   7.484 -0.1002 -0.1209 -0.2712
 1063YOPC   NC313889   6.038  14.853   5.682  0.0544 -0.1634 -0.2069
 1063YOPC   PO413890   6.259  15.142   5.922 -0.0715 -0.0062 -0.1716
 1063YOPC   GL113891   6.235  15.257   6.355 -0.1270 -0.2833  0.0057
 1063YOPC   GL213892   6.352  15.598   6.402  0.0758  0.1432 -0.2686
 1063YOPC   C1A13893   6.460  15.085   6.728  0.4732  0.2038  0.4321
 1063YOPC   D2A13894   6.444  14.930   7.150 -0.0225  0.3122  0.2201
 1063YOPC   C3A13895   6.387  14.969   7.620 -0.0199  0.0010  0.0706
 1063YOPC   C4A13896   6.491  14.802   8.020 -0.1565  0.0312 -0.0027
 1063YOPC   C1B13897   6.523  15.542   6.824  0.0978 -0.1057 -0.0897
 1063YOPC   C2B13898   6.202  15.349   7.136  0.2430 -0.0626  0.2273
 1063YOPC   D3B13899   6.239  15.451   7.539 -0.3352 -0.1670 -0.0418
 1063YOPC   C4B13900   6.158  15.204   7.981  0.1022 -0.0268 -0.0954
 1064YOPC   NC313901   0.566  11.355   6.473  0.0995  0.1000  0.0342
 1064YOPC   PO413902   0.978  11.440   6.242 -0.0566  0.1227 -0.2070
 1064YOPC   GL113903   1.043  11.125   6.563  0.1987 -0.0437 -0.2853
 1064YOPC   GL213904   1.281  11.266   6.683 -0.0405  0.0688  0.0291
 1064YOPC   C1A13905   0.922  10.763   6.803 -0.1992 -0.0438  0.0785
 1064YOPC   D2A13906   0.777  10.448   7.134 -0.0998  0.0928  0.0874
 1064YOPC   C3A13907   0.923  10.403   7.473 -0.0538 -0.1907 -0.0099
 1064YOPC   C4A13908   0.982  10.262   7.858 -0.1932 -0.0357 -0.1936
 1064YOPC   C1B13909   1.721  11.327   7.009  0.0861  0.1398 -0.0448
 1064YOPC   C2B13910   1.799  10.905   7.138 -0.3259 -0.1145  0.2384
 1064YOPC   D3B13911   1.894  10.816   7.582  0.3169  0.2754 -0.1224
 1064YOPC   C4B13912   1.973  10.734   8.008  0.1249  0.1699  0.0163
 1065YOPC   NC313913  16.892  14.667   6.066 -0.0543  0.0303  0.1744
 1065YOPC   PO413914  16.761  14.263   6.151 -0.0022 -0.0872 -0.1244
 1065YOPC   GL113915  16.542  14.286   6.619 -0.0746 -0.1442  0.3102
 1065YOPC   GL213916  16.244  14.073   6.496  0.2119 -0.2716  0.0516
 1065YOPC   C1A13917  16.816  14.279   6.970 -0.3104  0.3183 -0.0316
 1065YOPC   D2A13918  17.013  13.962   7.342 -0.0086  0.1988  0.0581
 1065YOPC   C3A13919  16.996  13.897   7.768  0.3853  0.0430  0.0110
 1065YOPC   C4A13920  16.761  13.791   8.038 -0.3554 -0.0350 -0.0152
 1065YOPC   C1B13921  16.024  14.087   6.859 -0.1298  0.0729 -0.2158
 1065YOPC   C2B13922  15.756  14.235   7.210 -0.4046  0.3392  0.2026
 1065YOPC   D3B13923  15.935  14.309   7.570  0.1685  0.0205 -0.5544
 1065YOPC   C4B13924  15.941  14.285   8.027  0.0542  0.0413  0.2126
 1066YOPC   NC313925   7.846   3.362   5.624  0.0052 -0.2434  0.1783
 1066YOPC   PO413926   8.188   3.506   5.559 -0.1989 -0.0153  0.1859
 1066YOPC   GL113927   8.447   3.599   5.874  0.3313 -0.1899  0.1858
 1066YOPC   GL213928   8.739   3.399   5.985  0.1869  0.0663  0.0528
 1066YOPC   C1A13929   8.350   3.760   6.295 -0.0698 -0.3603 -0.1678
 1066YOPC   D2A13930   8.160   3.749   6.751 -0.5855  0.1402  0.3265
 1066YOPC   C3A13931   8.279   3.620   7.136 -0.1661  0.1313  0.1824
 1066YOPC   C4A13932   8.113   3.451   7.484 -0.1661 -0.0014  0.2352
 1066YOPC   C1B13933   8.426   3.256   6.375  0.1675 -0.0386  0.2836
 1066YOPC   C2B13934   8.216   3.202   6.813  0.1108  0.1058  0.1149
 1066YOPC   D3B13935   8.333   3.107   7.129  0.1116  0.1546  0.0046
 1066YOPC   C4B13936   8.618   3.304   7.413  0.0282  0.0591 -0.0188
 1067YOPC   NC313937  15.911   6.659   6.058  0.0505 -0.1742 -0.2605
 1067YOPC   PO413938  16.261   6.889   6.251 -0.0348  0.0148 -0.0400
 1067YOPC   GL113939  16.050   6.852   6.578 -0.1739 -0.0859 -0.2569
 1067YOPC   GL213940  15.747   6.702   6.490  0.1413 -0.1737  0.4044
 1067YOPC   C1A13941  15.950   6.902   6.956  0.2528 -0.0027  0.0302
 1067YOPC   D2A13942  15.916   6.839   7.415  0.2483  0.1444  0.0000
 1067YOPC   C3A13943  15.962   6.487   7.703  0.1115  0.0517 -0.2329
 1067YOPC   C4A13944  15.945   6.072   7.715 -0.1793 -0.0568 -0.3340
 1067YOPC   C1B13945  15.485   6.593   6.897 -0.0190 -0.1727  0.4155
 1067YOPC   C2B13946  15.305   6.631   7.277  0.0567 -0.1405  0.2224
 1067YOPC   D3B13947  15.399   6.553   7.738 -0.1449  0.1900  0.1255
 1067YOPC   C4B13948  15.371   6.592   8.216 -0.1361 -0.2098  0.1194
 1068YOPC   NC313949   4.309  14.515   6.112  0.0797 -0.2440 -0.0099
 1068YOPC   PO413950   4.735  14.636   6.112 -0.5749 -0.3188  0.2787
 1068YOPC   GL113951   4.537  14.807   6.492  0.1816  0.0252 -0.2243
 1068YOPC   GL213952   4.313  15.073   6.596  0.1017 -0.0566  0.1761
 1068YOPC   C1A13953   4.402  14.841   6.997 -0.0843 -0.1193  0.1348
 1068YOPC   D2A13954   4.154  15.099   7.259 -0.0497  0.1464 -0.3464
 1068YOPC   C3A13955   3.935  14.881   7.563 -0.0921 -0.0863  0.1104
 1068YOPC   C4A13956   3.850  14.516   7.713 -0.0777  0.0936 -0.2305
 1068YOPC   C1B13957   4.245  15.385   6.898 -0.1492 -0.3121  0.0834
 1068YOPC   C2B13958   4.403  15.493   7.164  0.2166  0.3222 -0.2622
 1068YOPC   D3B13959   4.156  15.542   7.459 -0.1060  0.1210 -0.0344
 1068YOPC   C4B13960   3.842  15.406   7.702  0.2129 -0.1071 -0.0866
 1069YOPC   NC313961  17.457  11.351   6.134 -0.0302 -0.0695  0.1094
 1069YOPC   PO413962  17.653  10.987   6.386 -0.3580 -0.0653  0.1401
 1069YOPC   GL113963  17.899  11.012   6.832  0.0477  0.2398 -0.1904
 1069YOPC   GL213964  18.063  11.335   6.821  0.0278  0.0505 -0.1090
 1069YOPC   C1A13965  18.024  10.967   7.326  0.1073  0.3234  0.2634
 1069YOPC   D2A13966  18.055  11.019   7.829  0.3337  0.0123 -0.1756
 1069YOPC   C3A13967  18.329  11.392   8.082 -0.1405 -0.0324  0.3772
 1069YOPC   C4A13968  18.703  11.588   8.235 -0.0251 -0.4309 -0.0484
 1069YOPC   C1B13969  18.002  11.507   7.221  0.0749  0.1109 -0.1695
 1069YOPC   C2B13970  18.125  11.538   7.669 -0.2048  0.1374 -0.0646
 1069YOPC   D3B13971  17.849  11.491   8.025 -0.0001 -0.0463  0.0290
 1069YOPC   C4B13972  17.960  11.424   8.461  0.2820  0.0795 -0.0323
 1070YOPC   NC313973   2.905  15.750   5.950  0.0712 -0.0491 -0.2866
 1070YOPC   PO413974   3.226  15.514   6.097 -0.2337 -0.0957  0.0653
 1070YOPC   GL113975   3.411  15.592   6.520  0.3391 -0.0604 -0.2415
 1070YOPC   GL213976   3.211  15.438   6.739 -0.0087 -0.1277 -0.0958
 1070YOPC   C1A13977   3.664  15.751   6.755 -0.2582 -0.0200  0.1404
 1070YOPC   D2A13978   3.914  16.088   6.595 -0.1520 -0.2229  0.1087
 1070YOPC   C3A13979   4.142  16.381   6.855  0.0027 -0.1062 -0.1567
 1070YOPC   C4A13980   4.226  16.500   7.200 -0.0698 -0.1316 -0.1964
 1070YOPC   C1B13981   3.233  15.433   7.169 -0.0469 -0.0551  0.1022
 1070YOPC   C2B13982   3.341  15.544   7.599  0.0382  0.2616  0.0443
 1070YOPC   D3B13983   3.500  15.425   8.065 -0.3477  0.0474  0.0271
 1070YOPC   C4B13984   3.492  15.747   8.373  0.0462  0.5787  0.1665
 1071YOPC   NC313985   0.431   9.743   5.992  0.0237 -0.0915 -0.2755
 1071YOPC   PO413986   0.098   9.839   6.181  0.3167  0.0500 -0.1388
 1071YOPC   GL113987   0.189   9.859   6.572 -0.2407 -0.0974  0.1008
 1071YOPC   GL213988   0.129   9.655   6.816 -0.0554 -0.1566 -0.3412
 1071YOPC   C1A13989   0.516  10.082   6.853 -0.0968 -0.1299 -0.0739
 1071YOPC   D2A13990   0.258  10.371   7.278  0.1398  0.2762  0.1651
 1071YOPC   C3A13991   0.503  10.488   7.734 -0.1811  0.0207  0.0526
 1071YOPC   C4A13992   0.624  10.303   8.165 -0.1142 -0.2301 -0.1603
 1071YOPC   C1B13993   0.304   9.833   7.236 -0.1628 -0.0784  0.1265
 1071YOPC   C2B13994   0.611   9.955   7.358  0.3751  0.0891 -0.0020
 1071YOPC   D3B13995   0.602   9.854   7.726  0.0868  0.1554 -0.1562
 1071YOPC   C4B13996   0.466   9.475   7.998  0.1304  0.0019 -0.0073
 1072YOPC   NC313997   2.670   9.563   5.952  0.0868  0.3441 -0.0725
 1072YOPC   PO413998   2.922   9.125   5.996 -0.0553 -0.0776 -0.3434
 1072YOPC   GL113999   2.943   9.150   6.368  0.0540 -0.2726  0.1659
 1072YOPC   GL214000   2.854   8.911   6.446 -0.0269  0.1770  0.2400
 1072YOPC   C1A14001   3.035   9.314   6.795  0.0350  0.0310  0.1966
 1072YOPC   D2A14002   3.203   9.139   7.116  0.0505  0.0638 -0.0817
 1072YOPC   C3A14003   3.336   9.428   7.499  0.0685  0.2592  0.2083
 1072YOPC   C4A14004   3.408   9.229   7.929  0.0085 -0.2493  0.1403
 1072YOPC   C1B14005   2.922   8.770   6.922  0.0856 -0.1998 -0.2039
 1072YOPC   C2B14006   2.925   8.716   7.354  0.0769 -0.3596 -0.0879
 1072YOPC   D3B14007   3.372   8.901   7.514 -0.2138 -0.0172 -0.1784
 1072YOPC   C4B14008   3.830   9.064   7.634 -0.1667  0.1984  0.1847
 1073YOPC   NC314009   4.767  11.295   5.801 -0.0932 -0.2693  0.1072
 1073YOPC   PO414010   4.464  11.413   6.002  0.2246  0.3277  0.0548
 1073YOPC   GL114011   4.438  11.429   6.432 -0.2891 -0.0866  0.0786
 1073YOPC   GL214012   4.138  11.416   6.571 -0.0239  0.1608  0.3917
 1073YOPC   C1A14013   4.634  11.440   6.807  0.2977  0.3706 -0.1496
 1073YOPC   D2A14014   4.643  11.498   7.211  0.2680  0.1122  0.1001
 1073YOPC   C3A14015   4.530  11.757   7.601 -0.0373  0.1950 -0.1312
 1073YOPC   C4A14016   4.324  11.833   7.919  0.0250 -0.1193  0.1198
 1073YOPC   C1B14017   3.979  11.437   6.940 -0.1090 -0.0130 -0.1923
 1073YOPC   C2B14018   3.655  11.474   7.040 -0.1546  0.1485  0.2547
 1073YOPC   D3B14019   3.560  11.644   7.436  0.0919 -0.4853 -0.0911
 1073YOPC   C4B14020   3.629  11.570   7.881 -0.3156  0.0405 -0.0802
 1074YOPC   NC314021   8.032   2.197   5.716 -0.0699  0.0252  0.0801
 1074YOPC   PO414022   8.122   1.791   5.594 -0.0545  0.1892 -0.0975
 1074YOPC   GL114023   8.261   1.829   6.002  0.0673 -0.0384 -0.1378
 1074YOPC   GL214024   8.581   1.736   5.908 -0.0831  0.2450 -0.0358
 1074YOPC   C1A14025   8.345   1.976   6.336 -0.1345 -0.0823 -0.0483
 1074YOPC   D2A14026   8.234   2.150   6.836  0.1618 -0.2536 -0.0643
 1074YOPC   C3A14027   8.207   2.634   6.971  0.1750  0.0199  0.1848
 1074YOPC   C4A14028   7.847   2.917   7.008 -0.0953  0.0887  0.1028
 1074YOPC   C1B14029   8.726   1.223   6.119 -0.1853 -0.0440 -0.0484
 1074YOPC   C2B14030   9.011   0.847   6.085  0.0404 -0.0581  0.0262
 1074YOPC   D3B14031   8.945   0.599   6.386 -0.2166 -0.2173 -0.0262
 1074YOPC   C4B14032   9.192   0.291   6.609  0.0359  0.0859  0.1340
 1075YOPC   NC314033  10.604  11.727   5.712 -0.1174 -0.1491  0.4237
 1075YOPC   PO414034  10.429  11.779   6.194 -0.0962  0.1173  0.0572
 1075YOPC   GL114035  10.412  11.621   6.542 -0.3805 -0.0039 -0.2595
 1075YOPC   GL214036  10.758  11.688   6.744 -0.1477 -0.2674 -0.3991
 1075YOPC   C1A14037  10.518  11.579   7.122  0.1360 -0.0530 -0.1538
 1075YOPC   D2A14038  10.652  11.621   7.555 -0.0595 -0.0110  0.0226
 1075YOPC   C3A14039  10.787  11.997   7.734 -0.1439 -0.0748 -0.1002
 1075YOPC   C4A14040  10.439  12.242   7.839 -0.0425 -0.1324 -0.1607
 1075YOPC   C1B14041  10.717  12.030   7.022 -0.1511  0.2315  0.3025
 1075YOPC   C2B14042  10.509  12.057   7.298  0.1938 -0.1806  0.0030
 1075YOPC   D3B14043  10.126  11.821   7.366 -0.0300  0.2695 -0.2567
 1075YOPC   C4B14044   9.919  11.525   7.133 -0.1033 -0.2298  0.0759
 1076YOPC   NC314045   3.915   9.558   5.949 -0.1898 -0.0313  0.0912
 1076YOPC   PO414046   4.252   9.264   6.133 -0.1133 -0.0337 -0.3653
 1076YOPC   GL114047   3.823   9.270   6.320 -0.1854  0.0177 -0.1787
 1076YOPC   GL214048   3.843   9.037   6.486 -0.0552 -0.2554 -0.1076
 1076YOPC   C1A14049   3.522   9.395   6.756 -0.0017 -0.0122  0.0065
 1076YOPC   D2A14050   3.361   9.662   7.060 -0.0937  0.1267  0.0096
 1076YOPC   C3A14051   3.709   9.723   7.398  0.0051 -0.2698  0.0863
 1076YOPC   C4A14052   3.772   9.560   7.781  0.1799  0.0047 -0.0140
 1076YOPC   C1B14053   4.185   9.325   6.738  0.2732 -0.1863  0.0399
 1076YOPC   C2B14054   4.495   9.672   6.698  0.1426 -0.0177 -0.0648
 1076YOPC   D3B14055   4.920   9.574   6.749 -0.2594  0.1073 -0.2626
 1076YOPC   C4B14056   5.374   9.448   6.663 -0.0057  0.2442  0.0685
 1077YOPC   NC314057  13.490  17.122   5.672  0.0545  0.1672  0.0791
 1077YOPC   PO414058  13.141  17.223   5.862  0.0619  0.0965  0.2505
 1077YOPC   GL114059  12.981  17.134   6.214 -0.2174 -0.3130 -0.0099
 1077YOPC   GL214060  12.771  16.836   6.260  0.0249 -0.0429 -0.0854
 1077YOPC   C1A14061  13.050  17.238   6.548  0.0661  0.1073  0.1599
 1077YOPC   D2A14062  12.964  17.153   6.957 -0.0014  0.2659 -0.2767
 1077YOPC   C3A14063  13.337  17.017   7.280  0.0984 -0.4326  0.0158
 1077YOPC   C4A14064  13.666  16.869   7.550  0.0652 -0.0566 -0.0873
 1077YOPC   C1B14065  12.852  16.725   6.629 -0.1961  0.2107 -0.1568
 1077YOPC   C2B14066  12.997  16.683   7.068 -0.1598  0.0651  0.0790
 1077YOPC   D3B14067  12.818  16.494   7.335  0.0887 -0.1188  0.1387
 1077YOPC   C4B14068  12.619  16.359   7.698 -0.0055  0.1191 -0.0744
 1078YOPC   NC314069  15.059  10.528   6.161  0.0795 -0.1656  0.0956
 1078YOPC   PO414070  15.207  10.197   6.395  0.0252 -0.1145  0.0338
 1078YOPC   GL114071  14.930  10.192   6.756  0.2733  0.0762  0.0013
 1078YOPC   GL214072  14.626  10.095   6.875 -0.1579 -0.0547 -0.0533
 1078YOPC   C1A14073  14.948  10.428   7.101  0.1900  0.0814  0.0925
 1078YOPC   D2A14074  14.809  10.656   7.399  0.1190  0.0548 -0.1393
 1078YOPC   C3A14075  15.124  10.732   7.689 -0.3029  0.0252 -0.0370
 1078YOPC   C4A14076  15.218  10.852   8.082  0.0096 -0.1682  0.0052
 1078YOPC   C1B14077  14.613  10.025   7.397  0.1708 -0.0372 -0.2059
 1078YOPC   C2B14078  14.565  10.061   7.859 -0.1357 -0.2260  0.0081
 1078YOPC   D3B14079  14.436  10.449   7.899 -0.0496 -0.0680  0.0219
 1078YOPC   C4B14080  14.630  10.842   7.894  0.1229 -0.2117 -0.1919
 1079YOPC   NC314081   7.516  11.450   6.146 -0.1259 -0.0570 -0.4269
 1079YOPC   PO414082   7.644  11.027   6.210 -0.1743  0.1572  0.2769
 1079YOPC   GL114083   7.663  10.908   6.549  0.0213 -0.3355  0.0091
 1079YOPC   GL214084   7.851  11.008   6.672  0.0123 -0.3539  0.0318
 1079YOPC   C1A14085   7.360  10.908   6.750  0.1339 -0.0995 -0.1409
 1079YOPC   D2A14086   7.034  10.547   6.815 -0.1195 -0.1259 -0.1493
 1079YOPC   C3A14087   6.839  10.540   7.212  0.0238 -0.1666  0.1874
 1079YOPC   C4A14088   6.693  10.516   7.663 -0.1248 -0.1906  0.6167
 1079YOPC   C1B14089   8.018  10.913   7.030 -0.0320  0.0663 -0.0869
 1079YOPC   C2B14090   8.111  10.813   7.437  0.0072  0.0017  0.2923
 1079YOPC   D3B14091   8.382  10.796   7.838 -0.2276 -0.0783 -0.3097
 1079YOPC   C4B14092   8.477  10.614   8.298 -0.0829  0.0807 -0.3254
 1080YOPC   NC314093   8.782   7.268   5.780  0.0326  0.1162  0.1965
 1080YOPC   PO414094   9.004   6.813   5.868  0.0399 -0.0977  0.1926
 1080YOPC   GL114095   9.284   6.849   6.271  0.1443  0.0209  0.1727
 1080YOPC   GL214096   9.511   6.740   6.406  0.1645 -0.0943 -0.4581
 1080YOPC   C1A14097   9.115   6.992   6.774  0.2346  0.1208  0.1855
 1080YOPC   D2A14098   9.048   6.785   7.016  0.1932  0.0889  0.2147
 1080YOPC   C3A14099   9.424   6.591   7.165  0.1780  0.3693  0.2568
 1080YOPC   C4A14100   9.668   6.216   7.051 -0.0825  0.1389 -0.1059
 1080YOPC   C1B14101   9.789   6.545   6.707  0.1587 -0.1642 -0.1313
 1080YOPC   C2B14102   9.983   6.627   7.044 -0.0665 -0.2707 -0.0727
 1080YOPC   D3B14103   9.967   6.495   7.374  0.1371 -0.0846  0.0035
 1080YOPC   C4B14104   9.643   6.374   7.626 -0.0840 -0.0559 -0.0470
 1081YOPC   NC314105   2.365  17.177   6.414  0.0641  0.0441 -0.1786
 1081YOPC   PO414106   2.450  17.641   6.471 -0.2030  0.1268 -0.0017
 1081YOPC   GL114107   2.348  17.732   6.839  0.4549 -0.1108  0.1879
 1081YOPC   GL214108   2.501  18.007   6.943 -0.1314  0.0065  0.1950
 1081YOPC   C1A14109   2.440  17.569   7.267  0.1122  0.2022  0.1914
 1081YOPC   D2A14110   2.195  17.532   7.518 -0.1152 -0.1147  0.0062
 1081YOPC   C3A14111   2.363  17.553   8.039  0.1796  0.1364 -0.1195
 1081YOPC   C4A14112   2.502  17.616   8.475  0.0472  0.0416 -0.0172
 1081YOPC   C1B14113   2.471  18.163   7.421  0.0801  0.0655  0.0538
 1081YOPC   C2B14114   2.567  18.187   7.825 -0.1625 -0.3512  0.1248
 1081YOPC   D3B14115   2.250  18.096   8.136  0.0905  0.3035  0.0422
 1081YOPC   C4B14116   2.177  17.964   8.496 -0.0229  0.1994  0.0935
 1082YOPC   NC314117   2.534  13.634   6.154 -0.1546  0.0426 -0.1586
 1082YOPC   PO414118   2.760  13.986   6.440  0.1033  0.2657  0.2411
 1082YOPC   GL114119   2.802  13.970   6.868 -0.1055 -0.0308  0.0063
 1082YOPC   GL214120   2.617  14.288   6.851 -0.0660 -0.0849  0.0251
 1082YOPC   C1A14121   2.818  13.847   7.323  0.0122  0.1250 -0.1382
 1082YOPC   D2A14122   2.758  13.480   7.584 -0.0127 -0.1711  0.0077
 1082YOPC   C3A14123   2.414  13.306   7.642 -0.4197  0.2057  0.0799
 1082YOPC   C4A14124   2.132  12.959   7.577  0.0317 -0.2811  0.1353
 1082YOPC   C1B14125   2.513  14.291   7.283 -0.0227 -0.1943 -0.0466
 1082YOPC   C2B14126   2.786  14.193   7.660  0.1317  0.0811 -0.2571
 1082YOPC   D3B14127   2.962  14.327   8.084  0.0274 -0.2706  0.1605
 1082YOPC   C4B14128   3.297  14.115   8.346  0.0720  0.1901 -0.1776
 1083YOPC   NC314129  11.807  11.654   5.915 -0.0209  0.4453 -0.2034
 1083YOPC   PO414130  12.167  11.586   6.122  0.0090  0.2908  0.0124
 1083YOPC   GL114131  12.035  11.776   6.466  0.1447 -0.0596 -0.0704
 1083YOPC   GL214132  11.983  12.069   6.563  0.0075 -0.1391 -0.0660
 1083YOPC   C1A14133  12.237  11.738   6.873  0.0144 -0.2735  0.0013
 1083YOPC   D2A14134  12.287  11.408   7.183 -0.1677 -0.1062 -0.2846
 1083YOPC   C3A14135  12.720  11.385   7.354  0.4215 -0.0217 -0.1520
 1083YOPC   C4A14136  13.113  11.070   7.346  0.1550  0.0488 -0.0915
 1083YOPC   C1B14137  11.656  12.090   6.873  0.2493  0.2217 -0.1387
 1083YOPC   C2B14138  11.672  12.380   7.216 -0.0327 -0.4919 -0.1696
 1083YOPC   D3B14139  11.991  12.365   7.592  0.4851 -0.0752 -0.0086
 1083YOPC   C4B14140  12.396  12.128   7.775 -0.0522 -0.0301  0.1266
 1084YOPC   NC314141  15.153   5.845   5.463 -0.0122  0.2081  0.1622
 1084YOPC   PO414142  15.219   5.922   5.918  0.1170  0.1319  0.0485
 1084YOPC   GL114143  15.452   5.746   6.207 -0.0121 -0.2119 -0.0363
 1084YOPC   GL214144  15.271   5.513   6.417  0.0776  0.2433  0.0488
 1084YOPC   C1A14145  15.706   5.758   6.544 -0.0248 -0.1066 -0.2532
 1084YOPC   D2A14146  15.866   5.941   6.908 -0.0263 -0.2620 -0.2183
 1084YOPC   C3A14147  15.944   5.767   7.318 -0.0470 -0.2022  0.0527
 1084YOPC   C4A14148  16.246   5.452   7.533  0.0408  0.3504  0.0799
 1084YOPC   C1B14149  15.572   5.313   6.763  0.2243  0.0377  0.2853
 1084YOPC   C2B14150  15.524   5.003   7.081 -0.1543 -0.1266 -0.1428
 1084YOPC   D3B14151  15.477   4.633   6.802  0.0028  0.0551 -0.3345
 1084YOPC   C4B14152  15.407   4.246   6.728 -0.2023  0.0248  0.1548
 1085YOPC   NC314153   0.961  14.557   6.404 -0.0421  0.2655 -0.0583
 1085YOPC   PO414154   1.280  14.177   6.451  0.0439 -0.1266  0.2532
 1085YOPC   GL114155   1.537  14.172   6.814 -0.0833  0.2242  0.2925
 1085YOPC   GL214156   1.694  14.529   7.024 -0.0687  0.0933  0.1553
 1085YOPC   C1A14157   1.601  14.153   7.271  0.3110 -0.0402  0.1113
 1085YOPC   D2A14158   1.828  13.882   7.464 -0.1961  0.3617 -0.0792
 1085YOPC   C3A14159   1.736  13.447   7.470  0.1076 -0.1359 -0.1905
 1085YOPC   C4A14160   1.462  13.177   7.727 -0.1618 -0.1281 -0.1443
 1085YOPC   C1B14161   1.531  14.701   7.427 -0.2076  0.2913  0.1736
 1085YOPC   C2B14162   1.589  14.721   7.806  0.0350 -0.0994  0.2455
 1085YOPC   D3B14163   1.347  14.689   8.177  0.1783 -0.0445  0.1260
 1085YOPC   C4B14164   1.431  14.480   8.572 -0.0866  0.0704 -0.2553
 1086YOPC   NC314165  11.481   5.233   5.869 -0.1556  0.0089  0.1675
 1086YOPC   PO414166  11.325   4.774   5.756 -0.2425 -0.2401  0.0416
 1086YOPC   GL114167  11.271   4.521   6.119 -0.2004  0.3668  0.2375
 1086YOPC   GL214168  11.500   4.402   6.136 -0.1987 -0.0409  0.2469
 1086YOPC   C1A14169  11.030   4.308   6.439 -0.0484  0.3239 -0.0537
 1086YOPC   D2A14170  10.788   3.835   6.539 -0.3306 -0.2539  0.0874
 1086YOPC   C3A14171  10.392   3.816   6.668  0.0289 -0.0812  0.2469
 1086YOPC   C4A14172   9.944   3.708   6.686  0.2410  0.0420 -0.0312
 1086YOPC   C1B14173  11.427   4.627   6.565 -0.2566  0.0449 -0.0888
 1086YOPC   C2B14174  10.997   4.827   6.851 -0.1261 -0.1235  0.1271
 1086YOPC   D3B14175  10.990   4.917   7.321 -0.0672  0.0319 -0.3213
 1086YOPC   C4B14176  11.005   5.072   7.711 -0.1786  0.0898 -0.1163
 1087YOPC   NC314177  17.131  10.980   6.451 -0.1582  0.1511 -0.0309
 1087YOPC   PO414178  17.378  10.768   6.719  0.0307  0.0312 -0.1963
 1087YOPC   GL114179  17.469  10.846   7.161  0.0144 -0.0367 -0.2420
 1087YOPC   GL214180  17.743  10.582   7.112 -0.1628 -0.1312 -0.1045
 1087YOPC   C1A14181  17.273  10.825   7.587  0.0928 -0.1138 -0.2276
 1087YOPC   D2A14182  17.087  11.032   7.832  0.1641  0.0555 -0.4485
 1087YOPC   C3A14183  17.087  11.309   8.277  0.2484 -0.2657 -0.0247
 1087YOPC   C4A14184  16.757  11.669   8.240  0.0394  0.0139  0.0501
 1087YOPC   C1B14185  17.677  10.573   7.507  0.0079 -0.2761 -0.3390
 1087YOPC   C2B14186  17.537  10.518   7.852  0.0368  0.1179  0.4969
 1087YOPC   D3B14187  17.564  10.065   7.915  0.1598 -0.2412 -0.1956
 1087YOPC   C4B14188  17.454   9.676   8.214 -0.1819  0.2399  0.0274
 1088YOPC   NC314189   0.844   8.860   6.008  0.0003  0.2176 -0.0495
 1088YOPC   PO414190   0.637   8.529   6.239 -0.1237 -0.0205  0.1665
 1088YOPC   GL114191   0.710   8.438   6.675 -0.2268  0.0370 -0.1695
 1088YOPC   GL214192   0.894   8.206   6.722 -0.0516 -0.1110  0.1101
 1088YOPC   C1A14193   0.704   8.413   7.173  0.2245  0.1435 -0.0798
 1088YOPC   D2A14194   0.776   8.640   7.477 -0.0099  0.0750  0.2592
 1088YOPC   C3A14195   1.092   8.659   7.811 -0.0243 -0.1919 -0.1392
 1088YOPC   C4A14196   1.197   8.923   8.157 -0.3653 -0.0292  0.2438
 1088YOPC   C1B14197   1.053   8.123   7.064 -0.1063 -0.1618 -0.0461
 1088YOPC   C2B14198   0.994   8.106   7.519  0.3910  0.0534 -0.0382
 1088YOPC   D3B14199   0.658   8.060   7.733 -0.0498 -0.1861 -0.3106
 1088YOPC   C4B14200   0.275   8.044   7.939  0.1588 -0.0216 -0.0441
 1089YOPC   NC314201  13.829  11.043   6.278 -0.1371 -0.3659  0.1360
 1089YOPC   PO414202  13.430  10.805   6.225  0.1589  0.0784  0.1414
 1089YOPC   GL114203  13.435  10.866   6.615  0.3576 -0.2612  0.1096
 1089YOPC   GL214204  13.219  11.104   6.738  0.0736 -0.2863 -0.4935
 1089YOPC   C1A14205  13.191  10.680   7.006  0.1123 -0.0719 -0.1000
 1089YOPC   D2A14206  12.948  10.580   7.342  0.3597  0.2926 -0.2833
 1089YOPC   C3A14207  13.080  10.311   7.691 -0.0818 -0.1410 -0.0777
 1089YOPC   C4A14208  13.061   9.940   7.949 -0.1257 -0.0631  0.3208
 1089YOPC   C1B14209  13.310  11.443   7.067  0.3072  0.0879 -0.1631
 1089YOPC   C2B14210  13.499  11.447   7.398 -0.0576 -0.2460 -0.2242
 1089YOPC   D3B14211  13.176  11.455   7.675 -0.1159 -0.3539  0.0352
 1089YOPC   C4B14212  13.126  11.324   8.115 -0.0381  0.2452 -0.0526
 1090YOPC   NC314213  16.723  10.432   5.620 -0.2700 -0.0628  0.1274
 1090YOPC   PO414214  16.751  10.707   5.975 -0.3227  0.0354 -0.1704
 1090YOPC   GL114215  16.605  10.612   6.466 -0.0903 -0.0141  0.0514
 1090YOPC   GL214216  16.886  10.551   6.632  0.0983  0.0413  0.0879
 1090YOPC   C1A14217  16.383  10.450   6.796  0.0969  0.1557 -0.1477
 1090YOPC   D2A14218  16.038  10.665   7.039  0.1286 -0.1141  0.0499
 1090YOPC   C3A14219  16.067  10.726   7.474 -0.1387 -0.0676 -0.1158
 1090YOPC   C4A14220  16.152  10.476   7.791 -0.1353 -0.0378  0.0359
 1090YOPC   C1B14221  16.943  10.584   7.074  0.1130 -0.0179 -0.2367
 1090YOPC   C2B14222  16.765  10.482   7.380  0.3713  0.1396 -0.0877
 1090YOPC   D3B14223  16.378  10.414   7.298  0.0604  0.2635  0.0269
 1090YOPC   C4B14224  15.978  10.254   7.344 -0.0039  0.1608  0.0067
 1091YOPC   NC314225  15.871  11.569   6.459  0.0139  0.2857 -0.0780
 1091YOPC   PO414226  15.968  11.286   6.135 -0.0311  0.0896 -0.0094
 1091YOPC   GL114227  15.960  11.082   6.507  0.0037  0.0512 -0.2214
 1091YOPC   GL214228  16.282  10.935   6.603  0.0267 -0.0735 -0.0481
 1091YOPC   C1A14229  15.685  10.831   6.745  0.0778  0.3764 -0.0641
 1091YOPC   D2A14230  15.541  10.409   6.976  0.1731  0.0069 -0.0110
 1091YOPC   C3A14231  15.470  10.352   7.439  0.2496 -0.1702 -0.1166
 1091YOPC   C4A14232  15.621  10.141   7.760  0.3103  0.0876  0.1364
 1091YOPC   C1B14233  16.463  10.958   7.087 -0.2930 -0.0704  0.0452
 1091YOPC   C2B14234  16.726  10.941   7.506  0.1361 -0.1732 -0.0463
 1091YOPC   D3B14235  16.578  10.700   7.805  0.1283 -0.2385 -0.1368
 1091YOPC   C4B14236  16.545  10.547   8.180  0.0685  0.0194  0.0179
 1092YOPC   NC314237   5.407   7.698   5.916  0.1161  0.0656  0.1587
 1092YOPC   PO414238   5.230   7.425   6.153  0.0347  0.0776  0.1873
 1092YOPC   GL114239   5.208   7.414   6.585 -0.1451 -0.3660  0.2451
 1092YOPC   GL214240   4.978   7.355   6.811  0.2213 -0.0535  0.1091
 1092YOPC   C1A14241   5.571   7.458   6.818 -0.0825  0.1479  0.0643
 1092YOPC   D2A14242   5.912   7.594   7.053  0.0645  0.0540  0.1937
 1092YOPC   C3A14243   6.128   7.777   7.433  0.0904 -0.0521 -0.3052
 1092YOPC   C4A14244   6.186   7.667   7.857 -0.1291 -0.0454  0.3289
 1092YOPC   C1B14245   5.215   7.536   7.172  0.0464 -0.0891  0.0172
 1092YOPC   C2B14246   5.322   7.734   7.570 -0.2930  0.0445 -0.0400
 1092YOPC   D3B14247   5.093   7.854   7.959 -0.0714 -0.0523  0.1921
 1092YOPC   C4B14248   4.783   7.944   8.234  0.1235  0.0261  0.0027
 1093YOPC   NC314249   3.949   4.832   6.005 -0.2842 -0.1018 -0.0523
 1093YOPC   PO414250   4.358   4.793   6.263 -0.1732  0.2800  0.0791
 1093YOPC   GL114251   4.197   4.762   6.634  0.0190 -0.1266  0.0370
 1093YOPC   GL214252   4.160   5.020   6.879  0.0288 -0.1825 -0.1539
 1093YOPC   C1A14253   4.045   4.542   6.959  0.0862 -0.0875 -0.2293
 1093YOPC   D2A14254   3.908   4.187   7.038 -0.1547 -0.3135 -0.3111
 1093YOPC   C3A14255   4.188   3.867   6.978  0.0672  0.0707  0.1768
 1093YOPC   C4A14256   4.608   3.754   6.639 -0.2945  0.2975 -0.0791
 1093YOPC   C1B14257   4.236   5.031   7.297  0.1548  0.1509 -0.0384
 1093YOPC   C2B14258   4.463   4.945   7.663  0.2260 -0.0869 -0.0496
 1093YOPC   D3B14259   4.414   4.497   7.883 -0.2467  0.1897 -0.0008
 1093YOPC   C4B14260   4.359   4.278   8.296  0.1180 -0.1749  0.0171
 1094YOPC   NC314261   7.850   5.219   5.955  0.1573 -0.0796 -0.0381
 1094YOPC   PO414262   7.567   5.131   6.201  0.2493 -0.1273 -0.1247
 1094YOPC   GL114263   7.541   5.193   6.631 -0.0445 -0.4672  0.0019
 1094YOPC   GL214264   7.276   5.392   6.551 -0.0386  0.1292 -0.0741
 1094YOPC   C1A14265   7.465   5.246   7.052 -0.1206  0.0723 -0.2290
 1094YOPC   D2A14266   7.470   5.153   7.500  0.0202 -0.0364  0.0663
 1094YOPC   C3A14267   7.357   5.402   7.706 -0.2603  0.0296 -0.1538
 1094YOPC   C4A14268   7.288   5.561   8.030 -0.1954 -0.1145  0.1879
 1094YOPC   C1B14269   6.938   5.280   6.888  0.0548  0.0061  0.0866
 1094YOPC   C2B14270   6.954   5.247   7.373  0.0568  0.2544 -0.1121
 1094YOPC   D3B14271   6.955   5.111   7.774 -0.0431 -0.2527 -0.2956
 1094YOPC   C4B14272   6.902   5.263   8.235 -0.2366  0.2701 -0.3261
 1095YOPC   NC314273  12.157   0.413   5.939  0.0822  0.0728 -0.0953
 1095YOPC   PO414274  12.512   0.167   5.753 -0.2361  0.1739  0.0151
 1095YOPC   GL114275  12.482   0.022   6.168  0.2459 -0.1815 -0.1949
 1095YOPC   GL214276  12.540  -0.093   6.522  0.0800 -0.0527  0.1027
 1095YOPC   C1A14277  12.117   0.157   6.567  0.2068  0.1255  0.0694
 1095YOPC   D2A14278  11.931   0.196   6.960  0.1608  0.0245  0.0613
 1095YOPC   C3A14279  11.742   0.031   7.252  0.2694  0.0017 -0.1783
 1095YOPC   C4A14280  11.860  -0.239   7.546  0.0018 -0.0976  0.3847
 1095YOPC   C1B14281  12.774  -0.269   6.858  0.0514  0.1573  0.1408
 1095YOPC   C2B14282  12.665  -0.388   7.214 -0.0490  0.0510  0.0489
 1095YOPC   D3B14283  12.739  -0.808   7.387 -0.1350 -0.0238  0.2018
 1095YOPC   C4B14284  12.648  -0.881   7.881  0.0564 -0.2150 -0.1928
 1096YOPC   NC314285  14.156   6.846   5.840  0.0674 -0.0776 -0.1647
 1096YOPC   PO414286  14.029   6.694   6.296 -0.0248 -0.2748  0.2179
 1096YOPC   GL114287  13.678   6.678   6.523 -0.0406  0.0895  0.1385
 1096YOPC   GL214288  13.653   6.978   6.613 -0.1263 -0.1105 -0.1893
 1096YOPC   C1A14289  13.589   6.542   6.862  0.0762  0.0761  0.2407
 1096YOPC   D2A14290  13.483   6.443   7.226  0.0154 -0.2609 -0.1889
 1096YOPC   C3A14291  13.536   6.685   7.508  0.1138  0.2598 -0.1088
 1096YOPC   C4A14292  13.309   6.755   7.876 -0.1137 -0.0003 -0.2338
 1096YOPC   C1B14293  13.844   6.962   7.065 -0.0451 -0.2001 -0.0693
 1096YOPC   C2B14294  13.903   7.061   7.452 -0.0246 -0.1070  0.3583
 1096YOPC   D3B14295  13.917   6.974   7.843 -0.0243 -0.3189  0.0467
 1096YOPC   C4B14296  14.159   7.162   8.015 -0.0340  0.1406 -0.0181
 1097YOPC   NC314297  16.822   5.202   5.551  0.1853  0.0248  0.2029
 1097YOPC   PO414298  16.508   4.970   5.510 -0.1901  0.2322  0.1696
 1097YOPC   GL114299  16.531   5.102   5.901  0.2967 -0.2066 -0.0965
 1097YOPC   GL214300  16.224   5.096   6.048  0.0048  0.2001  0.2279
 1097YOPC   C1A14301  16.585   4.873   6.288  0.1790 -0.0413 -0.1782
 1097YOPC   D2A14302  16.504   4.687   6.749 -0.1770 -0.4162 -0.0246
 1097YOPC   C3A14303  16.489   4.580   7.200  0.1653  0.3936 -0.0489
 1097YOPC   C4A14304  16.361   4.658   7.586  0.1733 -0.3079  0.1009
 1097YOPC   C1B14305  16.025   5.347   6.395  0.1044  0.2864 -0.0937
 1097YOPC   C2B14306  16.032   5.472   6.828  0.0340 -0.0367  0.2046
 1097YOPC   D3B14307  15.966   5.341   7.149  0.3596  0.2096 -0.1536
 1097YOPC   C4B14308  15.705   5.126   7.504 -0.0324  0.0022 -0.2382
 1098YOPC   NC314309   6.165   3.297   5.299 -0.2029  0.0136 -0.0331
 1098YOPC   PO414310   5.948   3.005   5.668 -0.1928  0.0970  0.0168
 1098YOPC   GL114311   6.227   3.161   5.801  0.0384  0.1509 -0.1264
 1098YOPC   GL214312   6.344   3.008   6.028 -0.1681  0.1260  0.3009
 1098YOPC   C1A14313   6.214   3.447   6.184 -0.0961  0.4162  0.1925
 1098YOPC   D2A14314   6.524   3.710   6.275  0.1990 -0.4154  0.5227
 1098YOPC   C3A14315   6.671   3.637   6.708  0.0180  0.1178  0.1884
 1098YOPC   C4A14316   6.796   3.325   6.981  0.0873  0.1504  0.1146
 1098YOPC   C1B14317   6.428   2.781   6.399  0.0646 -0.1227  0.1633
 1098YOPC   C2B14318   6.597   2.490   6.738 -0.1664  0.2648  0.2782
 1098YOPC   D3B14319   6.447   2.369   7.108 -0.1041  0.0444  0.1560
 1098YOPC   C4B14320   6.526   2.066   7.501  0.0457  0.1822  0.0223
 1099YOPC   NC314321   5.928   9.036   5.767 -0.1540 -0.1680 -0.1418
 1099YOPC   PO414322   5.546   8.984   5.887 -0.0989  0.0396 -0.0126
 1099YOPC   GL114323   5.534   9.050   6.355 -0.0690 -0.0076 -0.0178
 1099YOPC   GL214324   5.326   8.939   6.454 -0.2961  0.0547 -0.0449
 1099YOPC   C1A14325   5.675   9.034   6.827 -0.0580  0.1107 -0.1102
 1099YOPC   D2A14326   5.683   9.071   7.346 -0.0358  0.0065  0.2779
 1099YOPC   C3A14327   5.962   9.299   7.552 -0.1848  0.0633 -0.0350
 1099YOPC   C4A14328   6.148   9.127   7.859 -0.0880  0.0801 -0.2987
 1099YOPC   C1B14329   5.195   9.086   6.937  0.1484 -0.1847  0.2010
 1099YOPC   C2B14330   5.193   9.034   7.399  0.1662  0.0086 -0.3449
 1099YOPC   D3B14331   5.314   9.305   7.631 -0.1102 -0.3372  0.0209
 1099YOPC   C4B14332   5.590   9.593   7.782 -0.1706 -0.2045  0.0198
 1100YOPC   NC314333   6.010   1.596   5.705  0.2412 -0.2065 -0.1609
 1100YOPC   PO414334   5.767   1.279   5.948 -0.0150  0.2428 -0.1356
 1100YOPC   GL114335   5.983   1.448   6.266  0.4072 -0.1606 -0.2831
 1100YOPC   GL214336   6.150   1.203   6.289  0.2719  0.1346  0.0404
 1100YOPC   C1A14337   6.419   1.637   6.326  0.0177  0.1102  0.0543
 1100YOPC   D2A14338   6.573   1.493   6.639  0.1519 -0.1812 -0.4441
 1100YOPC   C3A14339   6.746   1.556   7.062  0.1324  0.4345 -0.1105
 1100YOPC   C4A14340   6.995   1.733   7.444  0.0052 -0.2724  0.2759
 1100YOPC   C1B14341   6.138   1.231   6.687  0.3001  0.2088 -0.1961
 1100YOPC   C2B14342   6.329   1.300   7.036  0.0943  0.1449  0.3748
 1100YOPC   D3B14343   6.488   1.502   7.498  0.0174  0.1699 -0.0045
 1100YOPC   C4B14344   6.662   1.544   7.909 -0.0734  0.1778 -0.1495
 1101YOPC   NC314345  13.003  13.164   6.484  0.0019 -0.0807  0.1950
 1101YOPC   PO414346  13.028  12.811   6.196  0.3368 -0.0917 -0.1924
 1101YOPC   GL114347  12.868  12.729   6.642  0.2200  0.0940  0.2350
 1101YOPC   GL214348  12.483  12.593   6.638 -0.1583  0.0152  0.1252
 1101YOPC   C1A14349  12.991  12.887   7.024 -0.0144  0.0115  0.0655
 1101YOPC   D2A14350  13.214  12.972   7.385  0.0157  0.2174  0.1427
 1101YOPC   C3A14351  13.221  12.893   7.782 -0.1064  0.1626  0.0582
 1101YOPC   C4A14352  13.040  13.131   8.113 -0.2338  0.0816  0.0056
 1101YOPC   C1B14353  12.352  12.216   6.816 -0.2751  0.1556  0.2095
 1101YOPC   C2B14354  12.075  12.055   7.226  0.2485  0.0030 -0.1546
 1101YOPC   D3B14355  12.157  11.807   7.495 -0.1680 -0.0643  0.0081
 1101YOPC   C4B14356  12.237  11.685   7.997  0.1058  0.0684 -0.1266
 1102YOPC   NC314357   9.505   6.818   5.795 -0.1068  0.0053 -0.3332
 1102YOPC   PO414358   9.719   6.553   6.002 -0.2471 -0.0945  0.1226
 1102YOPC   GL114359   9.679   6.291   6.288 -0.0747 -0.0201  0.2219
 1102YOPC   GL214360   9.331   6.246   6.369  0.1115  0.2574  0.0505
 1102YOPC   C1A14361   9.706   6.019   6.646 -0.1110  0.0966  0.2803
 1102YOPC   D2A14362   9.341   5.872   6.941 -0.1797 -0.1347 -0.0025
 1102YOPC   C3A14363   9.290   6.037   7.365 -0.1415 -0.2115 -0.0299
 1102YOPC   C4A14364   9.371   5.975   7.726  0.0762  0.1952  0.0916
 1102YOPC   C1B14365   9.265   6.334   6.710  0.0828 -0.0941 -0.0545
 1102YOPC   C2B14366   9.039   6.287   7.058  0.1616  0.0204  0.0514
 1102YOPC   D3B14367   8.723   6.467   7.323 -0.3090 -0.0996 -0.3213
 1102YOPC   C4B14368   8.575   6.862   7.588  0.0030 -0.1581  0.2555
 1103YOPC   NC314369  11.242   6.860   5.968  0.1422 -0.0274 -0.0096
 1103YOPC   PO414370  11.615   7.032   6.251  0.2115 -0.1134 -0.3319
 1103YOPC   GL114371  11.799   6.991   6.639  0.1577 -0.1808  0.1151
 1103YOPC   GL214372  12.158   6.912   6.661  0.1157  0.1940  0.1478
 1103YOPC   C1A14373  12.004   7.242   6.960  0.0229  0.0758  0.1469
 1103YOPC   D2A14374  12.134   7.292   7.499  0.1543 -0.1468 -0.0934
 1103YOPC   C3A14375  11.861   7.505   7.795 -0.4347  0.0732 -0.1699
 1103YOPC   C4A14376  11.947   7.668   8.243 -0.1572  0.2073  0.1316
 1103YOPC   C1B14377  12.141   6.762   7.084 -0.0724 -0.0068  0.0193
 1103YOPC   C2B14378  12.102   6.693   7.586 -0.0276  0.4057  0.1175
 1103YOPC   D3B14379  11.876   6.335   7.740  0.0223  0.1449  0.2478
 1103YOPC   C4B14380  11.724   6.214   8.079 -0.3738 -0.1574 -0.0255
 1104YOPC   NC314381  17.511  13.861   6.507 -0.0357 -0.2677 -0.0777
 1104YOPC   PO414382  17.360  13.577   6.356 -0.0992  0.3340 -0.1799
 1104YOPC   GL114383  17.550  13.385   6.706  0.1204  0.1363  0.0705
 1104YOPC   GL214384  17.834  13.537   6.792  0.2397 -0.1825  0.2418
 1104YOPC   C1A14385  17.471  13.512   7.178 -0.1761  0.0797  0.2526
 1104YOPC   D2A14386  17.228  13.528   7.544  0.1638 -0.1556  0.1003
 1104YOPC   C3A14387  17.419  13.577   7.880  0.4308 -0.1183  0.0515
 1104YOPC   C4A14388  17.612  13.503   8.285  0.0673 -0.1646  0.1873
 1104YOPC   C1B14389  18.231  13.436   7.146 -0.2373 -0.2256 -0.1151
 1104YOPC   C2B14390  18.435  13.446   7.559 -0.0502 -0.0603 -0.1466
 1104YOPC   D3B14391  18.135  13.603   7.888  0.2226 -0.4786 -0.0663
 1104YOPC   C4B14392  17.862  13.907   8.041  0.3166 -0.1181  0.2719
 1105YOPC   NC314393   2.572   4.032   5.666  0.2098  0.1011  0.0571
 1105YOPC   PO414394   2.727   3.680   5.895 -0.0150 -0.2465  0.0657
 1105YOPC   GL114395   2.576   3.707   6.281 -0.0734 -0.3206 -0.1135
 1105YOPC   GL214396   2.829   3.880   6.534 -0.1306  0.1364 -0.0522
 1105YOPC   C1A14397   2.186   3.610   6.545 -0.2180  0.1424  0.2089
 1105YOPC   D2A14398   1.805   3.661   6.862  0.4721 -0.1097 -0.0828
 1105YOPC   C3A14399   1.847   3.723   7.327  0.0425  0.0320 -0.0208
 1105YOPC   C4A14400   1.923   3.544   7.761  0.1797  0.0520  0.0516
 1105YOPC   C1B14401   2.597   3.607   6.859 -0.1687  0.0462 -0.1117
 1105YOPC   C2B14402   2.189   3.436   7.117  0.1311 -0.1522 -0.2434
 1105YOPC   D3B14403   2.312   3.338   7.593  0.0732  0.0522 -0.2171
 1105YOPC   C4B14404   2.086   3.174   8.092 -0.1947  0.0575  0.1150
 1106YOPC   NC314405  10.760  13.969   5.942  0.3338  0.1185 -0.0633
 1106YOPC   PO414406  10.442  13.659   5.986 -0.1967  0.5032 -0.0865
 1106YOPC   GL114407  10.613  13.803   6.421 -0.1039 -0.0432  0.0846
 1106YOPC   GL214408  10.654  14.095   6.404 -0.0973 -0.0993 -0.0346
 1106YOPC   C1A14409  10.834  13.845   6.830  0.0787 -0.1364 -0.3057
 1106YOPC   D2A14410  10.818  14.008   7.216 -0.2088 -0.1090 -0.1436
 1106YOPC   C3A14411  10.672  13.817   7.530 -0.1167  0.2597 -0.1393
 1106YOPC   C4A14412  10.360  13.977   7.691 -0.1578  0.0511  0.0352
 1106YOPC   C1B14413  10.561  14.262   6.762  0.0875  0.2160 -0.2967
 1106YOPC   C2B14414  10.452  14.614   6.940  0.0173 -0.0778  0.0068
 1106YOPC   D3B14415  10.353  14.528   7.337 -0.0797  0.0569  0.1928
 1106YOPC   C4B14416  10.437  14.501   7.739 -0.0933  0.1257 -0.1896
 1107YOPC   NC314417   0.185  12.239   6.219 -0.1248  0.0503 -0.2526
 1107YOPC   PO414418   0.087  11.890   6.475 -0.0479 -0.3756 -0.0543
 1107YOPC   GL114419   0.368  11.778   6.836 -0.0119 -0.1682 -0.1565
 1107YOPC   GL214420   0.720  11.695   6.913  0.1070 -0.1083 -0.1238
 1107YOPC   C1A14421   0.438  11.899   7.292  0.0238 -0.0676 -0.0251
 1107YOPC   D2A14422   0.443  12.122   7.683  0.0568  0.1070  0.0054
 1107YOPC   C3A14423   0.373  11.909   8.028  0.3254 -0.1258 -0.2301
 1107YOPC   C4A14424   0.469  11.668   8.535 -0.1781 -0.0866 -0.1745
 1107YOPC   C1B14425   0.722  11.469   7.436  0.0037  0.2700  0.1460
 1107YOPC   C2B14426   0.609  11.006   7.638 -0.2590 -0.2809 -0.0362
 1107YOPC   D3B14427   0.978  10.807   7.798  0.0369 -0.1394  0.2051
 1107YOPC   C4B14428   1.433  10.900   7.899  0.2263 -0.3513  0.3816
 1108YOPC   NC314429  14.687  15.780   5.623 -0.0948 -0.1061 -0.0344
 1108YOPC   PO414430  14.516  16.120   5.812 -0.0750  0.1011 -0.0764
 1108YOPC   GL114431  14.425  16.181   6.247 -0.0547 -0.0234  0.0754
 1108YOPC   GL214432  14.364  15.900   6.250 -0.2646  0.0247 -0.1548
 1108YOPC   C1A14433  14.114  16.234   6.672  0.0495 -0.4095  0.0048
 1108YOPC   D2A14434  13.778  16.611   6.555 -0.1161 -0.0935 -0.1162
 1108YOPC   C3A14435  13.930  16.940   6.520  0.0367 -0.1908  0.0932
 1108YOPC   C4A14436  13.975  17.274   6.782  0.2424 -0.0003  0.1242
 1108YOPC   C1B14437  14.541  15.929   6.712  0.2810 -0.0017  0.0279
 1108YOPC   C2B14438  14.476  16.120   7.057  0.0457  0.1681  0.3463
 1108YOPC   D3B14439  14.286  16.169   7.520  0.2674  0.0023  0.0632
 1108YOPC   C4B14440  14.208  16.335   7.945  0.0197  0.5799 -0.1930
 1109YOPC   NC314441   9.316   4.880   5.857 -0.2389  0.2166  0.1526
 1109YOPC   PO414442   9.046   5.223   5.955 -0.1332  0.1919  0.0229
 1109YOPC   GL114443   8.868   5.232   6.321 -0.1117  0.0737 -0.0748
 1109YOPC   GL214444   8.657   5.053   6.309 -0.1700 -0.0009  0.0713
 1109YOPC   C1A14445   9.067   5.169   6.743  0.2285  0.2175 -0.0991
 1109YOPC   D2A14446   9.503   4.901   6.845  0.0344  0.4746 -0.0771
 1109YOPC   C3A14447   9.428   4.790   7.248  0.3004  0.2090 -0.2416
 1109YOPC   C4A14448   9.302   4.692   7.543  0.3779 -0.1709 -0.3904
 1109YOPC   C1B14449   8.561   5.140   6.764  0.2128  0.1766 -0.2148
 1109YOPC   C2B14450   8.497   5.070   7.163 -0.0398 -0.1354 -0.1152
 1109YOPC   D3B14451   8.281   4.874   7.473 -0.1992  0.2656  0.0723
 1109YOPC   C4B14452   8.399   4.895   7.928 -0.0013 -0.5048  0.0311
 1110YOPC   NC314453   1.599   2.694   5.594 -0.1520 -0.1727 -0.1023
 1110YOPC   PO414454   1.660   2.632   6.040 -0.0071 -0.1603 -0.2351
 1110YOPC   GL114455   1.829   2.710   6.406  0.1631  0.0499  0.1733
 1110YOPC   GL214456   1.997   3.124   6.424  0.2130 -0.2231  0.0179
 1110YOPC   C1A14457   2.088   2.682   6.717 -0.2514 -0.0707  0.0185
 1110YOPC   D2A14458   2.036   2.462   7.126 -0.2053 -0.1081 -0.0276
 1110YOPC   C3A14459   2.151   2.590   7.555 -0.1032 -0.1922  0.0259
 1110YOPC   C4A14460   2.079   2.899   7.665 -0.0481 -0.0570 -0.0837
 1110YOPC   C1B14461   1.832   3.081   6.854 -0.0236  0.0017 -0.2630
 1110YOPC   C2B14462   1.858   3.177   7.337 -0.1820  0.3075  0.0484
 1110YOPC   D3B14463   1.483   3.393   7.473  0.0454  0.0225 -0.1532
 1110YOPC   C4B14464   1.166   3.468   7.740  0.3981 -0.0611 -0.0067
 1111YOPC   NC314465   3.651   3.835   5.484 -0.2287 -0.0764  0.1077
 1111YOPC   PO414466   3.419   3.753   5.952  0.3019 -0.3901  0.2714
 1111YOPC   GL114467   3.536   3.926   6.353  0.0466 -0.1735  0.0725
 1111YOPC   GL214468   3.890   3.958   6.447 -0.2355  0.0386 -0.1801
 1111YOPC   C1A14469   3.330   4.092   6.779  0.3271  0.2203  0.0955
 1111YOPC   D2A14470   2.930   3.957   7.057 -0.5505  0.3069  0.0649
 1111YOPC   C3A14471   2.996   4.053   7.465  0.0158  0.0634  0.1009
 1111YOPC   C4A14472   2.988   4.328   7.893 -0.0875  0.4159  0.3709
 1111YOPC   C1B14473   3.718   3.669   6.742  0.2426  0.2405 -0.3577
 1111YOPC   C2B14474   3.761   3.724   7.219  0.0036 -0.0632  0.2056
 1111YOPC   D3B14475   3.505   4.034   7.484 -0.0679 -0.0290  0.1850
 1111YOPC   C4B14476   3.453   4.130   7.896 -0.0327  0.2886  0.0414
 1112YOPC   NC314477  13.272   3.033   5.947  0.2197  0.0854  0.2838
 1112YOPC   PO414478  12.824   3.152   5.990 -0.3667 -0.0159  0.1301
 1112YOPC   GL114479  12.870   3.167   6.384 -0.2950 -0.0906 -0.1729
 1112YOPC   GL214480  12.567   2.905   6.384 -0.0239 -0.1292 -0.0775
 1112YOPC   C1A14481  13.013   3.034   6.681  0.0815  0.1132  0.0512
 1112YOPC   D2A14482  12.847   2.695   6.805  0.0096  0.0080 -0.2714
 1112YOPC   C3A14483  12.776   2.667   7.266 -0.2454  0.3094 -0.3552
 1112YOPC   C4A14484  12.659   2.648   7.688 -0.1452 -0.3396 -0.0916
 1112YOPC   C1B14485  12.422   2.966   6.802 -0.1622 -0.0009  0.0804
 1112YOPC   C2B14486  12.704   3.113   7.080  0.0763 -0.4871  0.0684
 1112YOPC   D3B14487  12.910   3.468   7.040  0.0895  0.0416 -0.0123
 1112YOPC   C4B14488  13.230   3.731   6.759  0.0226 -0.0256 -0.1110
 1113YOPC   NC314489  11.579  13.128   6.031  0.3107 -0.2989 -0.1247
 1113YOPC   PO414490  11.244  12.953   6.281 -0.1640  0.2112 -0.0975
 1113YOPC   GL114491  10.906  12.805   6.618  0.0711 -0.3810 -0.0024
 1113YOPC   GL214492  10.843  12.493   6.565 -0.1317 -0.1052  0.0250
 1113YOPC   C1A14493  10.946  12.948   6.991 -0.0167  0.0897  0.2147
 1113YOPC   D2A14494  10.937  12.988   7.520 -0.0041 -0.2817  0.1234
 1113YOPC   C3A14495  10.637  13.290   7.703 -0.0966 -0.1108 -0.1789
 1113YOPC   C4A14496  10.466  13.541   8.021  0.1538 -0.2017 -0.1265
 1113YOPC   C1B14497  10.558  12.566   6.949 -0.0124  0.1307 -0.4162
 1113YOPC   C2B14498  10.829  12.465   7.204  0.0631  0.1248  0.2774
 1113YOPC   D3B14499  10.794  12.538   7.554 -0.1043  0.1454 -0.2116
 1113YOPC   C4B14500  10.980  12.443   7.982  0.1964 -0.1800 -0.0200
 1114YOPC   NC314501   1.688   8.641   6.145  0.0608  0.0384 -0.1796
 1114YOPC   PO414502   1.358   8.884   5.990  0.0846  0.1541  0.0154
 1114YOPC   GL114503   1.445   9.038   6.410  0.1074  0.1088  0.0919
 1114YOPC   GL214504   1.626   8.816   6.658  0.1059  0.2886 -0.2205
 1114YOPC   C1A14505   1.437   9.268   6.763  0.1859  0.2334  0.1769
 1114YOPC   D2A14506   1.233   9.474   7.067 -0.1266 -0.0094 -0.1075
 1114YOPC   C3A14507   1.309   9.408   7.479  0.1710 -0.3826 -0.0656
 1114YOPC   C4A14508   1.294   9.349   7.945 -0.1768  0.1721  0.2406
 1114YOPC   C1B14509   1.610   9.002   7.082 -0.0072 -0.0870 -0.1059
 1114YOPC   C2B14510   1.773   9.428   7.300 -0.1950 -0.3403  0.2435
 1114YOPC   D3B14511   1.863   9.366   7.667 -0.0204 -0.2380  0.1389
 1114YOPC   C4B14512   1.755   9.336   8.160  0.0611 -0.1087 -0.0142
 1115YOPC   NC314513   6.574  13.181   5.872 -0.1825 -0.0916 -0.2620
 1115YOPC   PO414514   7.085  13.263   5.981  0.0170 -0.2628 -0.3138
 1115YOPC   GL114515   7.314  13.301   6.407  0.1506  0.2345  0.1130
 1115YOPC   GL214516   7.519  13.525   6.631 -0.1405 -0.0178 -0.0564
 1115YOPC   C1A14517   7.160  13.187   6.775  0.1566 -0.4226  0.1849
 1115YOPC   D2A14518   7.291  13.327   7.220  0.0270  0.1302  0.3557
 1115YOPC   C3A14519   7.094  13.172   7.541  0.2654  0.1271 -0.1147
 1115YOPC   C4A14520   7.279  12.965   7.990  0.3498  0.1187 -0.0643
 1115YOPC   C1B14521   7.709  13.675   7.022 -0.1309  0.1915 -0.1103
 1115YOPC   C2B14522   7.775  13.741   7.447 -0.0304  0.1503 -0.2164
 1115YOPC   D3B14523   7.760  13.610   7.790 -0.0483 -0.0209  0.2724
 1115YOPC   C4B14524   7.524  13.843   8.077 -0.0659 -0.1016 -0.0976
 1116YOPC   NC314525   1.088  16.631   6.313  0.2193 -0.0371 -0.0219
 1116YOPC   PO414526   0.911  16.202   6.343  0.0189 -0.4066 -0.2140
 1116YOPC   GL114527   0.986  16.280   6.805  0.1395 -0.1181 -0.1201
 1116YOPC   GL214528   1.163  16.009   6.969 -0.3602  0.0169  0.2447
 1116YOPC   C1A14529   1.042  16.474   7.212 -0.1178  0.0529 -0.2675
 1116YOPC   D2A14530   1.141  16.431   7.620  0.1079  0.2334  0.0739
 1116YOPC   C3A14531   0.955  16.554   7.923  0.2371 -0.1174  0.2735
 1116YOPC   C4A14532   0.492  16.585   7.997  0.1173 -0.0645  0.1880
 1116YOPC   C1B14533   1.363  16.055   7.358 -0.0026 -0.1029  0.0924
 1116YOPC   C2B14534   1.505  16.075   7.738  0.0023 -0.2152 -0.2192
 1116YOPC   D3B14535   1.298  16.201   8.064 -0.0421  0.0328  0.1590
 1116YOPC   C4B14536   1.226  16.062   8.474  0.0325 -0.5154  0.0946
 1117YOPC   NC314537   8.072  12.936   5.887  0.0982 -0.1142  0.0377
 1117YOPC   PO414538   8.033  12.593   6.015 -0.0402  0.3603  0.0092
 1117YOPC   GL114539   7.958  12.378   6.466 -0.0421 -0.0849  0.0638
 1117YOPC   GL214540   7.999  12.617   6.650 -0.1113 -0.0364  0.3197
 1117YOPC   C1A14541   7.832  12.148   6.790 -0.0569  0.1210  0.2679
 1117YOPC   D2A14542   8.020  12.109   7.274 -0.0677 -0.1470 -0.0760
 1117YOPC   C3A14543   8.035  12.252   7.708  0.1289  0.3359  0.1766
 1117YOPC   C4A14544   7.893  12.208   8.086  0.0635  0.0086 -0.1367
 1117YOPC   C1B14545   7.920  12.583   6.997 -0.2374  0.2325 -0.2350
 1117YOPC   C2B14546   7.797  12.563   7.432  0.2341 -0.1387 -0.0645
 1117YOPC   D3B14547   7.360  12.672   7.521 -0.1249 -0.0308  0.1277
 1117YOPC   C4B14548   7.161  12.477   7.790  0.0393  0.0137 -0.4826
 1118YOPC   NC314549   1.446  17.484   6.414 -0.1024 -0.1233  0.1050
 1118YOPC   PO414550   1.266  17.067   6.386  0.0191  0.2006 -0.1808
 1118YOPC   GL114551   1.255  16.805   6.806  0.0718  0.1295  0.1593
 1118YOPC   GL214552   0.847  16.759   6.845  0.0556 -0.2230 -0.4432
 1118YOPC   C1A14553   1.285  16.946   7.152  0.2490 -0.4266 -0.0064
 1118YOPC   D2A14554   0.915  17.039   7.315 -0.0659 -0.1716  0.0130
 1118YOPC   C3A14555   0.619  16.745   7.508 -0.5105 -0.1276  0.1857
 1118YOPC   C4A14556   0.427  16.358   7.341  0.2159  0.1002 -0.0511
 1118YOPC   C1B14557   0.499  16.903   7.003  0.0252 -0.1245  0.0775
 1118YOPC   C2B14558   0.141  16.802   7.073  0.0281 -0.3257 -0.0934
 1118YOPC   D3B14559   0.145  16.743   7.553  0.1517  0.1917  0.0812
 1118YOPC   C4B14560  -0.000  16.610   7.885  0.1545  0.0476  0.1602
 1119YOPC   NC314561  14.737  17.077   6.215 -0.1545 -0.5122  0.0125
 1119YOPC   PO414562  14.965  17.452   6.533  0.1229  0.0331  0.0809
 1119YOPC   GL114563  15.155  17.351   6.943  0.1085  0.0999  0.2378
 1119YOPC   GL214564  15.018  17.462   7.152  0.2868 -0.2835 -0.2227
 1119YOPC   C1A14565  15.501  17.301   7.257 -0.0595  0.2939  0.2377
 1119YOPC   D2A14566  15.632  17.301   7.598  0.1968 -0.3684 -0.0953
 1119YOPC   C3A14567  15.488  17.619   7.825 -0.2965 -0.1816 -0.0768
 1119YOPC   C4A14568  15.153  17.939   7.736 -0.2373  0.2767 -0.3350
 1119YOPC   C1B14569  15.091  17.365   7.570  0.2362  0.1457  0.1658
 1119YOPC   C2B14570  15.029  17.097   8.046  0.0603  0.4233  0.3251
 1119YOPC   D3B14571  15.243  17.086   8.382  0.0170  0.1342  0.0754
 1119YOPC   C4B14572  15.242  16.870   8.728  0.1618 -0.0608  0.0057
 1120YOPC   NC314573   7.315  16.872   5.546  0.0173 -0.5552 -0.0568
 1120YOPC   PO414574   7.354  17.226   5.809  0.0884 -0.0663  0.0238
 1120YOPC   GL114575   7.443  17.030   6.055  0.1246 -0.0445  0.2316
 1120YOPC   GL214576   7.263  16.747   6.132  0.0158  0.0146  0.0907
 1120YOPC   C1A14577   7.451  17.136   6.502 -0.0270  0.0989 -0.3028
 1120YOPC   D2A14578   7.532  16.953   6.863  0.1410  0.2120  0.0155
 1120YOPC   C3A14579   7.782  17.145   7.017  0.4066 -0.3121 -0.0114
 1120YOPC   C4A14580   7.966  16.985   7.435  0.0787 -0.1719  0.0804
 1120YOPC   C1B14581   7.488  16.606   6.497  0.1142 -0.0132  0.2372
 1120YOPC   C2B14582   7.319  16.523   6.905  0.1370 -0.2402 -0.0117
 1120YOPC   D3B14583   7.437  16.296   7.182  0.0051  0.1187  0.0458
 1120YOPC   C4B14584   7.662  16.275   7.569 -0.1488  0.4356  0.4207
 1121YOPC   NC314585   5.344   5.533   5.752  0.3050  0.1858  0.2739
 1121YOPC   PO414586   5.577   5.209   5.973  0.2630  0.2934 -0.4240
 1121YOPC   GL114587   5.727   5.188   6.400 -0.1404 -0.1147 -0.1604
 1121YOPC   GL214588   5.636   4.924   6.495  0.1042  0.1144  0.1081
 1121YOPC   C1A14589   5.871   5.328   6.795  0.0737  0.0012 -0.3046
 1121YOPC   D2A14590   5.997   5.339   7.282 -0.0795  0.2373  0.2588
 1121YOPC   C3A14591   5.674   5.408   7.723 -0.2752 -0.1437 -0.2191
 1121YOPC   C4A14592   5.684   5.283   8.103 -0.0911  0.1234 -0.0986
 1121YOPC   C1B14593   5.640   4.904   6.902 -0.3594 -0.0555  0.1539
 1121YOPC   C2B14594   5.680   4.829   7.297 -0.4468  0.2771  0.2887
 1121YOPC   D3B14595   5.883   4.890   7.684 -0.0571  0.1590 -0.2264
 1121YOPC   C4B14596   5.762   4.671   8.096 -0.0973 -0.0468 -0.1743
 1122YOPC   NC314597   6.661   6.020   5.632 -0.3690 -0.0743  0.1147
 1122YOPC   PO414598   6.657   5.722   6.053  0.3228  0.2051  0.1311
 1122YOPC   GL114599   6.288   5.807   6.425  0.1150 -0.0756  0.0041
 1122YOPC   GL214600   6.215   5.549   6.460  0.4917 -0.0615  0.1280
 1122YOPC   C1A14601   6.318   6.139   6.832 -0.0237 -0.0505  0.1689
 1122YOPC   D2A14602   6.242   6.170   7.261  0.0117 -0.1934 -0.1410
 1122YOPC   C3A14603   6.460   6.087   7.615 -0.1330  0.0529 -0.0157
 1122YOPC   C4A14604   6.857   5.871   7.768  0.0450 -0.1222  0.2589
 1122YOPC   C1B14605   6.415   5.243   6.691 -0.1686  0.1067  0.0732
 1122YOPC   C2B14606   6.516   5.112   7.117  0.0363  0.2823 -0.0258
 1122YOPC   D3B14607   6.415   4.993   7.459  0.1914 -0.0467  0.0230
 1122YOPC   C4B14608   6.268   5.178   7.790  0.3683  0.0047  0.0003
 1123YOPC   NC314609   8.321  15.932   6.111  0.1443  0.0571  0.0008
 1123YOPC   PO414610   8.017  16.203   5.890  0.0105 -0.1772 -0.1863
 1123YOPC   GL114611   8.050  16.386   6.299  0.1468 -0.0937  0.0164
 1123YOPC   GL214612   7.841  16.705   6.199 -0.5309  0.0023  0.1681
 1123YOPC   C1A14613   8.257  16.576   6.634  0.1417 -0.3343  0.0448
 1123YOPC   D2A14614   8.219  16.641   7.067 -0.0021 -0.1001 -0.0967
 1123YOPC   C3A14615   7.781  16.596   7.181  0.0670  0.0266 -0.4990
 1123YOPC   C4A14616   7.423  16.749   7.316 -0.2582  0.1691 -0.3560
 1123YOPC   C1B14617   7.930  16.967   6.476 -0.0597 -0.1509  0.1527
 1123YOPC   C2B14618   8.284  17.068   6.683 -0.0317  0.0123  0.2615
 1123YOPC   D3B14619   8.282  17.276   7.119 -0.1982 -0.1415 -0.0474
 1123YOPC   C4B14620   8.320  17.304   7.559 -0.1322 -0.1750 -0.0316
 1124YOPC   NC314621  12.557   1.883   6.193  0.1491  0.1169 -0.2653
 1124YOPC   PO414622  12.485   2.328   6.038 -0.0172  0.2110  0.3308
 1124YOPC   GL114623  12.126   2.376   6.252 -0.0212  0.0266 -0.0528
 1124YOPC   GL214624  12.306   2.433   6.533 -0.0215 -0.3001  0.0202
 1124YOPC   C1A14625  11.843   2.396   6.536  0.1300  0.2434  0.0345
 1124YOPC   D2A14626  11.523   2.451   6.980  0.1078  0.1799  0.0708
 1124YOPC   C3A14627  11.486   2.257   7.437  0.1502 -0.0942  0.0183
 1124YOPC   C4A14628  11.390   2.242   7.852  0.0792 -0.0998  0.0447
 1124YOPC   C1B14629  12.407   2.488   6.924  0.1156  0.0956  0.0876
 1124YOPC   C2B14630  12.383   2.349   7.331  0.2716 -0.1781  0.1378
 1124YOPC   D3B14631  12.798   2.213   7.404  0.0652 -0.2763 -0.0344
 1124YOPC   C4B14632  13.202   2.354   7.156  0.1123 -0.1417 -0.1209
 1125YOPC   NC314633   7.643   4.386   5.396 -0.0110 -0.1069 -0.1043
 1125YOPC   PO414634   7.256   4.336   5.578  0.1597 -0.0848 -0.2069
 1125YOPC   GL114635   7.156   4.232   6.025 -0.2802 -0.2192  0.0445
 1125YOPC   GL214636   6.865   4.163   6.177 -0.2008 -0.1448 -0.0529
 1125YOPC   C1A14637   7.324   4.106   6.388 -0.0511 -0.1641  0.2013
 1125YOPC   D2A14638   7.300   3.761   6.625  0.2038 -0.1992 -0.0524
 1125YOPC   C3A14639   7.213   3.344   6.470 -0.1268  0.0189  0.3582
 1125YOPC   C4A14640   7.223   3.075   6.138  0.0292 -0.1240  0.0160
 1125YOPC   C1B14641   6.876   4.072   6.674  0.0727 -0.0504  0.3647
 1125YOPC   C2B14642   7.028   3.928   7.050  0.0160  0.0751  0.1446
 1125YOPC   D3B14643   6.762   3.710   7.265 -0.2463 -0.2050 -0.1767
 1125YOPC   C4B14644   6.428   3.514   7.438 -0.1754 -0.1772  0.4877
 1126YOPC   NC314645  16.470   8.162   6.143  0.0447  0.2967 -0.1932
 1126YOPC   PO414646  16.883   8.430   6.082 -0.0775 -0.3800 -0.1646
 1126YOPC   GL114647  16.827   8.250   6.513 -0.0830 -0.2537  0.1946
 1126YOPC   GL214648  17.021   7.974   6.587 -0.0891  0.0564  0.0716
 1126YOPC   C1A14649  16.522   7.877   6.739 -0.1389  0.1708  0.2515
 1126YOPC   D2A14650  16.545   7.784   7.090 -0.2219  0.1517  0.1862
 1126YOPC   C3A14651  16.808   7.522   7.275 -0.1433 -0.0981 -0.0354
 1126YOPC   C4A14652  17.185   7.430   7.336  0.2191 -0.1028 -0.1889
 1126YOPC   C1B14653  17.183   8.031   7.067 -0.2211 -0.1126  0.1225
 1126YOPC   C2B14654  17.220   8.021   7.535 -0.0733 -0.2294 -0.2873
 1126YOPC   D3B14655  17.189   7.696   7.750  0.2204 -0.0006 -0.2334
 1126YOPC   C4B14656  17.133   7.291   7.817 -0.1323 -0.0123 -0.1904
 1127YOPC   NC314657  16.037   4.923   5.637  0.0057 -0.0777  0.3789
 1127YOPC   PO414658  15.784   4.519   5.698  0.0989  0.1012 -0.1553
 1127YOPC   GL114659  15.881   4.746   6.042 -0.3600 -0.0281  0.0122
 1127YOPC   GL214660  15.627   4.525   6.329 -0.5606 -0.1206 -0.0083
 1127YOPC   C1A14661  16.067   4.756   6.469 -0.2565  0.0239 -0.1477
 1127YOPC   D2A14662  15.925   5.002   6.780  0.1949  0.2149  0.3558
 1127YOPC   C3A14663  15.986   4.740   7.179 -0.1614  0.0717 -0.1047
 1127YOPC   C4A14664  16.064   4.330   7.378 -0.0589 -0.1145 -0.1227
 1127YOPC   C1B14665  15.840   4.215   6.482 -0.0545  0.0293 -0.0448
 1127YOPC   C2B14666  15.678   3.814   6.748  0.0138 -0.0078  0.0088
 1127YOPC   D3B14667  15.641   3.875   7.127 -0.1457 -0.0285 -0.1145
 1127YOPC   C4B14668  15.688   4.018   7.610 -0.0562 -0.1204  0.1979
 1128YOPC   NC314669   1.198  15.836   6.478 -0.1067 -0.3010  0.0006
 1128YOPC   PO414670   1.447  16.217   6.614  0.1338  0.1272  0.1091
 1128YOPC   GL114671   1.632  16.448   6.972 -0.0700 -0.0247  0.1653
 1128YOPC   GL214672   1.984  16.455   6.898  0.0197 -0.2825 -0.3026
 1128YOPC   C1A14673   1.586  16.583   7.374  0.1553  0.0519 -0.0155
 1128YOPC   D2A14674   1.277  16.868   7.641 -0.0580 -0.0137 -0.2255
 1128YOPC   C3A14675   1.410  16.920   8.112  0.0084 -0.3326  0.3485
 1128YOPC   C4A14676   1.641  16.602   8.456 -0.1098  0.0749 -0.0127
 1128YOPC   C1B14677   2.179  16.591   7.335  0.1252 -0.0240 -0.2592
 1128YOPC   C2B14678   2.278  16.600   7.761  0.0378 -0.0376  0.0064
 1128YOPC   D3B14679   2.543  16.566   8.068  0.1573  0.1315  0.0466
 1128YOPC   C4B14680   2.507  16.645   8.535 -0.2315 -0.0782  0.1313
 1129YOPC   NC314681  14.620  14.485   5.915  0.6151  0.5071 -0.0121
 1129YOPC   PO414682  14.948  14.650   6.095  0.0287 -0.3537  0.0354
 1129YOPC   GL114683  14.930  14.460   6.505 -0.3495 -0.0044 -0.1049
 1129YOPC   GL214684  14.586  14.577   6.572  0.1080  0.0780  0.3342
 1129YOPC   C1A14685  14.919  14.578   6.955  0.1364  0.1129  0.2015
 1129YOPC   D2A14686  14.767  14.483   7.328  0.0914 -0.0328  0.2236
 1129YOPC   C3A14687  14.881  14.587   7.772  0.0002  0.0016  0.0727
 1129YOPC   C4A14688  15.065  14.720   8.116  0.2524  0.0167  0.0570
 1129YOPC   C1B14689  14.286  14.663   6.911  0.0814  0.1330  0.0684
 1129YOPC   C2B14690  14.083  14.681   7.303 -0.3263  0.1614  0.4411
 1129YOPC   D3B14691  14.282  14.775   7.690  0.0721  0.0124 -0.2157
 1129YOPC   C4B14692  14.432  14.592   8.053  0.0552 -0.2210 -0.1303
 1130YOPC   NC314693  13.842  14.949   6.009  0.0878  0.1925  0.1995
 1130YOPC   PO414694  13.683  15.415   5.971 -0.0335 -0.0165 -0.2119
 1130YOPC   GL114695  13.627  15.247   6.365 -0.1859 -0.1458  0.0194
 1130YOPC   GL214696  13.404  15.432   6.510  0.1000 -0.3601  0.3851
 1130YOPC   C1A14697  13.697  15.169   6.818 -0.0037  0.0387  0.1047
 1130YOPC   D2A14698  13.654  15.321   7.295  0.0534  0.0046  0.0036
 1130YOPC   C3A14699  13.862  15.209   7.696 -0.0617 -0.1875 -0.0463
 1130YOPC   C4A14700  13.991  15.047   8.072  0.0023 -0.0218 -0.0811
 1130YOPC   C1B14701  13.394  15.546   6.949 -0.3918  0.2043 -0.1021
 1130YOPC   C2B14702  13.507  15.811   7.296  0.0738  0.0970 -0.2800
 1130YOPC   D3B14703  13.436  15.542   7.684  0.0996 -0.0856 -0.0260
 1130YOPC   C4B14704  13.680  15.542   8.076 -0.0134  0.1750 -0.2126
 1131YOPC   NC314705  14.825  11.517   6.183 -0.1920  0.1430  0.1601
 1131YOPC   PO414706  14.404  11.704   6.117 -0.0979 -0.1724  0.1065
 1131YOPC   GL114707  14.286  11.638   6.532 -0.2193 -0.2175  0.0012
 1131YOPC   GL214708  14.068  11.368   6.653  0.3343 -0.0767 -0.1791
 1131YOPC   C1A14709  14.373  11.475   6.978  0.0560  0.2235 -0.2123
 1131YOPC   D2A14710  14.075  11.258   7.362  0.0784 -0.2428 -0.0791
 1131YOPC   C3A14711  13.908  11.392   7.726 -0.2458  0.1833  0.2691
 1131YOPC   C4A14712  13.568  11.535   8.014 -0.4305 -0.2794 -0.0939
 1131YOPC   C1B14713  13.754  11.319   6.927 -0.0045 -0.0263 -0.1088
 1131YOPC   C2B14714  13.648  11.037   7.207  0.1638  0.1053 -0.1796
 1131YOPC   D3B14715  13.642  10.982   7.656  0.0962  0.1586  0.3327
 1131YOPC   C4B14716  13.271  10.911   7.868  0.0326  0.0061 -0.2073
 1132YOPC   NC314717   6.450   6.783   5.584 -0.0112  0.1697  0.0203
 1132YOPC   PO414718   6.704   6.476   5.829  0.1975 -0.0426 -0.0763
 1132YOPC   GL114719   6.750   6.431   6.295  0.1238 -0.4867  0.1390
 1132YOPC   GL214720   6.715   6.752   6.383  0.1224  0.1997  0.2370
 1132YOPC   C1A14721   6.848   6.266   6.641  0.0905 -0.1191 -0.0127
 1132YOPC   D2A14722   6.885   6.107   7.083 -0.2121 -0.3573  0.0439
 1132YOPC   C3A14723   7.004   6.230   7.446  0.2368  0.0287  0.1343
 1132YOPC   C4A14724   7.174   6.292   7.810 -0.4527  0.1999 -0.0842
 1132YOPC   C1B14725   6.760   7.044   6.688 -0.2706  0.0952 -0.0467
 1132YOPC   C2B14726   6.679   7.111   7.164  0.0525  0.0806  0.4350
 1132YOPC   D3B14727   6.694   7.029   7.666 -0.0024  0.0471 -0.3684
 1132YOPC   C4B14728   6.457   7.280   7.967 -0.2315 -0.0670  0.1016
 1133YOPC   NC314729   4.959  16.202   6.372 -0.2696  0.0127  0.0552
 1133YOPC   PO414730   4.693  15.772   6.355 -0.1861 -0.2320  0.2153
 1133YOPC   GL114731   5.002  15.548   6.699 -0.0084 -0.1011  0.2050
 1133YOPC   GL214732   4.778  15.427   6.829  0.1591 -0.1105  0.1372
 1133YOPC   C1A14733   5.220  15.181   6.934  0.1166  0.1745  0.0417
 1133YOPC   D2A14734   5.418  14.946   7.282 -0.0860  0.1156  0.0276
 1133YOPC   C3A14735   5.129  15.019   7.573  0.2899  0.3853 -0.3746
 1133YOPC   C4A14736   4.826  14.828   7.857 -0.1317 -0.1590 -0.2403
 1133YOPC   C1B14737   4.772  15.168   7.262  0.3260  0.2441 -0.0523
 1133YOPC   C2B14738   4.499  15.137   7.622  0.0249  0.0739  0.1872
 1133YOPC   D3B14739   4.295  15.272   7.946  0.0622 -0.0447  0.0091
 1133YOPC   C4B14740   4.222  15.246   8.431 -0.2965  0.0173  0.1825
 1134YOPC   NC314741   2.778  12.121   5.587  0.0970  0.3672 -0.3033
 1134YOPC   PO414742   2.515  12.419   5.791  0.1069  0.1856 -0.0500
 1134YOPC   GL114743   2.483  12.475   6.165  0.0657  0.1130  0.1075
 1134YOPC   GL214744   2.386  12.788   6.291 -0.0287 -0.4465 -0.1601
 1134YOPC   C1A14745   2.652  12.474   6.576 -0.0633 -0.0348  0.2589
 1134YOPC   D2A14746   2.714  12.566   7.002  0.0810 -0.0515 -0.0618
 1134YOPC   C3A14747   2.551  12.335   7.251  0.2303 -0.0559  0.1886
 1134YOPC   C4A14748   2.347  12.281   7.812  0.2781 -0.1519 -0.2410
 1134YOPC   C1B14749   2.043  12.568   6.482  0.1147  0.0348 -0.2638
 1134YOPC   C2B14750   2.107  12.044   6.447 -0.0567 -0.1414 -0.1677
 1134YOPC   D3B14751   2.539  11.914   6.391 -0.1989  0.0603  0.2430
 1134YOPC   C4B14752   2.963  11.839   6.438  0.1627  0.3140  0.1127
 1135YOPC   NC314753  16.011   0.524   5.846  0.1674 -0.3487 -0.0730
 1135YOPC   PO414754  16.065   0.302   6.318 -0.1979 -0.1054 -0.0279
 1135YOPC   GL114755  16.056   0.258   6.817 -0.3577 -0.1278  0.1716
 1135YOPC   GL214756  15.851   0.065   6.935 -0.2971  0.1226  0.1497
 1135YOPC   C1A14757  15.988   0.432   7.285 -0.1249  0.1183  0.1446
 1135YOPC   D2A14758  15.776   0.803   7.594  0.0383 -0.0582  0.3196
 1135YOPC   C3A14759  15.833   0.808   7.996 -0.1268  0.2392 -0.1094
 1135YOPC   C4A14760  15.753   0.520   8.313  0.2587 -0.1690 -0.1565
 1135YOPC   C1B14761  16.191   0.004   7.240  0.1613 -0.2179 -0.0513
 1135YOPC   C2B14762  16.480  -0.337   7.255  0.4162 -0.0737 -0.1386
 1135YOPC   D3B14763  16.413  -0.854   7.259  0.0779 -0.1906 -0.0684
 1135YOPC   C4B14764  16.302  -1.187   7.448 -0.1272  0.0416  0.0936
 1136YOPC   NC314765  17.332   9.125   6.417 -0.2411  0.1683 -0.3991
 1136YOPC   PO414766  16.847   9.242   6.341 -0.1235  0.1999 -0.2016
 1136YOPC   GL114767  16.816   9.377   6.659  0.1295 -0.0317  0.1026
 1136YOPC   GL214768  16.904   9.674   6.912  0.1671  0.1008 -0.0400
 1136YOPC   C1A14769  16.785   9.246   7.131  0.0339  0.2987 -0.0629
 1136YOPC   D2A14770  16.508   9.125   7.475  0.0678  0.1464 -0.0340
 1136YOPC   C3A14771  16.154   9.322   7.611 -0.1945  0.2639  0.1103
 1136YOPC   C4A14772  15.948   9.568   7.907  0.1007  0.0583 -0.1002
 1136YOPC   C1B14773  16.963   9.684   7.307  0.0400 -0.3285 -0.0523
 1136YOPC   C2B14774  16.918   9.287   7.600  0.0066 -0.0033 -0.3474
 1136YOPC   D3B14775  17.030   9.287   8.021 -0.2321 -0.0565 -0.1079
 1136YOPC   C4B14776  16.794   9.098   8.359 -0.2331  0.0427 -0.0184
 1137YOPC   NC314777   9.316  16.093   5.956  0.1017  0.1858 -0.0458
 1137YOPC   PO414778   9.354  15.652   5.954 -0.3041  0.0166 -0.0170
 1137YOPC   GL114779   9.262  15.714   6.330 -0.1886 -0.1636 -0.3017
 1137YOPC   GL214780   9.359  15.445   6.440 -0.0629  0.2411  0.0796
 1137YOPC   C1A14781   9.107  15.831   6.739 -0.0466 -0.0868 -0.2166
 1137YOPC   D2A14782   9.041  16.155   7.115 -0.0085  0.1021 -0.0639
 1137YOPC   C3A14783   9.327  16.040   7.437 -0.0561  0.0140  0.1058
 1137YOPC   C4A14784   9.714  16.131   7.491  0.1334 -0.0211 -0.0441
 1137YOPC   C1B14785   9.478  15.439   6.815  0.1787  0.1804 -0.2140
 1137YOPC   C2B14786   9.264  15.560   7.202 -0.0186  0.2506 -0.0085
 1137YOPC   D3B14787   9.220  15.571   7.596  0.3389  0.0835 -0.1001
 1137YOPC   C4B14788   9.140  15.290   7.857  0.1972 -0.3480  0.1362
 1138YOPC   NC314789  15.665   1.888   5.721 -0.0932  0.2050  0.0500
 1138YOPC   PO414790  16.118   1.721   5.772 -0.0538  0.0792 -0.1271
 1138YOPC   GL114791  16.012   2.164   5.920 -0.2198  0.3236  0.0135
 1138YOPC   GL214792  15.931   2.064   6.313  0.2505  0.0109 -0.1153
 1138YOPC   C1A14793  16.311   2.641   6.039 -0.1012 -0.1638 -0.2666
 1138YOPC   D2A14794  16.643   2.988   6.017 -0.1454 -0.3110 -0.2362
 1138YOPC   C3A14795  16.632   3.285   6.363 -0.1132 -0.1235  0.1596
 1138YOPC   C4A14796  16.601   3.639   6.737  0.0838  0.2951  0.0250
 1138YOPC   C1B14797  15.760   1.746   6.567  0.2732 -0.0271  0.1505
 1138YOPC   C2B14798  15.817   1.766   7.056  0.2845 -0.0193  0.0683
 1138YOPC   D3B14799  15.658   2.093   7.218 -0.5081  0.0410  0.2275
 1138YOPC   C4B14800  15.464   2.323   7.413  0.2827 -0.0648 -0.0777
 1139YOPC   NC314801  12.292  13.409   6.115 -0.0142  0.4823  0.0939
 1139YOPC   PO414802  12.157  13.846   5.919  0.1538 -0.3027 -0.2305
 1139YOPC   GL114803  12.142  14.029   6.267 -0.1580 -0.0928  0.0636
 1139YOPC   GL214804  11.831  13.990   6.310  0.3570  0.1428  0.0883
 1139YOPC   C1A14805  12.122  13.910   6.696 -0.3115 -0.1535  0.2265
 1139YOPC   D2A14806  12.256  13.723   7.072  0.1778  0.1051  0.2511
 1139YOPC   C3A14807  12.250  13.963   7.470 -0.2087 -0.1181 -0.2524
 1139YOPC   C4A14808  12.079  14.067   7.890 -0.3413  0.1600  0.1414
 1139YOPC   C1B14809  11.656  13.778   6.660 -0.0272 -0.0177 -0.0287
 1139YOPC   C2B14810  11.742  13.747   7.096 -0.1734  0.4240 -0.1179
 1139YOPC   D3B14811  11.612  13.917   7.466 -0.0281 -0.0922  0.2554
 1139YOPC   C4B14812  11.316  14.161   7.451 -0.1940 -0.0583 -0.0852
 1140YOPC   NC314813  16.719  12.407   6.167 -0.0937 -0.3140  0.2900
 1140YOPC   PO414814  16.253  12.540   6.257 -0.1249 -0.1926  0.0762
 1140YOPC   GL114815  16.089  12.521   6.697 -0.0792 -0.0255 -0.1698
 1140YOPC   GL214816  15.972  12.811   6.878 -0.3069 -0.1866 -0.0145
 1140YOPC   C1A14817  16.192  12.463   7.107 -0.1589  0.2366  0.2979
 1140YOPC   D2A14818  16.271  12.524   7.551  0.1700  0.0267  0.2003
 1140YOPC   C3A14819  16.346  12.308   7.867 -0.3271  0.0560 -0.1096
 1140YOPC   C4A14820  16.773  12.121   8.089  0.0490  0.0650  0.3856
 1140YOPC   C1B14821  15.889  12.893   7.309  0.3275 -0.1813  0.2751
 1140YOPC   C2B14822  16.022  13.010   7.648  0.3222 -0.0098  0.0779
 1140YOPC   D3B14823  15.900  12.714   7.951 -0.1036  0.1552  0.1130
 1140YOPC   C4B14824  15.528  12.934   8.287  0.2134  0.3357 -0.0218
 1141YOPC   NC314825   3.521   1.783   6.359 -0.2998  0.1687  0.0374
 1141YOPC   PO414826   3.463   1.234   6.337 -0.0427  0.0588  0.0622
 1141YOPC   GL114827   3.635   0.979   6.698 -0.1595  0.0777  0.2327
 1141YOPC   GL214828   3.670   0.645   6.614 -0.0579  0.2297  0.0302
 1141YOPC   C1A14829   3.780   0.940   7.148 -0.1022  0.1758  0.2073
 1141YOPC   D2A14830   4.015   1.133   7.355 -0.2153  0.0510 -0.0689
 1141YOPC   C3A14831   4.143   1.420   7.068  0.4351  0.0674 -0.1043
 1141YOPC   C4A14832   4.304   1.781   7.269  0.3569  0.2386 -0.1096
 1141YOPC   C1B14833   3.428   0.635   6.976  0.0549  0.0303  0.0975
 1141YOPC   C2B14834   3.475   0.578   7.341 -0.1628  0.4463 -0.4203
 1141YOPC   D3B14835   3.681   0.764   7.600  0.0002  0.0229  0.2006
 1141YOPC   C4B14836   3.799   1.136   7.813 -0.0751 -0.1750 -0.0006
 1142YOPC   NC314837   3.651  11.596   5.527 -0.1247 -0.0014 -0.0671
 1142YOPC   PO414838   3.758  11.923   5.781 -0.0930 -0.1030  0.3548
 1142YOPC   GL114839   3.761  11.945   6.204  0.2288 -0.3236 -0.2736
 1142YOPC   GL214840   3.782  12.311   6.370  0.2548  0.1228  0.2425
 1142YOPC   C1A14841   3.937  11.935   6.665  0.2478 -0.2063 -0.0284
 1142YOPC   D2A14842   4.320  11.822   6.847 -0.0031 -0.1386  0.3558
 1142YOPC   C3A14843   4.577  12.041   7.109  0.1712  0.0856 -0.2855
 1142YOPC   C4A14844   4.952  11.854   7.049 -0.1664  0.2421  0.1152
 1142YOPC   C1B14845   3.722  12.449   6.815  0.2858 -0.1626  0.0808
 1142YOPC   C2B14846   3.624  12.415   7.259  0.0309  0.0936  0.0634
 1142YOPC   D3B14847   3.867  12.074   7.598  0.0652  0.0757  0.2274
 1142YOPC   C4B14848   3.948  12.127   8.009 -0.2527  0.0594 -0.4489
 1143YOPC   NC314849  13.078  14.340   6.065  0.1189  0.0518 -0.0256
 1143YOPC   PO414850  13.613  14.354   5.995  0.0569  0.1741 -0.0152
 1143YOPC   GL114851  13.503  14.319   6.463 -0.3018  0.2454  0.3037
 1143YOPC   GL214852  13.698  14.116   6.664  0.0348  0.0344 -0.4960
 1143YOPC   C1A14853  13.319  14.456   6.819  0.0242  0.1866 -0.3010
 1143YOPC   D2A14854  13.283  14.353   7.248  0.1452  0.1990 -0.2799
 1143YOPC   C3A14855  13.042  14.587   7.552 -0.0730  0.0463 -0.1460
 1143YOPC   C4A14856  12.780  14.940   7.809 -0.0997  0.2355  0.1606
 1143YOPC   C1B14857  13.740  14.180   7.110  0.1383 -0.2218  0.1433
 1143YOPC   C2B14858  13.820  14.256   7.487  0.3257 -0.2123 -0.2809
 1143YOPC   D3B14859  13.978  14.379   7.930 -0.0268  0.2980 -0.1511
 1143YOPC   C4B14860  14.066  14.516   8.386  0.1435  0.0912  0.0374
 1144ERGO   ROH14861   1.012   0.195  10.770 -0.0713 -0.1201  0.0552
 1144ERGO    R114862   1.133   0.278  10.528 -0.0991 -0.0682  0.0582
 1144ERGO    R214863   1.371   0.170  10.436 -0.0527  0.0243  0.0584
 1144ERGO    R314864   1.225   0.123  10.212 -0.0346 -0.0289  0.0583
 1144ERGO    R414865   1.502   0.079  10.129 -0.0292  0.0155  0.0715
 1144ERGO    R514866   1.358   0.211  10.034 -0.0489 -0.0251  0.0528
 1144ERGO    C114867   1.441  -0.017   9.740  0.0015 -0.0395  0.0792
 1144ERGO    C214868   1.433  -0.138   9.391  0.0717  0.0140  0.0180
 1145ERGO   ROH14869   9.664  10.164   6.723  0.0385  0.1626 -0.0142
 1145ERGO    R114870   9.686  10.282   6.979  0.0401  0.1823 -0.0260
 1145ERGO    R214871   9.542  10.507   7.052 -0.1352  0.0406  0.0311
 1145ERGO    R314872   9.463  10.349   7.259  0.1016 -0.0247  0.0790
 1145ERGO    R414873   9.525  10.609   7.382 -0.4599  0.1966 -0.0280
 1145ERGO    R514874   9.605  10.415   7.441 -0.0796  0.3687  0.1025
 1145ERGO    C114875   9.441  10.521   7.768 -0.4266  0.2261 -0.0174
 1145ERGO    C214876   9.509  10.409   8.113  0.2314 -0.0357 -0.0668
 1146ERGO   ROH14877   7.332   6.467   6.448  0.0726 -0.1924  0.0196
 1146ERGO    R114878   7.314   6.602   6.696 -0.0876 -0.0700 -0.0572
 1146ERGO    R214879   7.075   6.693   6.799 -0.1874 -0.2447 -0.1391
 1146ERGO    R314880   7.150   6.547   7.016 -0.0719 -0.0500 -0.0446
 1146ERGO    R414881   7.047   6.798   7.127 -0.3271 -0.0751 -0.2031
 1146ERGO    R514882   7.242   6.709   7.167 -0.2417  0.1310 -0.1269
 1146ERGO    C114883   7.101   6.722   7.522 -0.3000  0.2065 -0.1517
 1146ERGO    C214884   7.187   6.809   7.897 -0.1228  0.3943 -0.0304
 1147ERGO   ROH14885  11.746  14.928   9.920  0.0199  0.1336 -0.0127
 1147ERGO    R114886  11.681  14.940   9.645  0.0429  0.0360 -0.0227
 1147ERGO    R214887  11.846  15.058   9.458 -0.0071  0.0952 -0.0284
 1147ERGO    R314888  11.824  14.817   9.334  0.1508  0.0551  0.0186
 1147ERGO    R414889  11.903  15.003   9.121 -0.1130  0.0997 -0.0473
 1147ERGO    R514890  11.731  14.869   9.119  0.0031 -0.0568  0.0527
 1147ERGO    C114891  11.915  14.745   8.809 -0.0266  0.0645 -0.0143
 1147ERGO    C214892  11.983  14.812   8.558 -0.4239 -0.1396  0.1018
 1148ERGO   ROH14893   9.986   1.754   6.107  0.1573  0.0383 -0.0788
 1148ERGO    R114894  10.096   1.769   6.367  0.0085  0.1491 -0.0228
 1148ERGO    R214895  10.021   1.964   6.549 -0.4012 -0.0227 -0.0063
 1148ERGO    R314896   9.971   1.749   6.708 -0.1233 -0.1519 -0.0837
 1148ERGO    R414897   9.975   1.979   6.891 -0.4425 -0.1945 -0.0024
 1148ERGO    R514898  10.092   1.796   6.910 -0.1911 -0.0520 -0.0597
 1148ERGO    C114899   9.901   1.786   7.240 -0.2056 -0.4157 -0.0727
 1148ERGO    C214900   9.901   1.724   7.614  0.2999 -0.0943  0.2180
 1149ERGO   ROH14901   4.710  12.664   9.865 -0.1056 -0.0939 -0.0779
 1149ERGO    R114902   4.819  12.718   9.610 -0.1113 -0.1688 -0.0968
 1149ERGO    R214903   4.716  12.608   9.378 -0.2540 -0.0657 -0.0854
 1149ERGO    R314904   4.703  12.868   9.299 -0.0485 -0.0471 -0.0611
 1149ERGO    R414905   4.633  12.713   9.060 -0.4006  0.0371 -0.0142
 1149ERGO    R514906   4.788  12.866   9.075 -0.2292 -0.1241 -0.1293
 1149ERGO    C114907   4.572  13.018   8.800 -0.2931  0.1146  0.0502
 1149ERGO    C214908   4.478  13.106   8.420 -0.1847  0.4574  0.1297
 1150ERGO   ROH14909  13.432   2.863  10.058 -0.0051 -0.1155  0.1213
 1150ERGO    R114910  13.407   3.029   9.830  0.0082 -0.1612  0.0874
 1150ERGO    R214911  13.617   3.079   9.658 -0.0206 -0.3105  0.0131
 1150ERGO    R314912  13.442   2.991   9.470 -0.1209 -0.2693  0.0844
 1150ERGO    R414913  13.535   3.250   9.370 -0.0649 -0.3054  0.0277
 1150ERGO    R514914  13.328   3.189   9.398 -0.0797 -0.2328  0.1098
 1150ERGO    C114915  13.323   3.267   9.025 -0.1849 -0.2638  0.1030
 1150ERGO    C214916  13.325   3.393   8.714  0.0803  0.0894  0.1544
 1151ERGO   ROH14917  10.681   0.713   6.325  0.0402 -0.1655  0.1288
 1151ERGO    R114918  10.626   0.908   6.523  0.2152 -0.0515  0.0660
 1151ERGO    R214919  10.434   0.872   6.718  0.1059  0.2280  0.0072
 1151ERGO    R314920  10.640   0.929   6.886  0.1195  0.0141  0.0685
 1151ERGO    R414921  10.402   0.943   7.055  0.0805  0.1511  0.0221
 1151ERGO    R514922  10.554   1.097   7.032  0.2140  0.0436  0.0996
 1151ERGO    C114923  10.577   1.038   7.408  0.0786 -0.0946  0.0884
 1151ERGO    C214924  10.656   1.217   7.773 -0.1253 -0.1086 -0.2184
 1152ERGO   ROH14925   3.687  14.619  10.655 -0.1245 -0.0248  0.1417
 1152ERGO    R114926   3.703  14.763  10.411 -0.1019 -0.0118  0.1507
 1152ERGO    R214927   3.905  14.723  10.228 -0.0366  0.0588  0.2057
 1152ERGO    R314928   3.698  14.684  10.056  0.0238 -0.0022  0.1464
 1152ERGO    R414929   3.917  14.785   9.888 -0.0630  0.3973  0.2635
 1152ERGO    R514930   3.714  14.866   9.901 -0.1546  0.1670  0.3214
 1152ERGO    C114931   3.729  14.785   9.529 -0.0216  0.5370  0.2414
 1152ERGO    C214932   3.793  14.938   9.186 -0.0151  0.0165  0.0967
 1153ERGO   ROH14933  10.816  10.081   6.547 -0.4439  0.0685  0.0987
 1153ERGO    R114934  10.900  10.119   6.814 -0.2508 -0.0234  0.0539
 1153ERGO    R214935  10.746  10.250   7.002  0.0040  0.1730  0.1407
 1153ERGO    R314936  10.783  10.022   7.145 -0.1921  0.1268  0.1175
 1153ERGO    R414937  10.655  10.208   7.333 -0.0608  0.1963  0.1248
 1153ERGO    R514938  10.841  10.098   7.365 -0.1552  0.0473  0.1307
 1153ERGO    C114939  10.637   9.969   7.660 -0.2827  0.1665  0.0939
 1153ERGO    C214940  10.630   9.765   7.988 -0.3466 -0.1492 -0.2237
 1154ERGO   ROH14941   9.381   2.749   6.253 -0.1471 -0.0258  0.1592
 1154ERGO    R114942   9.374   2.811   6.529 -0.0514 -0.0270  0.1629
 1154ERGO    R214943   9.142   2.798   6.678  0.0014 -0.0434  0.2489
 1154ERGO    R314944   9.292   2.636   6.837  0.0717 -0.0346  0.1909
 1154ERGO    R414945   9.040   2.668   6.982  0.1220 -0.0687  0.2785
 1154ERGO    R514946   9.240   2.706   7.060  0.1425 -0.0523  0.2111
 1154ERGO    C114947   9.122   2.442   7.308  0.2582 -0.0752  0.2412
 1154ERGO    C214948   8.933   2.302   7.641  0.0999 -0.0977 -0.0628
 1155ERGO   ROH14949   3.694  16.153   8.321  0.0451  0.0133  0.0633
 1155ERGO    R114950   3.906  16.233   8.151  0.0293 -0.1536 -0.0359
 1155ERGO    R214951   4.099  16.415   8.230  0.0487 -0.0986 -0.2230
 1155ERGO    R314952   4.270  16.217   8.157  0.0302 -0.1743 -0.0698
 1155ERGO    R414953   4.443  16.428   8.263  0.0461 -0.1236 -0.1753
 1155ERGO    R514954   4.460  16.331   8.068  0.0620 -0.2541 -0.1161
 1155ERGO    C114955   4.803  16.249   8.213  0.0273 -0.2092 -0.0036
 1155ERGO    C214956   4.963  16.041   8.239  0.1415 -0.0693  0.0408
 1156ERGO   ROH14957  14.971   1.021  10.106  0.0939  0.0167 -0.0255
 1156ERGO    R114958  15.169   1.048   9.906  0.1213  0.3789  0.0461
 1156ERGO    R214959  15.160   0.908   9.668  0.6038  0.1405  0.1674
 1156ERGO    R314960  15.181   1.155   9.558 -0.0110  0.1161 -0.0446
 1156ERGO    R414961  15.270   0.972   9.347  0.7741  0.1350  0.2220
 1156ERGO    R514962  15.379   1.145   9.425  0.1931  0.5580  0.1891
 1156ERGO    C114963  15.354   1.242   9.056  0.2961  0.1089  0.0547
 1156ERGO    C214964  15.344   1.235   8.707 -0.0945  0.1038 -0.2344
 1157ERGO   ROH14965   3.205   7.307   9.886  0.1165  0.1196  0.0072
 1157ERGO    R114966   3.280   7.312   9.613 -0.0318  0.1361 -0.0350
 1157ERGO    R214967   3.404   7.099   9.489  0.1613  0.2451 -0.0433
 1157ERGO    R314968   3.198   7.122   9.313  0.0333 -0.0458  0.0629
 1157ERGO    R414969   3.430   7.051   9.148  0.0934  0.4874 -0.0833
 1157ERGO    R514970   3.297   7.222   9.119 -0.2453  0.2532  0.0715
 1157ERGO    C114971   3.252   7.046   8.784 -0.0663  0.3554 -0.0069
 1157ERGO    C214972   3.147   7.138   8.487  0.0749 -0.1281 -0.0111
 1158ERGO   ROH14973   2.816   3.246  10.186  0.2343  0.3714  0.1550
 1158ERGO    R114974   2.736   3.247   9.915  0.0778  0.2745  0.1984
 1158ERGO    R214975   2.719   3.480   9.766  0.1195  0.2104  0.0865
 1158ERGO    R314976   2.883   3.345   9.597 -0.0500  0.0311  0.0627
 1158ERGO    R414977   2.651   3.417   9.433 -0.1070  0.0497  0.1607
 1158ERGO    R514978   2.735   3.218   9.458 -0.1932  0.0251  0.2232
 1158ERGO    C114979   2.766   3.254   9.080 -0.3979 -0.2121  0.1816
 1158ERGO    C214980   2.653   3.301   8.782  0.1645  0.0697  0.0736
 1159ERGO   ROH14981   0.924   6.937   6.615  0.1965  0.0477 -0.0779
 1159ERGO    R114982   0.813   6.921   6.875  0.0270 -0.0388 -0.1537
 1159ERGO    R214983   0.941   6.792   7.084 -0.1011 -0.0925 -0.1100
 1159ERGO    R314984   0.907   7.031   7.209 -0.1992 -0.1336 -0.0562
 1159ERGO    R414985   1.030   6.857   7.411  0.0733 -0.0728 -0.1600
 1159ERGO    R514986   0.846   6.972   7.433 -0.0035 -0.2142 -0.0200
 1159ERGO    C114987   1.050   7.120   7.720  0.0828 -0.0998 -0.1386
 1159ERGO    C214988   1.128   7.262   7.855 -0.1424 -0.0603  0.2365
 1160ERGO   ROH14989  17.167  10.149   6.719 -0.1877  0.3415 -0.0873
 1160ERGO    R114990  17.232  10.057   6.979 -0.2253  0.1377 -0.1478
 1160ERGO    R214991  17.345  10.222   7.171 -0.0054 -0.0786 -0.0874
 1160ERGO    R314992  17.134  10.138   7.320 -0.0631  0.0697 -0.0835
 1160ERGO    R414993  17.268  10.337   7.487  0.0566  0.0095 -0.1040
 1160ERGO    R514994  17.217  10.133   7.544 -0.0715  0.0462 -0.0799
 1160ERGO    C114995  17.025  10.326   7.811  0.0388  0.1999 -0.1099
 1160ERGO    C214996  17.021  10.573   8.003 -0.1248  0.1345  0.0311
 1161ERGO   ROH14997  11.245   4.289   9.805 -0.0967 -0.0182 -0.1310
 1161ERGO    R114998  11.157   4.394   9.557  0.0677  0.0557 -0.1595
 1161ERGO    R214999  11.333   4.483   9.363  0.2059 -0.1277 -0.1217
 1161ERGO    R315000  11.196   4.308   9.206  0.0710 -0.0031 -0.1450
 1161ERGO    R415001  11.296   4.512   9.021  0.2129 -0.0415 -0.1151
 1161ERGO    R515002  11.089   4.446   9.042  0.1638  0.1045 -0.1173
 1161ERGO    C115003  11.146   4.365   8.674  0.0904  0.1256 -0.1332
 1161ERGO    C215004  11.206   4.302   8.280  0.1089 -0.1655  0.0197
 1162ERGO   ROH15005   7.785   7.469   6.727  0.3470 -0.2105  0.0355
 1162ERGO    R115006   7.634   7.482   6.966  0.2359 -0.2860 -0.0285
 1162ERGO    R215007   7.724   7.378   7.205  0.2108 -0.1927  0.0292
 1162ERGO    R315008   7.673   7.629   7.296 -0.0028 -0.2135 -0.0323
 1162ERGO    R415009   7.721   7.470   7.538  0.2148 -0.0870 -0.0010
 1162ERGO    R515010   7.547   7.595   7.497  0.0878 -0.2676  0.0108
 1162ERGO    C115011   7.671   7.760   7.817  0.0164 -0.0448 -0.0762
 1162ERGO    C215012   7.827   7.772   8.173  0.0257 -0.2206 -0.0350
 1163ERGO   ROH15013  15.423  17.765   6.977  0.1662 -0.1040 -0.1760
 1163ERGO    R115014  15.448  17.818   7.254  0.0257 -0.0143 -0.1794
 1163ERGO    R215015  15.683  17.773   7.394 -0.0741 -0.0635 -0.0255
 1163ERGO    R315016  15.653  18.034   7.464 -0.0062 -0.0238 -0.1383
 1163ERGO    R415017  15.896  17.949   7.602 -0.0862 -0.0562 -0.0187
 1163ERGO    R515018  15.722  18.043   7.693 -0.0847  0.0416 -0.1169
 1163ERGO    C115019  15.990  18.296   7.790 -0.0294 -0.0148 -0.1206
 1163ERGO    C215020  16.231  18.505   7.728  0.1268 -0.0966 -0.1052
 1164ERGO   ROH15021  14.564   3.420   9.968  0.2644  0.0154 -0.0399
 1164ERGO    R115022  14.463   3.544   9.735  0.3253  0.1918  0.0257
 1164ERGO    R215023  14.625   3.677   9.555  0.4685 -0.1942 -0.1393
 1164ERGO    R315024  14.510   3.508   9.376 -0.0625  0.0118 -0.0131
 1164ERGO    R415025  14.559   3.754   9.225  0.4605 -0.1446 -0.1266
 1164ERGO    R515026  14.369   3.649   9.243  0.1966  0.3219  0.0251
 1164ERGO    C115027  14.412   3.641   8.864 -0.0426  0.0776 -0.0008
 1164ERGO    C215028  14.249   3.505   8.489 -0.1768 -0.0972 -0.0740
 1165ERGO   ROH15029  11.769   0.442   6.322 -0.0133 -0.0155  0.0164
 1165ERGO    R115030  11.663   0.335   6.561  0.0076  0.0786  0.0679
 1165ERGO    R215031  11.563   0.494   6.764 -0.2136  0.1522 -0.0968
 1165ERGO    R315032  11.342   0.338   6.733 -0.0572 -0.0865 -0.0466
 1165ERGO    R415033  11.358   0.388   7.022 -0.3117  0.3384 -0.0964
 1165ERGO    R515034  11.344   0.194   6.924 -0.0691  0.1815  0.1633
 1165ERGO    C115035  11.031   0.181   7.142 -0.2221  0.2227 -0.0490
 1165ERGO    C215036  10.964   0.138   7.430 -0.1668 -0.2776  0.1989
 1166ERGO   ROH15037  13.771   8.113  10.122 -0.1411 -0.0031 -0.1075
 1166ERGO    R115038  13.849   8.237   9.880  0.1686 -0.0819 -0.0533
 1166ERGO    R215039  14.036   8.126   9.709 -0.0180 -0.4209 -0.0539
 1166ERGO    R315040  13.838   8.156   9.526  0.0683  0.0501 -0.0792
 1166ERGO    R415041  14.079   8.107   9.367  0.0098 -0.2843 -0.0572
 1166ERGO    R515042  13.941   8.275   9.345  0.3140 -0.0220  0.0156
 1166ERGO    C115043  13.918   8.125   8.995  0.1068  0.2372 -0.0830
 1166ERGO    C215044  14.000   8.090   8.671 -0.0149 -0.2205  0.0127
 1167ERGO   ROH15045  17.874   1.175  10.436  0.0044 -0.0168  0.0234
 1167ERGO    R115046  18.071   1.202  10.236 -0.1165 -0.0829 -0.1052
 1167ERGO    R215047  18.055   1.072   9.992 -0.4164  0.0753 -0.1705
 1167ERGO    R315048  18.085   1.323   9.892 -0.2545  0.1077 -0.0466
 1167ERGO    R415049  18.245   1.153   9.715 -0.5081  0.0515 -0.2414
 1167ERGO    R515050  18.313   1.331   9.820 -0.2837 -0.0614 -0.1775
 1167ERGO    C115051  18.384   1.435   9.460 -0.4095  0.0681 -0.1663
 1167ERGO    C215052  18.306   1.552   9.068  0.1612  0.0963  0.0057
 1168ERGO   ROH15053   5.859   3.621   9.725 -0.0251  0.1411  0.1497
 1168ERGO    R115054   5.698   3.707   9.509  0.0164 -0.0188  0.0569
 1168ERGO    R215055   5.774   3.911   9.338  0.0170 -0.1109 -0.0324
 1168ERGO    R315056   5.729   3.724   9.147  0.1015 -0.2209  0.0496
 1168ERGO    R415057   5.681   3.980   9.013  0.0685 -0.2699 -0.0844
 1168ERGO    R515058   5.544   3.811   9.021  0.0973 -0.3099 -0.0280
 1168ERGO    C115059   5.584   3.845   8.643  0.1778 -0.4657 -0.0375
 1168ERGO    C215060   5.411   3.925   8.349  0.1247  0.0575  0.1234
 1169ERGO   ROH15061   5.183  16.079   6.870 -0.1788  0.0262  0.0425
 1169ERGO    R115062   5.137  15.954   7.119 -0.0542  0.0101  0.0590
 1169ERGO    R215063   5.115  15.679   7.146 -0.0049  0.0023  0.0593
 1169ERGO    R315064   5.311  15.715   7.331  0.0718  0.0264 -0.0271
 1169ERGO    R415065   5.226  15.436   7.365  0.0195  0.0654  0.1164
 1169ERGO    R515066   5.238  15.588   7.521  0.1148  0.1215  0.0501
 1169ERGO    C115067   5.475  15.327   7.666  0.1057  0.1249  0.0686
 1169ERGO    C215068   5.585  15.140   8.018  0.1335  0.0373 -0.0444
 1170ERGO   ROH15069   3.229  13.803   6.627 -0.0058 -0.0419  0.0072
 1170ERGO    R115070   3.149  13.613   6.820  0.0435 -0.0322  0.0359
 1170ERGO    R215071   3.328  13.451   6.954  0.0755 -0.0206 -0.0020
 1170ERGO    R315072   3.208  13.555   7.175  0.1281 -0.0159  0.0259
 1170ERGO    R415073   3.368  13.331   7.275  0.3206  0.1065  0.0183
 1170ERGO    R515074   3.155  13.364   7.309  0.3125 -0.0086  0.1184
 1170ERGO    C115075   3.279  13.358   7.670  0.5127  0.1848  0.0563
 1170ERGO    C215076   3.497  13.312   7.956  0.3060  0.3519 -0.2651
 1171ERGO   ROH15077  13.047   4.835   9.960  0.0655 -0.0680  0.1444
 1171ERGO    R115078  13.137   4.729   9.713 -0.1102 -0.1099  0.0973
 1171ERGO    R215079  12.974   4.715   9.490 -0.2002  0.0734  0.1454
 1171ERGO    R315080  13.178   4.851   9.373 -0.1118 -0.0887  0.1063
 1171ERGO    R415081  13.023   4.744   9.149 -0.3447  0.2044  0.1344
 1171ERGO    R515082  13.237   4.720   9.182 -0.3561 -0.0484  0.0045
 1171ERGO    C115083  13.243   4.890   8.841 -0.3459  0.1285  0.0912
 1171ERGO    C215084  13.280   4.837   8.548  0.4550  0.0272  0.1302
 1172ERGO   ROH15085  14.007   5.196   6.693  0.2914  0.1891  0.1327
 1172ERGO    R115086  13.866   5.143   6.932  0.2511 -0.0295  0.0630
 1172ERGO    R215087  13.989   5.133   7.179  0.1680  0.0162  0.1076
 1172ERGO    R315088  13.801   5.318   7.245 -0.0438 -0.1919  0.0961
 1172ERGO    R415089  13.911   5.229   7.502  0.2447  0.1323  0.0921
 1172ERGO    R515090  13.701   5.232   7.445  0.1996 -0.1939  0.2212
 1172ERGO    C115091  13.688   5.458   7.752  0.0904  0.0047  0.0723
 1172ERGO    C215092  13.813   5.432   8.114  0.0061 -0.2082 -0.2706
 1173ERGO   ROH15093   9.925  15.557  10.079  0.1765  0.0573  0.0138
 1173ERGO    R115094   9.791  15.469   9.846  0.0499  0.0595  0.0849
 1173ERGO    R215095   9.643  15.640   9.686  0.1278  0.1014  0.0596
 1173ERGO    R315096   9.805  15.543   9.490  0.0049 -0.0912  0.0506
 1173ERGO    R415097   9.571  15.649   9.348  0.1122  0.1792  0.0647
 1173ERGO    R515098   9.654  15.449   9.330 -0.1199  0.0788  0.0630
 1173ERGO    C115099   9.681  15.564   8.967 -0.0122  0.0438  0.0593
 1173ERGO    C215100   9.671  15.687   8.583 -0.0562 -0.2419 -0.0436
 1174ERGO   ROH15101   7.119   7.626  10.329  0.2460  0.0327  0.0237
 1174ERGO    R115102   7.037   7.583  10.062  0.1858  0.1226  0.0279
 1174ERGO    R215103   6.926   7.783   9.905  0.2560  0.2022  0.0860
 1174ERGO    R315104   7.126   7.714   9.734  0.1960  0.1440  0.0379
 1174ERGO    R415105   6.894   7.763   9.562  0.1136  0.0404  0.1070
 1174ERGO    R515106   7.017   7.584   9.565  0.1369  0.0516  0.1418
 1174ERGO    C115107   7.062   7.687   9.201 -0.0255 -0.1083  0.0740
 1174ERGO    C215108   6.998   7.647   8.949 -0.0891  0.0818  0.2963
 1175ERGO   ROH15109  11.004  14.239   9.749  0.4113  0.1778  0.0836
 1175ERGO    R115110  11.017  14.084   9.513 -0.1956 -0.0362  0.1727
 1175ERGO    R215111  10.816  14.084   9.324 -0.1406  0.8311  0.0684
 1175ERGO    R315112  11.019  14.148   9.154  0.3041 -0.2034  0.1390
 1175ERGO    R415113  10.802  14.053   8.980 -0.2311  1.0147  0.0543
 1175ERGO    R515114  11.008  13.980   8.984 -0.5760 -0.1319  0.0846
 1175ERGO    C115115  10.984  14.094   8.620  0.1338  0.1506  0.1122
 1175ERGO    C215116  11.192  14.216   8.326 -0.0024 -0.0264  0.2043
 1176ERGO   ROH15117  15.312   5.274   9.801 -0.0098  0.0116  0.1277
 1176ERGO    R115118  15.245   5.434   9.578 -0.0495  0.0890  0.1947
 1176ERGO    R215119  15.421   5.616   9.467 -0.0796  0.1486  0.2443
 1176ERGO    R315120  15.368   5.479   9.238 -0.0896  0.2292  0.1981
 1176ERGO    R415121  15.546   5.698   9.155 -0.0840  0.2505  0.2691
 1176ERGO    R515122  15.350   5.649   9.070 -0.0873  0.2871  0.2567
 1176ERGO    C115123  15.569   5.618   8.759 -0.0961  0.3855  0.2400
 1176ERGO    C215124  15.781   5.616   8.460 -0.0583 -0.0374 -0.0837
 1177ERGO   ROH15125  12.886  12.269   6.854  0.1142  0.0199  0.0786
 1177ERGO    R115126  13.041  12.349   7.077 -0.0200  0.0463  0.1640
 1177ERGO    R215127  12.939  12.502   7.282 -0.1843 -0.0495  0.1562
 1177ERGO    R315128  13.032  12.299   7.437 -0.1515 -0.0399  0.1489
 1177ERGO    R415129  12.898  12.480   7.625 -0.2208 -0.0939  0.1489
 1177ERGO    R515130  13.102  12.406   7.640 -0.2044 -0.0422  0.1677
 1177ERGO    C115131  12.961  12.276   7.969 -0.2111 -0.1109  0.1378
 1177ERGO    C215132  13.005  12.173   8.418 -0.0606 -0.2278  0.0299
 1178ERGO   ROH15133  17.644   3.395   6.130  0.0235 -0.1437  0.2257
 1178ERGO    R115134  17.463   3.495   6.322 -0.0140  0.0031  0.1163
 1178ERGO    R215135  17.467   3.415   6.587 -0.2195  0.0221  0.1290
 1178ERGO    R315136  17.485   3.682   6.634 -0.0533  0.0140  0.1120
 1178ERGO    R415137  17.420   3.566   6.895 -0.3685  0.0954  0.0711
 1178ERGO    R515138  17.313   3.726   6.794 -0.1582  0.1668 -0.0410
 1178ERGO    C115139  17.411   3.904   7.118 -0.2994  0.1305  0.0215
 1178ERGO    C215140  17.336   3.918   7.415  0.0425 -0.0896  0.0168
 1179ERGO   ROH15141   5.618  11.098   9.950  0.0262  0.1878 -0.0660
 1179ERGO    R115142   5.720  11.182   9.700 -0.0640  0.0915 -0.1359
 1179ERGO    R215143   5.762  11.007   9.490 -0.0010 -0.0167 -0.0347
 1179ERGO    R315144   5.606  11.184   9.355 -0.1249 -0.1878 -0.1194
 1179ERGO    R415145   5.750  11.037   9.146  0.1441 -0.0363 -0.0426
 1179ERGO    R515146   5.741  11.253   9.170 -0.1037 -0.0438 -0.0502
 1179ERGO    C115147   5.596  11.220   8.819  0.1123 -0.2083 -0.1267
 1179ERGO    C215148   5.600  11.074   8.556 -0.2719 -0.2235  0.0716
 1180ERGO   ROH15149   5.799   8.447  10.240 -0.2736  0.0897 -0.0864
 1180ERGO    R115150   5.653   8.475   9.999 -0.2561  0.3620 -0.0700
 1180ERGO    R215151   5.697   8.682   9.821  0.2085  0.2148 -0.1435
 1180ERGO    R315152   5.729   8.479   9.643 -0.2991  0.0708 -0.0842
 1180ERGO    R415153   5.732   8.722   9.479  0.4558  0.0453 -0.1402
 1180ERGO    R515154   5.604   8.548   9.451 -0.0380  0.3907 -0.1460
 1180ERGO    C115155   5.782   8.555   9.113  0.1232 -0.1886 -0.0827
 1180ERGO    C215156   5.779   8.516   8.687  0.0244  0.1519  0.0241
 1181ERGO   ROH15157   6.049   7.161  10.142  0.0599  0.0520 -0.0168
 1181ERGO    R115158   6.177   7.236   9.901  0.0761  0.0283 -0.0145
 1181ERGO    R215159   6.173   7.078   9.675 -0.0424  0.0808 -0.0436
 1181ERGO    R315160   6.076   7.304   9.558  0.0788  0.1617  0.0091
 1181ERGO    R415161   6.118   7.118   9.336 -0.2111  0.1079 -0.0148
 1181ERGO    R515162   6.196   7.321   9.352 -0.0255  0.0478 -0.0666
 1181ERGO    C115163   5.995   7.353   9.029 -0.1957  0.1997  0.0516
 1181ERGO    C215164   5.912   7.279   8.684  0.0511 -0.0335  0.0857
 1182ERGO   ROH15165   3.169   3.489   6.530  0.1829  0.1392 -0.1280
 1182ERGO    R115166   3.161   3.608   6.787  0.1844  0.1094 -0.1123
 1182ERGO    R215167   3.059   3.477   7.008  0.1344  0.0990 -0.1295
 1182ERGO    R315168   3.301   3.537   7.115  0.1417  0.0332 -0.1136
 1182ERGO    R415169   3.130   3.480   7.346  0.0775  0.2821 -0.1193
 1182ERGO    R515170   3.250   3.659   7.314  0.1780  0.1871 -0.2069
 1182ERGO    C115171   3.400   3.538   7.643  0.0512  0.3270 -0.0983
 1182ERGO    C215172   3.676   3.673   7.919 -0.2178 -0.0340 -0.0601
 1183ERGO   ROH15173  16.468  17.475  10.553 -0.0410  0.0137 -0.2363
 1183ERGO    R115174  16.306  17.457  10.322  0.0294  0.0422 -0.2896
 1183ERGO    R215175  16.144  17.664  10.237 -0.0527  0.0063 -0.2374
 1183ERGO    R315176  16.279  17.632  10.003  0.0324  0.1812 -0.2133
 1183ERGO    R415177  16.014  17.732   9.924 -0.1106 -0.2320 -0.2654
 1183ERGO    R515178  16.112  17.551   9.850  0.1759 -0.0927 -0.2280
 1183ERGO    C115179  16.065  17.740   9.522 -0.0647 -0.2067 -0.2590
 1183ERGO    C215180  15.797  17.925   9.239 -0.0176  0.0191  0.3267
 1184ERGO   ROH15181   7.254  10.122   6.431  0.0387  0.0672  0.0300
 1184ERGO    R115182   7.189  10.018   6.686  0.2170 -0.0676  0.0232
 1184ERGO    R215183   7.371  10.009   6.894  0.2533  0.1811  0.0088
 1184ERGO    R315184   7.176  10.144   7.027  0.0551 -0.1284  0.0388
 1184ERGO    R415185   7.361  10.057   7.236  0.3099  0.3001 -0.0059
 1184ERGO    R515186   7.146  10.020   7.230  0.3707 -0.1041  0.1003
 1184ERGO    C115187   7.172  10.210   7.560  0.1570  0.0788  0.0137
 1184ERGO    C215188   7.087  10.223   7.973 -0.1150 -0.0266  0.0379
 1185ERGO   ROH15189   4.657   5.054   6.610  0.0689 -0.2336  0.0634
 1185ERGO    R115190   4.720   5.240   6.815  0.0004 -0.2000  0.0539
 1185ERGO    R215191   4.630   5.210   7.074  0.0388 -0.2378  0.0619
 1185ERGO    R315192   4.894   5.233   7.134  0.0346 -0.1104  0.0379
 1185ERGO    R415193   4.757   5.378   7.348 -0.0179 -0.1446  0.0315
 1185ERGO    R515194   4.917   5.455   7.221 -0.0610 -0.0871  0.0081
 1185ERGO    C115195   5.079   5.497   7.564 -0.0549  0.0294 -0.0087
 1185ERGO    C215196   5.204   5.336   7.897  0.0164 -0.0395 -0.4122
 1186ERGO   ROH15197   4.559   1.879   9.991 -0.3233  0.0700 -0.0369
 1186ERGO    R115198   4.732   1.825   9.774 -0.0842  0.0925  0.1433
 1186ERGO    R215199   4.670   1.641   9.577  0.2318 -0.0490  0.1751
 1186ERGO    R315200   4.716   1.851   9.411  0.2249 -0.0967  0.1117
 1186ERGO    R415201   4.643   1.630   9.233 -0.0392 -0.0884  0.1956
 1186ERGO    R515202   4.822   1.754   9.220  0.0257 -0.1890  0.0422
 1186ERGO    C115203   4.670   1.820   8.876 -0.2034 -0.1561  0.1479
 1186ERGO    C215204   4.685   1.752   8.496 -0.1486 -0.3377 -0.1389
 1187ERGO   ROH15205  10.555  12.651   9.918  0.3161  0.1134 -0.1267
 1187ERGO    R115206  10.400  12.656   9.681  0.2004 -0.0684 -0.0584
 1187ERGO    R215207  10.415  12.862   9.498 -0.1454 -0.0297 -0.0570
 1187ERGO    R315208  10.464  12.660   9.323  0.0394  0.0398 -0.0855
 1187ERGO    R415209  10.321  12.861   9.165 -0.0837 -0.0477 -0.0736
 1187ERGO    R515210  10.269  12.651   9.186  0.0746 -0.0884 -0.1220
 1187ERGO    C115211  10.313  12.671   8.808  0.1258  0.0070 -0.1100
 1187ERGO    C215212  10.233  12.778   8.500 -0.4042 -0.0803  0.2888
 1188ERGO   ROH15213   4.283   8.862   6.531 -0.1501 -0.0057 -0.0510
 1188ERGO    R115214   4.186   8.845   6.797 -0.0385  0.0120 -0.0083
 1188ERGO    R215215   4.323   8.711   6.996  0.0341  0.0009 -0.0606
 1188ERGO    R315216   4.300   8.949   7.127  0.1165  0.0089 -0.0611
 1188ERGO    R415217   4.318   8.748   7.340  0.1764  0.0237 -0.0605
 1188ERGO    R515218   4.162   8.899   7.316  0.1884  0.0395 -0.0039
 1188ERGO    C115219   4.293   8.992   7.662  0.3366  0.0445 -0.0609
 1188ERGO    C215220   4.348   9.110   7.920  0.1098  0.2867 -0.3895
 1189ERGO   ROH15221  14.937  14.749   9.972  0.0080  0.0696 -0.1429
 1189ERGO    R115222  14.926  14.600   9.732 -0.0442 -0.0076 -0.0943
 1189ERGO    R215223  14.706  14.601   9.565 -0.0148  0.0837 -0.1429
 1189ERGO    R315224  14.889  14.672   9.377  0.0756 -0.1002 -0.1248
 1189ERGO    R415225  14.663  14.569   9.223 -0.0291  0.1847 -0.1499
 1189ERGO    R515226  14.870  14.504   9.208 -0.1059 -0.0500 -0.1497
 1189ERGO    C115227  14.810  14.617   8.849  0.0475  0.0708 -0.1371
 1189ERGO    C215228  14.761  14.575   8.492 -0.0998 -0.1562  0.0150
 1190ERGO   ROH15229  15.595  12.381   6.716  0.1422  0.2090  0.0321
 1190ERGO    R115230  15.707  12.430   6.972  0.1427  0.1631  0.0409
 1190ERGO    R215231  15.553  12.451   7.199  0.1288  0.2668  0.0245
 1190ERGO    R315232  15.719  12.257   7.292  0.0091  0.1766  0.0534
 1190ERGO    R415233  15.616  12.388   7.533 -0.0712  0.1322  0.0390
 1190ERGO    R515234  15.826  12.357   7.482 -0.0564  0.0735  0.1429
 1190ERGO    C115235  15.810  12.170   7.815 -0.3000 -0.0309  0.0746
 1190ERGO    C215236  16.016  11.929   8.041 -0.0854 -0.2264 -0.1193
 1191ERGO   ROH15237   8.905  14.551   6.718 -0.0830 -0.0020 -0.0776
 1191ERGO    R115238   8.805  14.536   6.982  0.1258 -0.1461 -0.0022
 1191ERGO    R215239   8.959  14.452   7.196  0.3967  0.0419 -0.1114
 1191ERGO    R315240   8.882  14.690   7.303  0.1642 -0.0576 -0.0550
 1191ERGO    R415241   8.978  14.532   7.531  0.0814 -0.0972 -0.0569
 1191ERGO    R515242   8.784  14.631   7.514  0.0365 -0.2131 -0.1595
 1191ERGO    C115243   8.918  14.802   7.828 -0.3204 -0.2715  0.0278
 1191ERGO    C215244   8.973  14.983   8.215  0.2815  0.0631 -0.3218
 1192ERGO   ROH15245  15.104   1.537   9.846  0.2507 -0.1510 -0.0701
 1192ERGO    R115246  15.066   1.673   9.600  0.0294 -0.0240  0.0312
 1192ERGO    R215247  15.154   1.571   9.358  0.0575  0.2272 -0.0666
 1192ERGO    R315248  14.895   1.608   9.286 -0.0069  0.0081  0.0441
 1192ERGO    R415249  15.041   1.595   9.033 -0.0822  0.2545 -0.0168
 1192ERGO    R515250  14.906   1.753   9.096 -0.2142  0.1001  0.0987
 1192ERGO    C115251  14.732   1.643   8.775 -0.2241  0.0647  0.1160
 1192ERGO    C215252  14.855   1.578   8.527  0.1629 -0.2034 -0.1382
 1193ERGO   ROH15253   4.624   6.672  10.074 -0.0482 -0.0445 -0.1522
 1193ERGO    R115254   4.704   6.732   9.809 -0.0094 -0.0854 -0.1493
 1193ERGO    R215255   4.859   6.561   9.658 -0.0600 -0.1465 -0.1289
 1193ERGO    R315256   4.656   6.586   9.479 -0.0380 -0.0842 -0.1463
 1193ERGO    R415257   4.875   6.463   9.327 -0.1795 -0.4902 -0.0379
 1193ERGO    R515258   4.765   6.644   9.274  0.0277 -0.4091 -0.2098
 1193ERGO    C115259   4.694   6.430   8.966 -0.2283 -0.6318 -0.0013
 1193ERGO    C215260   4.698   6.322   8.591  0.0170 -0.2368 -0.0403
 1194ERGO   ROH15261  17.067  13.919  10.369 -0.0058 -0.1572  0.1078
 1194ERGO    R115262  16.970  13.852  10.112 -0.1164  0.0495  0.0895
 1194ERGO    R215263  16.889  14.043   9.928  0.1368  0.2340  0.1399
 1194ERGO    R315264  17.069  13.917   9.767 -0.0289  0.0201  0.1108
 1194ERGO    R415265  16.917  14.091   9.587  0.1899  0.2230  0.1450
 1194ERGO    R515266  16.949  13.877   9.564 -0.0836  0.1890  0.1172
 1194ERGO    C115267  17.102  14.002   9.238  0.0653  0.0159  0.1205
 1194ERGO    C215268  17.174  14.055   8.945  0.2931  0.1831  0.2095
 1195ERGO   ROH15269  11.728   9.877   6.625  0.0919 -0.2470 -0.0379
 1195ERGO    R115270  11.928   9.791   6.806  0.1346 -0.1503 -0.0378
 1195ERGO    R215271  12.197   9.798   6.745  0.1313 -0.0606 -0.0549
 1195ERGO    R315272  12.212   9.941   6.976  0.0900 -0.0225 -0.0763
 1195ERGO    R415273  12.447   9.765   6.982  0.0429 -0.0750  0.0367
 1195ERGO    R515274  12.296   9.784   7.137 -0.0019 -0.0096 -0.0188
 1195ERGO    C115275  12.607   9.880   7.336 -0.0474 -0.0475  0.0700
 1195ERGO    C215276  12.878   9.993   7.396  0.1142 -0.2271  0.0226
 1196ERGO   ROH15277  10.113  13.832   6.436  0.0443  0.0303  0.0557
 1196ERGO    R115278  10.072  14.100   6.517  0.2026  0.0195  0.1750
 1196ERGO    R215279   9.839  14.185   6.640  0.1736  0.1415  0.0351
 1196ERGO    R315280  10.010  14.275   6.831  0.0974 -0.1078  0.2265
 1196ERGO    R415281   9.756  14.406   6.891  0.1564  0.0849  0.0797
 1196ERGO    R515282   9.948  14.504   6.863  0.2704 -0.0672  0.2904
 1196ERGO    C115283   9.868  14.619   7.218  0.0748 -0.1822  0.2852
 1196ERGO    C215284   9.794  14.753   7.478 -0.0242 -0.2139  0.0525
 1197ERGO   ROH15285  13.185  12.039  10.196  0.1159  0.3192  0.2021
 1197ERGO    R115286  13.134  12.138   9.935  0.0110  0.1963  0.1760
 1197ERGO    R215287  13.127  12.409   9.877  0.3499  0.1645 -0.0167
 1197ERGO    R315288  13.311  12.340   9.690  0.0743 -0.2420 -0.1525
 1197ERGO    R415289  13.109  12.492   9.543  0.1515 -0.0266 -0.0565
 1197ERGO    R515290  13.182  12.293   9.494 -0.1936 -0.1798 -0.0010
 1197ERGO    C115291  13.271  12.475   9.171 -0.2226 -0.5194 -0.2072
 1197ERGO    C215292  13.439  12.469   8.868 -0.1638  0.0224  0.0783
 1198ERGO   ROH15293   6.042  11.308  10.054 -0.0798 -0.1764 -0.0705
 1198ERGO    R115294   6.146  11.402   9.808 -0.1116  0.0742  0.0097
 1198ERGO    R215295   6.173  11.240   9.586  0.2609  0.1858 -0.0318
 1198ERGO    R315296   6.026  11.435   9.466 -0.0016 -0.0099 -0.0378
 1198ERGO    R415297   6.162  11.296   9.245  0.2713  0.2241 -0.0259
 1198ERGO    R515298   6.165  11.511   9.286 -0.0611  0.2286  0.0117
 1198ERGO    C115299   6.018  11.511   8.934  0.0310  0.0625 -0.0282
 1198ERGO    C215300   5.977  11.513   8.615 -0.0966  0.1643 -0.2027
 1199ERGO   ROH15301   0.173   2.801   9.943  0.1032 -0.1208 -0.0288
 1199ERGO    R115302   0.052   2.674   9.720  0.1636 -0.1847 -0.0247
 1199ERGO    R215303  -0.127   2.804   9.554 -0.0312 -0.3253  0.0760
 1199ERGO    R315304   0.045   2.723   9.360 -0.0097 -0.0847 -0.0105
 1199ERGO    R415305  -0.190   2.816   9.214 -0.1670 -0.2817  0.1018
 1199ERGO    R515306  -0.094   2.622   9.194  0.0323 -0.1803  0.0076
 1199ERGO    C115307  -0.066   2.747   8.835 -0.2259 -0.0305  0.0357
 1199ERGO    C215308  -0.010   2.596   8.487  0.2728 -0.0539 -0.1103
 1200ERGO   ROH15309   0.481  12.042  10.430  0.1842 -0.0438 -0.0565
 1200ERGO    R115310   0.570  12.142  10.180 -0.0531 -0.1211 -0.1753
 1200ERGO    R215311   0.435  12.095   9.944 -0.3925 -0.0264 -0.0064
 1200ERGO    R315312   0.440  12.366   9.924 -0.2094 -0.0297 -0.0193
 1200ERGO    R415313   0.398  12.270   9.649 -0.2465 -0.0165 -0.0193
 1200ERGO    R515314   0.555  12.407   9.717 -0.1609 -0.1168 -0.0107
 1200ERGO    C115315   0.382  12.627   9.458  0.0104 -0.0140 -0.0390
 1200ERGO    C215316   0.387  12.669   9.187 -0.2303  0.1400  0.2277
 1201ERGO   ROH15317   1.319  12.735  10.264  0.1302  0.1836 -0.0159
 1201ERGO    R115318   1.349  12.916  10.048  0.0946  0.1650 -0.0377
 1201ERGO    R215319   1.545  12.886   9.854  0.0663  0.1488 -0.0693
 1201ERGO    R315320   1.333  12.898   9.684  0.0365  0.1296 -0.0326
 1201ERGO    R415321   1.559  13.003   9.530  0.0448 -0.0658 -0.1485
 1201ERGO    R515322   1.367  13.101   9.562  0.0952  0.0353 -0.1707
 1201ERGO    C115323   1.369  13.083   9.181  0.0042 -0.2087 -0.1601
 1201ERGO    C215324   1.485  13.167   8.928 -0.0695 -0.1182  0.2764
 1202ERGO   ROH15325  14.707  12.575  10.457 -0.2038  0.0968 -0.1628
 1202ERGO    R115326  14.742  12.681  10.196 -0.0857  0.1069 -0.1433
 1202ERGO    R215327  14.670  12.541   9.969 -0.0437  0.1431 -0.1771
 1202ERGO    R315328  14.527  12.766   9.915  0.0343  0.1852 -0.2127
 1202ERGO    R415329  14.690  12.723   9.675 -0.0093  0.0635 -0.2246
 1202ERGO    R515330  14.679  12.906   9.794  0.0747  0.0982 -0.2658
 1202ERGO    C115331  14.568  13.040   9.455  0.0840  0.0567 -0.2858
 1202ERGO    C215332  14.591  13.268   9.227 -0.0326  0.0144 -0.0005
 1203ERGO   ROH15333  11.119   3.359   9.698 -0.1125 -0.1126  0.0186
 1203ERGO    R115334  11.116   3.267   9.431 -0.3390 -0.0969  0.0147
 1203ERGO    R215335  10.977   3.397   9.230 -0.1034  0.2043  0.0412
 1203ERGO    R315336  11.218   3.395   9.106 -0.1150 -0.2890  0.0067
 1203ERGO    R415337  11.023   3.428   8.889 -0.0851  0.3864  0.0588
 1203ERGO    R515338  11.179   3.276   8.902 -0.4505 -0.0232 -0.0946
 1203ERGO    C115339  11.277   3.444   8.574 -0.0854  0.0293  0.0367
 1203ERGO    C215340  11.347   3.531   8.298 -0.0410 -0.0540 -0.2508
 1204ERGO   ROH15341   3.602  10.667   6.583 -0.0242 -0.0484  0.1624
 1204ERGO    R115342   3.478  10.715   6.833  0.0751  0.0355  0.1941
 1204ERGO    R215343   3.369  10.512   6.986 -0.0886  0.1245  0.1769
 1204ERGO    R315344   3.532  10.615   7.179  0.0441 -0.0678  0.1734
 1204ERGO    R415345   3.280  10.554   7.318 -0.1241  0.3986  0.1364
 1204ERGO    R515346   3.385  10.746   7.316  0.2074  0.2396  0.0828
 1204ERGO    C115347   3.379  10.675   7.691 -0.0202  0.3777  0.1097
 1204ERGO    C215348   3.334  10.601   8.056 -0.0015  0.2202  0.1941
 1205ERGO   ROH15349   5.988  17.429   6.448 -0.2027 -0.1803 -0.0371
 1205ERGO    R115350   5.852  17.461   6.694 -0.2443 -0.2201 -0.0551
 1205ERGO    R215351   5.705  17.258   6.810  0.0151 -0.3487  0.0547
 1205ERGO    R315352   5.864  17.309   7.024 -0.0476 -0.0264  0.0298
 1205ERGO    R415353   5.621  17.189   7.138  0.1537 -0.4069  0.0787
 1205ERGO    R515354   5.711  17.379   7.196 -0.1561 -0.2350  0.0228
 1205ERGO    C115355   5.722  17.196   7.530  0.1756 -0.1383  0.0692
 1205ERGO    C215356   5.757  17.047   7.790  0.2441 -0.2087 -0.0284
 1206ERGO   ROH15357   2.248   4.633   6.463 -0.1230 -0.0348  0.0646
 1206ERGO    R115358   2.339   4.573   6.725 -0.0553 -0.0303  0.0437
 1206ERGO    R215359   2.235   4.696   6.950  0.0108 -0.0142  0.0737
 1206ERGO    R315360   2.194   4.440   7.031  0.0167 -0.0091  0.0847
 1206ERGO    R415361   2.194   4.597   7.278  0.2746 -0.0442  0.0981
 1206ERGO    R515362   2.317   4.422   7.236  0.1887 -0.0663 -0.0271
 1206ERGO    C115363   2.133   4.298   7.546  0.4338 -0.0569  0.1228
 1206ERGO    C215364   1.937   4.069   7.750  0.0510  0.0284 -0.1607
 1207ERGO   ROH15365   9.017  14.074   9.920  0.2863 -0.1272 -0.0929
 1207ERGO    R115366   9.061  14.008   9.649  0.0859 -0.0272 -0.1520
 1207ERGO    R215367   8.863  13.903   9.487 -0.0297  0.0103 -0.0402
 1207ERGO    R315368   8.928  14.113   9.326 -0.1721  0.0750 -0.0148
 1207ERGO    R415369   8.821  13.910   9.144  0.2520 -0.0965 -0.0786
 1207ERGO    R515370   9.014  14.010   9.127  0.1340  0.1582  0.0709
 1207ERGO    C115371   8.859  14.110   8.793  0.2823 -0.0980 -0.0770
 1207ERGO    C215372   8.704  14.197   8.538 -0.0289  0.2012  0.1743
 1208ERGO   ROH15373  16.231  11.336  10.145 -0.2362 -0.0876 -0.0935
 1208ERGO    R115374  16.075  11.312   9.910 -0.1450  0.1333 -0.1788
 1208ERGO    R215375  16.069  11.506   9.714  0.2041  0.1593 -0.1597
 1208ERGO    R315376  16.135  11.298   9.552  0.0249  0.0919 -0.1512
 1208ERGO    R415377  15.971  11.474   9.384  0.3546  0.3565 -0.2268
 1208ERGO    R515378  15.939  11.261   9.420  0.0435  0.3828 -0.2771
 1208ERGO    C115379  15.976  11.260   9.040  0.2739  0.4081 -0.2580
 1208ERGO    C215380  15.968  11.237   8.637 -0.1369  0.1827  0.2247
 1209ERGO   ROH15381   9.465  16.423   6.278  0.1049  0.0223  0.1242
 1209ERGO    R115382   9.472  16.338   6.548  0.2408 -0.0181  0.1087
 1209ERGO    R215383   9.702  16.349   6.701  0.2092  0.4222  0.1415
 1209ERGO    R315384   9.544  16.490   6.871 -0.1104  0.0732  0.1477
 1209ERGO    R415385   9.787  16.434   7.025 -0.1773  0.2144  0.3050
 1209ERGO    R515386   9.583  16.390   7.085 -0.1824 -0.0888  0.0860
 1209ERGO    C115387   9.689  16.617   7.373 -0.7026 -0.2340  0.4060
 1209ERGO    C215388   9.548  16.690   7.709 -0.1862 -0.1406  0.0627
 1210ERGO   ROH15389   5.979   5.812  10.370  0.2427  0.0591 -0.0231
 1210ERGO    R115390   5.816   5.873  10.147 -0.0111  0.1359  0.1774
 1210ERGO    R215391   5.775   6.131  10.059  0.1325  0.1480  0.1325
 1210ERGO    R315392   5.860   6.030   9.822 -0.2990 -0.0419  0.0492
 1210ERGO    R415393   5.675   6.245   9.748  0.0187  0.2949  0.2222
 1210ERGO    R515394   5.667   6.038   9.680 -0.4356  0.2980  0.2479
 1210ERGO    C115395   5.697   6.216   9.344 -0.4528  0.2022  0.1962
 1210ERGO    C215396   5.638   6.456   9.001  0.2000  0.3120 -0.1947
 1211ERGO   ROH15397  13.685   5.460   9.937  0.1282  0.1425 -0.0414
 1211ERGO    R115398  13.676   5.391   9.662  0.1237  0.0783 -0.0261
 1211ERGO    R215399  13.672   5.581   9.461 -0.0774  0.0367 -0.0677
 1211ERGO    R315400  13.887   5.442   9.370  0.0189  0.1941 -0.0811
 1211ERGO    R415401  13.765   5.555   9.129 -0.2206 -0.0989 -0.0978
 1211ERGO    R515402  13.813   5.346   9.164  0.0118 -0.0255  0.0237
 1211ERGO    C115403  14.021   5.410   8.851 -0.2135 -0.0301 -0.1280
 1211ERGO    C215404  14.137   5.422   8.543 -0.0875 -0.0553 -0.2371
 1212ERGO   ROH15405  17.612  10.845  10.037 -0.1343 -0.3038 -0.1380
 1212ERGO    R115406  17.551  11.049   9.850 -0.0003 -0.1894 -0.0589
 1212ERGO    R215407  17.651  11.049   9.593 -0.0003 -0.1547 -0.0599
 1212ERGO    R315408  17.388  11.070   9.526  0.0120  0.0446 -0.0513
 1212ERGO    R415409  17.530  11.067   9.269  0.0070  0.0471 -0.0523
 1212ERGO    R515410  17.387  11.217   9.337  0.1066  0.1172  0.0043
 1212ERGO    C115411  17.214  11.098   9.018  0.0228  0.3518 -0.0396
 1212ERGO    C215412  17.085  11.141   8.806 -0.2343  0.1559 -0.1565
 1213ERGO   ROH15413   8.172  15.936   6.570 -0.2400  0.0003  0.0251
 1213ERGO    R115414   8.230  16.025   6.832 -0.1565  0.1291 -0.0355
 1213ERGO    R215415   8.056  16.180   6.979 -0.2270 -0.0185  0.0419
 1213ERGO    R315416   8.086  15.983   7.164  0.1083  0.0562  0.0727
 1213ERGO    R415417   8.073  16.231   7.321 -0.4471  0.0549  0.0434
 1213ERGO    R515418   8.229  16.079   7.330 -0.1386  0.3669  0.1141
 1213ERGO    C115419   8.111  16.075   7.693 -0.2607  0.1679  0.0731
 1213ERGO    C215420   8.164  16.132   7.963  0.0911 -0.2604  0.2175
 1214ERGO   ROH15421   0.561  12.222   6.653  0.2702 -0.0218 -0.1669
 1214ERGO    R115422   0.710  12.236   6.894  0.2612  0.0971 -0.1679
 1214ERGO    R215423   0.781  12.476   7.011 -0.0333  0.1568 -0.1047
 1214ERGO    R315424   0.659  12.369   7.228  0.1044 -0.0566 -0.1292
 1214ERGO    R415425   0.779  12.618   7.326 -0.2684  0.1133 -0.0844
 1214ERGO    R515426   0.807  12.419   7.410  0.0195  0.1375 -0.1104
 1214ERGO    C115427   0.664  12.599   7.714 -0.2761 -0.1124 -0.0957
 1214ERGO    C215428   0.696  12.795   8.013 -0.0711  0.2260  0.0701
 1215ERGO   ROH15429   0.988   3.364   9.962 -0.1945 -0.2795  0.0133
 1215ERGO    R115430   1.013   3.436   9.690 -0.0947 -0.1084  0.0658
 1215ERGO    R215431   0.971   3.256   9.484  0.1902 -0.0386 -0.0615
 1215ERGO    R315432   0.796   3.446   9.398  0.0687 -0.1485 -0.0582
 1215ERGO    R415433   0.871   3.300   9.156  0.4126  0.1100 -0.1113
 1215ERGO    R515434   0.882   3.515   9.186  0.1729  0.0999  0.0628
 1215ERGO    C115435   0.649   3.503   8.884  0.4281  0.0934 -0.1372
 1215ERGO    C215436   0.447   3.470   8.635  0.0433  0.0605 -0.2042
 1216ERGO   ROH15437   8.080  16.853  10.194 -0.0155 -0.1757  0.1418
 1216ERGO    R115438   8.123  16.785   9.922 -0.0556 -0.2034  0.1417
 1216ERGO    R215439   7.929  16.666   9.765 -0.1400 -0.0609  0.1320
 1216ERGO    R315440   7.978  16.877   9.601  0.0197 -0.0920  0.1393
 1216ERGO    R415441   7.913  16.656   9.420 -0.0525 -0.0589  0.1282
 1216ERGO    R515442   8.091  16.781   9.413  0.0172 -0.1572  0.1722
 1216ERGO    C115443   7.950  16.849   9.065  0.1483 -0.0870  0.1328
 1216ERGO    C215444   7.927  16.873   8.662  0.0061  0.0098  0.1097
 1217ERGO   ROH15445   9.791  16.466  10.172  0.1340 -0.2901 -0.1410
 1217ERGO    R115446   9.910  16.553   9.931  0.0855 -0.1191 -0.1046
 1217ERGO    R215447  10.087  16.397   9.787  0.1356  0.0210 -0.1995
 1217ERGO    R315448   9.913  16.446   9.583  0.1029  0.0626 -0.1617
 1217ERGO    R415449  10.167  16.382   9.451  0.0466 -0.0488 -0.2179
 1217ERGO    R515450  10.045  16.560   9.419  0.1055 -0.0063 -0.2079
 1217ERGO    C115451  10.051  16.420   9.065 -0.0357 -0.0505 -0.1931
 1217ERGO    C215452  10.093  16.485   8.771  0.2055 -0.0405  0.0130
 1218ERGO   ROH15453  17.582   3.411   7.909  0.1025  0.0523  0.2050
 1218ERGO    R115454  17.317   3.498   7.958  0.1191  0.1282  0.1612
 1218ERGO    R215455  17.217   3.735   7.857  0.1753  0.1114  0.0669
 1218ERGO    R315456  17.022   3.574   7.758  0.1436  0.1160  0.1203
 1218ERGO    R415457  16.895   3.837   7.784  0.1793  0.1366  0.0830
 1218ERGO    R515458  16.822   3.648   7.866  0.1647  0.1618  0.1281
 1218ERGO    C115459  16.524   3.744   7.648  0.1515  0.1555  0.1424
 1218ERGO    C215460  16.185   3.855   7.537 -0.2313  0.0162  0.2382
 1219ERGO   ROH15461   8.749  17.364   6.006 -0.1982 -0.1340 -0.1377
 1219ERGO    R115462   8.871  17.380   6.260 -0.0857  0.0086 -0.1997
 1219ERGO    R215463   8.729  17.437   6.490  0.0199  0.1622 -0.1717
 1219ERGO    R315464   8.843  17.207   6.579  0.0346  0.2043 -0.0801
 1219ERGO    R415465   8.698  17.313   6.811  0.0241  0.2875 -0.1221
 1219ERGO    R515466   8.908  17.257   6.804  0.0291  0.2985 -0.0980
 1219ERGO    C115467   8.787  17.025   7.082  0.0405  0.4001 -0.0073
 1219ERGO    C215468   8.634  16.922   7.355 -0.5369  0.0013 -0.3282
 1220ERGO   ROH15469   6.006   9.440  10.228 -0.0684 -0.0613  0.1123
 1220ERGO    R115470   6.107   9.300  10.004 -0.1107 -0.1698  0.1616
 1220ERGO    R215471   5.942   9.187   9.813 -0.1410  0.1495 -0.0003
 1220ERGO    R315472   6.093   9.335   9.642  0.2478 -0.0526  0.1540
 1220ERGO    R415473   5.972   9.129   9.474 -0.0310  0.2205 -0.0041
 1220ERGO    R515474   6.184   9.176   9.489  0.0577 -0.1703  0.1547
 1220ERGO    C115475   6.131   9.234   9.116  0.3980  0.0721  0.1386
 1220ERGO    C215476   6.165   9.301   8.780 -0.2644 -0.1008  0.3573
 1221ERGO   ROH15477   6.785   5.629   6.527 -0.2518 -0.1233 -0.1135
 1221ERGO    R115478   6.730   5.747   6.778 -0.1883 -0.1250 -0.0980
 1221ERGO    R215479   6.499   5.694   6.920 -0.1414 -0.1471 -0.0252
 1221ERGO    R315480   6.673   5.631   7.118 -0.0732 -0.1265 -0.0797
 1221ERGO    R415481   6.411   5.639   7.250 -0.0212 -0.0890  0.0164
 1221ERGO    R515482   6.590   5.748   7.310  0.0067 -0.0921 -0.0675
 1221ERGO    C115483   6.525   5.547   7.628  0.1127 -0.0358 -0.0106
 1221ERGO    C215484   6.518   5.505   8.003 -0.4048 -0.2377 -0.0419
 1222ERGO   ROH15485   0.624   5.861   6.258  0.2012  0.2761 -0.1119
 1222ERGO    R115486   0.740   5.960   6.497  0.1586  0.2493 -0.0802
 1222ERGO    R215487   0.814   6.225   6.527  0.0880  0.2611 -0.0105
 1222ERGO    R315488   0.655   6.211   6.747  0.0773  0.1672 -0.0258
 1222ERGO    R415489   0.737   6.491   6.734 -0.1641  0.2367 -0.0693
 1222ERGO    R515490   0.757   6.358   6.905 -0.0671  0.2873 -0.0431
 1222ERGO    C115491   0.543   6.632   7.061 -0.3208  0.1343 -0.1179
 1222ERGO    C215492   0.359   6.847   7.228  0.1962 -0.1860  0.1408
 1223ERGO   ROH15493  17.543   2.849   6.295 -0.0067  0.2506  0.0519
 1223ERGO    R115494  17.569   2.825   6.576 -0.0285  0.1386  0.0450
 1223ERGO    R215495  17.605   3.044   6.741 -0.0964  0.0790  0.1414
 1223ERGO    R315496  17.388   2.943   6.869 -0.0856 -0.0269  0.0767
 1223ERGO    R415497  17.481   3.160   7.042 -0.3182  0.1007  0.0432
 1223ERGO    R515498  17.445   2.953   7.101 -0.2009  0.0965  0.0997
 1223ERGO    C115499  17.204   3.133   7.337 -0.4373  0.0138 -0.0748
 1223ERGO    C215500  17.165   3.128   7.619  0.0159  0.0925 -0.0560
 1224ERGO   ROH15501   9.430   7.480   6.338 -0.0052 -0.0317 -0.1703
 1224ERGO    R115502   9.480   7.263   6.512  0.0212  0.0149 -0.1212
 1224ERGO    R215503   9.724   7.226   6.637 -0.0208  0.1512 -0.0065
 1224ERGO    R315504   9.572   7.222   6.862 -0.1187  0.0995 -0.0721
 1224ERGO    R415505   9.808   7.062   6.930 -0.0947  0.1555  0.0180
 1224ERGO    R515506   9.600   7.000   6.949 -0.0927  0.0970 -0.0751
 1224ERGO    C115507   9.714   6.962   7.311 -0.2296  0.1093 -0.0294
 1224ERGO    C215508   9.650   6.916   7.570  0.2078 -0.4256  0.1869
 1225ERGO   ROH15509  12.602   0.424   6.427  0.1557 -0.2430  0.0806
 1225ERGO    R115510  12.456   0.467   6.665  0.0810  0.0018 -0.0064
 1225ERGO    R215511  12.460   0.290   6.877 -0.3407 -0.0126  0.0010
 1225ERGO    R315512  12.532   0.511   7.018 -0.0535 -0.1257  0.0392
 1225ERGO    R415513  12.375   0.350   7.207 -0.2518  0.0364  0.0150
 1225ERGO    R515514  12.340   0.559   7.154  0.0103  0.0924  0.0552
 1225ERGO    C115515  12.392   0.593   7.531  0.0695 -0.0413  0.0592
 1225ERGO    C215516  12.242   0.755   7.890  0.0059 -0.1363  0.2926
 1226ERGO   ROH15517  14.902  15.020   6.576 -0.1123  0.1372 -0.0609
 1226ERGO    R115518  14.816  15.123   6.825 -0.0968  0.0795 -0.0320
 1226ERGO    R215519  14.649  14.981   6.995  0.0057 -0.0058 -0.0043
 1226ERGO    R315520  14.847  15.028   7.175  0.0281  0.0651 -0.0464
 1226ERGO    R415521  14.604  15.002   7.337  0.1067 -0.2775  0.0279
 1226ERGO    R515522  14.745  15.168   7.341 -0.0502 -0.1410  0.0849
 1226ERGO    C115523  14.764  15.057   7.705  0.1866 -0.3691  0.0072
 1226ERGO    C215524  14.600  15.115   8.042 -0.1291 -0.3131 -0.0883
 1227ERGO   ROH15525  13.083   9.432  10.148  0.2090 -0.0957  0.0942
 1227ERGO    R115526  13.205   9.464   9.895  0.1528 -0.0435  0.0739
 1227ERGO    R215527  13.168   9.285   9.688  0.1726 -0.0438  0.0735
 1227ERGO    R315528  13.095   9.508   9.551  0.0776 -0.0611  0.0950
 1227ERGO    R415529  13.157   9.310   9.344  0.1425 -0.0256  0.0755
 1227ERGO    R515530  13.240   9.511   9.361  0.0668  0.0076  0.0856
 1227ERGO    C115531  13.081   9.534   9.015  0.0355 -0.0311  0.0967
 1227ERGO    C215532  13.033   9.568   8.745 -0.1594  0.0862  0.1058
 1228ERGO   ROH15533   4.694   2.359   9.897 -0.2706 -0.0048 -0.0664
 1228ERGO    R115534   4.703   2.237   9.642 -0.2242  0.0209 -0.0770
 1228ERGO    R215535   4.498   2.259   9.459 -0.1437  0.1296 -0.1534
 1228ERGO    R315536   4.696   2.347   9.295 -0.0432  0.0635 -0.0683
 1228ERGO    R415537   4.491   2.245   9.113  0.0332  0.0561 -0.1551
 1228ERGO    R515538   4.701   2.188   9.116  0.0249  0.0229 -0.0324
 1228ERGO    C115539   4.673   2.319   8.759  0.2306 -0.0487 -0.0762
 1228ERGO    C215540   4.582   2.307   8.394  0.2431  0.1758  0.1919
 1229ERGO   ROH15541  17.030  17.732  10.618 -0.1749  0.0816  0.1111
 1229ERGO    R115542  17.204  17.714  10.396 -0.0923 -0.0108  0.1830
 1229ERGO    R215543  17.307  17.474  10.306 -0.3022 -0.0828  0.1367
 1229ERGO    R315544  17.201  17.554  10.069 -0.1124  0.1220  0.1167
 1229ERGO    R415545  17.459  17.435   9.998 -0.3138 -0.3752  0.1646
 1229ERGO    R515546  17.388  17.634   9.944  0.0706 -0.2319  0.1496
 1229ERGO    C115547  17.447  17.488   9.596 -0.1425 -0.3533  0.1620
 1229ERGO    C215548  17.635  17.244   9.351  0.2334  0.0997 -0.0210
 1230ERGO   ROH15549   6.294   2.015   9.782 -0.0580  0.0777 -0.0957
 1230ERGO    R115550   6.259   1.927   9.515  0.0120  0.1563 -0.1301
 1230ERGO    R215551   6.023   1.965   9.375  0.0315  0.1447 -0.1583
 1230ERGO    R315552   6.188   2.081   9.194  0.0342  0.2422 -0.0953
 1230ERGO    R415553   5.949   2.011   9.041  0.1049  0.1496 -0.1749
 1230ERGO    R515554   6.154   1.957   8.993  0.1480  0.2470 -0.1216
 1230ERGO    C115555   6.061   2.147   8.676  0.1503  0.2441 -0.1254
 1230ERGO    C215556   5.987   2.128   8.371 -0.2189 -0.1317 -0.2702
 1231ERGO   ROH15557  16.741   8.547   6.939 -0.0702 -0.1696  0.0555
 1231ERGO    R115558  16.760   8.306   7.087 -0.0923 -0.1820  0.0376
 1231ERGO    R215559  16.850   8.298   7.348  0.1451 -0.2406 -0.0455
 1231ERGO    R315560  16.614   8.171   7.391  0.0994 -0.0865  0.1746
 1231ERGO    R415561  16.737   8.190   7.656  0.2723  0.0095  0.0914
 1231ERGO    R515562  16.663   8.009   7.561  0.1143 -0.0111  0.2443
 1231ERGO    C115563  16.450   8.009   7.877  0.3037  0.2999  0.3775
 1231ERGO    C215564  16.303   7.839   8.118  0.0049 -0.2738 -0.1179
 1232ERGO   ROH15565  17.020   3.230  10.110 -0.0462  0.0238 -0.0168
 1232ERGO    R115566  16.888   3.153   9.871  0.1821 -0.1692 -0.0836
 1232ERGO    R215567  16.801   3.336   9.684 -0.1519 -0.2794 -0.0363
 1232ERGO    R315568  16.950   3.185   9.514  0.2216  0.0917 -0.0575
 1232ERGO    R415569  16.740   3.304   9.345 -0.1958 -0.4975 -0.0088
 1232ERGO    R515570  16.789   3.091   9.362  0.4042 -0.3840  0.0154
 1232ERGO    C115571  16.844   3.143   8.988  0.1292 -0.2762 -0.0125
 1232ERGO    C215572  16.700   3.290   8.742  0.1634  0.2610  0.0393
 1233ERGO   ROH15573  15.391   8.699   6.724 -0.1435 -0.0947 -0.0489
 1233ERGO    R115574  15.415   8.797   6.988 -0.1615 -0.0702 -0.0570
 1233ERGO    R215575  15.225   8.750   7.183 -0.1403 -0.1097 -0.0495
 1233ERGO    R315576  15.437   8.654   7.323 -0.1096 -0.0402 -0.0469
 1233ERGO    R415577  15.221   8.675   7.520 -0.1349 -0.1517 -0.0581
 1233ERGO    R515578  15.421   8.762   7.536 -0.1693 -0.0710 -0.0341
 1233ERGO    C115579  15.419   8.541   7.848 -0.1031 -0.1110 -0.0607
 1233ERGO    C215580  15.418   8.430   8.265  0.3112 -0.0318  0.1796
 1234ERGO   ROH15581   3.673   5.701   6.525  0.3037 -0.1384 -0.1046
 1234ERGO    R115582   3.588   5.602   6.776  0.1599  0.0114 -0.0925
 1234ERGO    R215583   3.685   5.367   6.884 -0.0183 -0.0079  0.0329
 1234ERGO    R315584   3.743   5.526   7.096  0.0090  0.0419 -0.0119
 1234ERGO    R415585   3.753   5.253   7.203 -0.2638  0.0831  0.1202
 1234ERGO    R515586   3.636   5.419   7.282 -0.1671  0.2147 -0.0124
 1234ERGO    C115587   3.848   5.337   7.588 -0.3811  0.1828  0.1289
 1234ERGO    C215588   3.993   5.142   7.825  0.2391 -0.1681  0.0771
 1235ERGO   ROH15589   5.399   6.407   6.435  0.2373 -0.0372 -0.0565
 1235ERGO    R115590   5.412   6.290   6.692  0.2485 -0.1045 -0.0871
 1235ERGO    R215591   5.648   6.198   6.803  0.2963  0.0872 -0.0230
 1235ERGO    R315592   5.578   6.362   7.008  0.0575 -0.0396  0.0000
 1235ERGO    R415593   5.740   6.152   7.133  0.1126  0.0149  0.0190
 1235ERGO    R515594   5.540   6.214   7.192  0.0333 -0.1385 -0.0840
 1235ERGO    C115595   5.728   6.280   7.517 -0.2187 -0.1461  0.0650
 1235ERGO    C215596   5.811   6.190   7.811 -0.2756 -0.1351  0.0582
 1236ERGO   ROH15597  13.895  10.601  10.100 -0.0533  0.1263  0.0072
 1236ERGO    R115598  13.878  10.728   9.848 -0.0873  0.0385 -0.0344
 1236ERGO    R215599  14.101  10.779   9.692 -0.1071  0.0143 -0.0643
 1236ERGO    R315600  13.959  10.644   9.504 -0.1008 -0.0660 -0.0134
 1236ERGO    R415601  14.162  10.793   9.353 -0.1613 -0.0391 -0.0772
 1236ERGO    R515602  13.946  10.796   9.319 -0.1708 -0.1053 -0.0444
 1236ERGO    C115603  14.065  10.675   8.977 -0.1871 -0.1455 -0.0369
 1236ERGO    C215604  14.116  10.610   8.556 -0.0516  0.0853  0.1560
 1237ERGO   ROH15605  10.490   8.388  10.516  0.1605  0.2382  0.1606
 1237ERGO    R115606  10.572   8.407  10.246  0.0693  0.1963  0.1306
 1237ERGO    R215607  10.475   8.240  10.049  0.0800  0.1012  0.2126
 1237ERGO    R315608  10.414   8.474   9.925 -0.0556  0.0390  0.1558
 1237ERGO    R415609  10.438   8.279   9.707  0.2058  0.0180  0.1881
 1237ERGO    R515610  10.543   8.470   9.723  0.0468  0.1122  0.2137
 1237ERGO    C115611  10.361   8.523   9.393  0.1516 -0.0889  0.1206
 1237ERGO    C215612  10.294   8.583   9.082 -0.0412  0.2279 -0.5281
 1238ERGO   ROH15613   4.572   0.781   6.504 -0.0790 -0.1375 -0.1906
 1238ERGO    R115614   4.715   0.913   6.709 -0.1165 -0.1287 -0.1698
 1238ERGO    R215615   4.591   1.026   6.928 -0.1624 -0.0667 -0.2260
 1238ERGO    R315616   4.763   0.869   7.067 -0.2341 -0.0763 -0.1475
 1238ERGO    R415617   4.646   1.048   7.268 -0.1964  0.0336 -0.2266
 1238ERGO    R515618   4.859   1.016   7.231 -0.2038 -0.0528 -0.1881
 1238ERGO    C115619   4.841   0.913   7.598 -0.2836  0.0830 -0.1532
 1238ERGO    C215620   4.865   1.011   7.965  0.0578 -0.0497 -0.0188
 1239ERGO   ROH15621   3.059   2.362   6.717  0.2552  0.3734 -0.0786
 1239ERGO    R115622   2.978   2.303   6.982 -0.0287  0.2321 -0.1930
 1239ERGO    R215623   3.126   2.377   7.203 -0.0632 -0.2185 -0.0068
 1239ERGO    R315624   2.892   2.492   7.281  0.0548  0.0731 -0.0673
 1239ERGO    R415625   3.045   2.458   7.529 -0.1456 -0.3508  0.0064
 1239ERGO    R515626   2.842   2.388   7.491 -0.2329 -0.0195 -0.1774
 1239ERGO    C115627   2.778   2.613   7.792 -0.0828 -0.1540 -0.0428
 1239ERGO    C215628   2.514   2.789   7.993  0.0344  0.1315  0.0153
 1240ERGO   ROH15629  16.222  16.428  10.339 -0.0301  0.2035  0.0975
 1240ERGO    R115630  16.242  16.561  10.090  0.0872  0.1520  0.0777
 1240ERGO    R215631  16.435  16.499   9.902  0.0464 -0.0340  0.0897
 1240ERGO    R315632  16.221  16.469   9.738  0.0241  0.1145  0.0923
 1240ERGO    R415633  16.446  16.516   9.557  0.0241  0.0844  0.0951
 1240ERGO    R515634  16.258  16.626   9.562  0.0735  0.1591  0.1466
 1240ERGO    C115635  16.251  16.498   9.203 -0.0098  0.2929  0.1009
 1240ERGO    C215636  16.313  16.419   8.905  0.0751  0.0988  0.0121
 1241ERGO   ROH15637   4.086   7.756  10.073  0.1681 -0.0860  0.0495
 1241ERGO    R115638   4.224   7.740   9.826  0.0955 -0.0572  0.0053
 1241ERGO    R215639   4.195   7.527   9.652  0.0117 -0.0196 -0.0343
 1241ERGO    R315640   4.135   7.723   9.474 -0.0107  0.0295  0.0287
 1241ERGO    R415641   4.228   7.500   9.309 -0.0351  0.0799 -0.0459
 1241ERGO    R515642   4.303   7.704   9.305 -0.0364  0.0777  0.0010
 1241ERGO    C115643   4.192   7.668   8.942 -0.0834  0.1838  0.0063
 1241ERGO    C215644   4.100   7.600   8.642  0.2777  0.1866  0.2144
 1242ERGO   ROH15645  13.708   9.394   6.571  0.3602 -0.1508  0.3368
 1242ERGO    R115646  13.590   9.550   6.775  0.4377 -0.0291  0.2913
 1242ERGO    R215647  13.341   9.492   6.882  0.2108  0.3672  0.0197
 1242ERGO    R315648  13.478   9.497   7.117 -0.0017  0.0029  0.1571
 1242ERGO    R415649  13.210   9.591   7.186  0.0798  0.3770 -0.0405
 1242ERGO    R515650  13.397   9.692   7.229  0.1992  0.0569  0.2034
 1242ERGO    C115651  13.261   9.652   7.583 -0.1961  0.0405  0.0535
 1242ERGO    C215652  13.173   9.495   7.791 -0.3026 -0.1163 -0.1141
 1243ERGO   ROH15653  16.861  16.338  10.371 -0.0477  0.0998 -0.1563
 1243ERGO    R115654  16.822  16.421  10.103 -0.0286  0.0068 -0.1887
 1243ERGO    R215655  17.023  16.538   9.953 -0.0377  0.0233 -0.1925
 1243ERGO    R315656  16.964  16.339   9.777  0.0517 -0.0504 -0.1389
 1243ERGO    R415657  17.112  16.538   9.619 -0.1676  0.0398 -0.2274
 1243ERGO    R515658  16.915  16.454   9.573 -0.1183 -0.1223 -0.1385
 1243ERGO    C115659  17.108  16.352   9.260 -0.1596 -0.0197 -0.1974
 1243ERGO    C215660  17.221  16.484   8.983 -0.1063 -0.0200  0.0445
 1244ERGO   ROH15661  11.771   0.060   9.556 -0.1381 -0.0557 -0.1433
 1244ERGO    R115662  12.008   0.132   9.419 -0.0664  0.0208  0.0169
 1244ERGO    R215663  12.024   0.141   9.144  0.1419 -0.0513  0.0210
 1244ERGO    R315664  12.111   0.395   9.189 -0.0212  0.0043  0.0195
 1244ERGO    R415665  12.215   0.328   8.924  0.1290  0.0249  0.0758
 1244ERGO    R515666  12.330   0.401   9.093  0.0148  0.1157  0.1119
 1244ERGO    C115667  12.407   0.675   8.838 -0.0315  0.1215  0.1064
 1244ERGO    C215668  12.657   0.960   8.730  0.1948 -0.0568  0.0421
 1245ERGO   ROH15669   6.132  13.045   9.920  0.1676  0.1609 -0.0361
 1245ERGO    R115670   6.164  13.141   9.655  0.2553 -0.0335 -0.0985
 1245ERGO    R215671   6.226  12.975   9.443 -0.0247 -0.2482 -0.0205
 1245ERGO    R315672   6.004  13.087   9.333  0.1098  0.0122 -0.0343
 1245ERGO    R415673   6.164  12.999   9.104  0.0051 -0.2112 -0.0229
 1245ERGO    R515674   6.084  13.199   9.137  0.2486 -0.1077 -0.0470
 1245ERGO    C115675   5.919  13.118   8.803  0.1489  0.0548 -0.0374
 1245ERGO    C215676   5.834  13.157   8.518 -0.0017  0.0274  0.2531
 1246ERGO   ROH15677  16.360  11.452   6.649 -0.0440  0.0474 -0.2259
 1246ERGO    R115678  16.247  11.382   6.899  0.1506 -0.1060 -0.1785
 1246ERGO    R215679  15.978  11.409   6.953  0.2131 -0.0079  0.0937
 1246ERGO    R315680  15.998  11.146   7.019  0.1375 -0.0777 -0.1492
 1246ERGO    R415681  15.729  11.225   7.107  0.2623  0.0008  0.1846
 1246ERGO    R515682  15.882  11.129   7.228  0.3342 -0.1888 -0.0459
 1246ERGO    C115683  15.602  10.872   7.258  0.2198 -0.0596  0.0094
 1246ERGO    C215684  15.236  10.821   7.175  0.3694 -0.0378  0.0804
 1247ERGO   ROH15685   0.862  17.550   8.178  0.0901  0.1402  0.1183
 1247ERGO    R115686   1.064  17.545   8.377  0.1449  0.0437  0.0601
 1247ERGO    R215687   1.101  17.329   8.545  0.1389 -0.0037 -0.0022
 1247ERGO    R315688   1.355  17.341   8.451  0.1170 -0.0455 -0.0693
 1247ERGO    R415689   1.362  17.133   8.657  0.1589  0.0261  0.0050
 1247ERGO    R515690   1.492  17.307   8.645  0.1630  0.0188 -0.0887
 1247ERGO    C115691   1.753  17.029   8.635  0.1501  0.0044 -0.0537
 1247ERGO    C215692   2.004  16.779   8.722 -0.3394  0.2585  0.0024
 1248ERGO   ROH15693   6.395   5.070  10.057  0.0315 -0.0588  0.0726
 1248ERGO    R115694   6.335   4.996   9.790  0.0436  0.0402  0.0419
 1248ERGO    R215695   6.204   5.165   9.615  0.0570  0.1079  0.0966
 1248ERGO    R315696   6.420   5.116   9.457  0.0640  0.1602  0.0899
 1248ERGO    R415697   6.238   5.269   9.287 -0.0760 -0.0750  0.0232
 1248ERGO    R515698   6.328   5.077   9.240  0.0515 -0.0429  0.1299
 1248ERGO    C115699   6.460   5.284   8.948 -0.1469 -0.1323 -0.0259
 1248ERGO    C215700   6.499   5.288   8.548  0.0671  0.0811 -0.0742
 1249ERGO   ROH15701   3.316  14.963   6.764 -0.3077  0.1751 -0.0367
 1249ERGO    R115702   3.260  14.982   7.041 -0.1539  0.1781 -0.0056
 1249ERGO    R215703   3.333  14.785   7.220 -0.2318  0.0845 -0.0762
 1249ERGO    R315704   3.453  14.993   7.349  0.0118 -0.0374 -0.0991
 1249ERGO    R415705   3.426  14.783   7.553 -0.1155 -0.0261 -0.1077
 1249ERGO    R515706   3.357  14.990   7.569  0.0857  0.0393 -0.0658
 1249ERGO    C115707   3.593  14.977   7.868  0.1810 -0.2050 -0.1475
 1249ERGO    C215708   3.879  14.957   8.129 -0.1408 -0.2195  0.3086
 1250ERGO   ROH15709  13.450  10.374   9.994 -0.0510  0.1321  0.1023
 1250ERGO    R115710  13.570  10.450   9.749 -0.0642  0.1741  0.1070
 1250ERGO    R215711  13.693  10.267   9.581  0.0494  0.2195  0.1295
 1250ERGO    R315712  13.522  10.371   9.397  0.0087  0.1175  0.1112
 1250ERGO    R415713  13.760  10.299   9.244  0.0583  0.2608  0.1364
 1250ERGO    R515714  13.663  10.494   9.247 -0.0543  0.1986  0.1247
 1250ERGO    C115715  13.639  10.416   8.875  0.0251  0.1893  0.1233
 1250ERGO    C215716  13.628  10.527   8.601 -0.1175 -0.2023  0.0152
 1251ERGO   ROH15717   0.977   4.420   9.938  0.3104  0.2174 -0.0120
 1251ERGO    R115718   0.850   4.408   9.685  0.2050 -0.0634  0.0518
 1251ERGO    R215719   0.866   4.614   9.501 -0.1364 -0.1330 -0.0546
 1251ERGO    R315720   0.955   4.416   9.337  0.0307 -0.1034 -0.0037
 1251ERGO    R415721   0.887   4.637   9.157 -0.1127 -0.1784 -0.0570
 1251ERGO    R515722   0.814   4.432   9.143  0.0372 -0.2405 -0.0256
 1251ERGO    C115723   0.982   4.465   8.802  0.0579 -0.1770 -0.0105
 1251ERGO    C215724   0.973   4.322   8.528 -0.1526 -0.1376 -0.0885
 1252ERGO   ROH15725   2.725   9.745   6.834 -0.1907 -0.0679  0.0422
 1252ERGO    R115726   2.660   9.677   7.101 -0.0652 -0.0314  0.0820
 1252ERGO    R215727   2.852   9.626   7.293  0.0230 -0.0627 -0.0200
 1252ERGO    R315728   2.717   9.817   7.432  0.1437 -0.0214  0.0446
 1252ERGO    R415729   2.880   9.679   7.633  0.1496 -0.1214 -0.0199
 1252ERGO    R515730   2.664   9.712   7.641  0.1613 -0.0304  0.0479
 1252ERGO    C115731   2.770   9.889   7.962  0.3366 -0.1170  0.0409
 1252ERGO    C215732   2.652   9.803   8.343 -0.1595  0.1889  0.0393
 1253ERGO   ROH15733  15.026   0.137   7.111  0.1979  0.1683  0.2308
 1253ERGO    R115734  14.829   0.106   7.312  0.0048  0.0185  0.0231
 1253ERGO    R215735  14.663  -0.114   7.324  0.2597 -0.1837 -0.0736
 1253ERGO    R315736  14.758  -0.133   7.578 -0.0018  0.0484  0.0493
 1253ERGO    R415737  14.531  -0.320   7.569  0.1649 -0.1533 -0.0979
 1253ERGO    R515738  14.561  -0.158   7.713 -0.1338 -0.0389 -0.1532
 1253ERGO    C115739  14.544  -0.457   7.950 -0.1357  0.0822  0.0033
 1253ERGO    C215740  14.260  -0.675   8.180 -0.1159  0.4586  0.3191
 1254ERGO   ROH15741   3.804  11.032   6.803  0.1683 -0.1492  0.2134
 1254ERGO    R115742   3.774  10.970   7.077  0.2005 -0.0582  0.2385
 1254ERGO    R215743   3.937  11.078   7.273  0.1457  0.1042  0.1995
 1254ERGO    R315744   3.700  11.153   7.383  0.1055  0.0242  0.1667
 1254ERGO    R415745   3.848  11.029   7.603  0.1600  0.1697  0.2125
 1254ERGO    R515746   3.647  10.977   7.537  0.1875  0.0491  0.2231
 1254ERGO    C115747   3.574  11.071   7.899  0.1306  0.1328  0.1892
 1254ERGO    C215748   3.295  11.092   8.219 -0.0208 -0.3033  0.2688
 1255ERGO   ROH15749   1.213   8.358   9.758  0.2590  0.0238  0.2102
 1255ERGO    R115750   1.335   8.241   9.531  0.1151  0.0018  0.1440
 1255ERGO    R215751   1.214   8.238   9.283  0.0113  0.0858  0.1974
 1255ERGO    R315752   1.446   8.354   9.203  0.0289 -0.0050  0.1106
 1255ERGO    R415753   1.352   8.207   8.967 -0.1025 -0.0087  0.1554
 1255ERGO    R515754   1.549   8.191   9.061 -0.0744 -0.0656  0.0989
 1255ERGO    C115755   1.651   8.299   8.709 -0.1521 -0.1489  0.0496
 1255ERGO    C215756   1.775   8.216   8.404  0.1365  0.1145 -0.2057
 1256ERGO   ROH15757   0.250  12.687  10.637  0.0960 -0.2270 -0.0564
 1256ERGO    R115758   0.345  12.679  10.370  0.1087 -0.0557 -0.0593
 1256ERGO    R215759   0.178  12.697  10.151  0.0753 -0.2769 -0.0640
 1256ERGO    R315760   0.343  12.901  10.082 -0.2236 -0.0207 -0.0293
 1256ERGO    R415761   0.259  12.785   9.827  0.1913 -0.2824 -0.0359
 1256ERGO    R515762   0.463  12.819   9.892  0.0754  0.1059  0.1100
 1256ERGO    C115763   0.461  13.028   9.573 -0.0216 -0.0451  0.0130
 1256ERGO    C215764   0.464  13.135   9.281  0.1140 -0.0119 -0.1177
 1257ERGO   ROH15765  11.828  11.302   6.389  0.0417  0.1189 -0.0369
 1257ERGO    R115766  11.728  11.339   6.652 -0.1004  0.0599 -0.0811
 1257ERGO    R215767  11.886  11.426   6.861 -0.1693 -0.1591  0.0680
 1257ERGO    R315768  11.694  11.617   6.884 -0.0467 -0.0304  0.0357
 1257ERGO    R415769  11.827  11.613   7.145 -0.1626 -0.2034  0.0975
 1257ERGO    R515770  11.614  11.592   7.109 -0.1634 -0.0426 -0.0060
 1257ERGO    C115771  11.612  11.901   7.333 -0.0437 -0.1085  0.0844
 1257ERGO    C215772  11.698  11.963   7.624  0.3173 -0.3173  0.3479
 1258ERGO   ROH15773   1.790   7.168   6.605 -0.2726 -0.3441 -0.1885
 1258ERGO    R115774   1.936   7.180   6.847 -0.2448 -0.1719 -0.2135
 1258ERGO    R215775   1.842   7.071   7.083 -0.1879 -0.0594 -0.1426
 1258ERGO    R315776   2.081   6.941   7.080 -0.1564 -0.0049 -0.0934
 1258ERGO    R415777   2.036   7.005   7.362 -0.2854 -0.1055 -0.0840
 1258ERGO    R515778   2.213   7.054   7.245 -0.2471 -0.0253 -0.0016
 1258ERGO    C115779   2.373   6.846   7.521 -0.3125 -0.0811 -0.0038
 1258ERGO    C215780   2.521   6.602   7.785 -0.2513 -0.3459  0.1032
 1259ERGO   ROH15781   1.961  17.401   6.861 -0.0036 -0.2177 -0.2082
 1259ERGO    R115782   1.977  17.322   7.133 -0.1078 -0.0340 -0.1468
 1259ERGO    R215783   1.754  17.271   7.286 -0.1626 -0.2631 -0.3000
 1259ERGO    R315784   1.879  17.033   7.331  0.1473 -0.0643 -0.0596
 1259ERGO    R415785   1.720  17.081   7.573 -0.2669 -0.2260 -0.2873
 1259ERGO    R515786   1.934  17.038   7.564 -0.1785  0.0968  0.0206
 1259ERGO    C115787   1.817  16.747   7.782 -0.0368 -0.0176 -0.0540
 1259ERGO    C215788   1.654  16.544   7.950  0.0346 -0.1545  0.1267
 1260ERGO   ROH15789   5.101   9.844  10.023  0.0336  0.1412 -0.0659
 1260ERGO    R115790   5.216   9.835   9.764 -0.0446 -0.0018 -0.0958
 1260ERGO    R215791   5.184   9.618   9.596 -0.1706 -0.0562 -0.0001
 1260ERGO    R315792   5.094   9.808   9.422 -0.1521 -0.0939 -0.0518
 1260ERGO    R415793   5.239   9.616   9.254  0.0173 -0.0452  0.0287
 1260ERGO    R515794   5.271   9.831   9.263 -0.0712 -0.0292  0.0432
 1260ERGO    C115795   5.186   9.792   8.893  0.1441 -0.0741 -0.0031
 1260ERGO    C215796   5.095   9.822   8.521 -0.1893 -0.2520 -0.0282
 1261ERGO   ROH15797  10.110   2.546   9.552 -0.0878 -0.0929 -0.0842
 1261ERGO    R115798  10.098   2.590   9.273 -0.0199 -0.0467 -0.0805
 1261ERGO    R215799  10.312   2.690   9.128  0.0453 -0.1004 -0.0278
 1261ERGO    R315800  10.272   2.467   8.978 -0.0078 -0.0659 -0.0642
 1261ERGO    R415801  10.390   2.661   8.793 -0.0905 -0.0259 -0.0662
 1261ERGO    R515802  10.205   2.550   8.764 -0.0956 -0.0229 -0.0172
 1261ERGO    C115803  10.398   2.435   8.456 -0.2194  0.0499 -0.1227
 1261ERGO    C215804  10.509   2.609   8.254  0.0524  0.1839  0.2483
 1262ERGO   ROH15805   7.062  15.211  10.168 -0.2476  0.2119 -0.0105
 1262ERGO    R115806   6.954  15.123   9.921 -0.1262  0.0278  0.0012
 1262ERGO    R215807   6.863  15.298   9.727 -0.0705 -0.1171 -0.1574
 1262ERGO    R315808   7.037  15.161   9.568  0.0208 -0.1981  0.0091
 1262ERGO    R415809   6.869  15.313   9.382  0.1638 -0.2509 -0.1617
 1262ERGO    R515810   6.906  15.098   9.378  0.1421 -0.2560 -0.0553
 1262ERGO    C115811   7.036  15.194   9.032  0.3859 -0.4048 -0.0080
 1262ERGO    C215812   6.960  15.252   8.728  0.1194  0.0788  0.0499
 1263ERGO   ROH15813   8.591  13.597   6.875  0.0522 -0.2261  0.0318
 1263ERGO    R115814   8.794  13.554   7.068  0.0848 -0.2045  0.0026
 1263ERGO    R215815   8.746  13.565   7.340  0.1675  0.0099  0.0131
 1263ERGO    R315816   8.859  13.317   7.337  0.0295 -0.0564  0.1473
 1263ERGO    R415817   8.929  13.427   7.599 -0.2325 -0.1140  0.2385
 1263ERGO    R515818   9.067  13.345   7.452 -0.0954 -0.1873  0.4086
 1263ERGO    C115819   9.141  13.115   7.746 -0.5950 -0.2484  0.4957
 1263ERGO    C215820   9.224  12.930   8.068 -0.0214  0.1151 -0.2314
 1264ERGO   ROH15821  16.787  16.700   7.044 -0.1612 -0.2652  0.0431
 1264ERGO    R115822  16.918  16.708   7.295 -0.0380 -0.3228 -0.0185
 1264ERGO    R215823  16.804  16.824   7.519  0.2490  0.0161 -0.0411
 1264ERGO    R315824  16.854  16.581   7.631 -0.1112 -0.0038  0.0919
 1264ERGO    R415825  16.882  16.772   7.851  0.4696  0.1255 -0.0742
 1264ERGO    R515826  17.029  16.624   7.788  0.1304 -0.2128 -0.1092
 1264ERGO    C115827  16.975  16.514   8.150  0.2598  0.1704  0.0313
 1264ERGO    C215828  16.981  16.207   8.367 -0.0145 -0.1090  0.0954
 1265ERGO   ROH15829  13.251  17.492  10.084  0.2346  0.0820  0.3303
 1265ERGO    R115830  13.407  17.649   9.908  0.2869 -0.0786  0.2336
 1265ERGO    R215831  13.550  17.540   9.698 -0.1785 -0.2012 -0.0262
 1265ERGO    R315832  13.411  17.722   9.551 -0.0519  0.1494  0.2704
 1265ERGO    R415833  13.629  17.636   9.376 -0.4687 -0.2152 -0.1063
 1265ERGO    R515834  13.579  17.841   9.430  0.0149 -0.1264  0.0753
 1265ERGO    C115835  13.545  17.863   9.050 -0.5188  0.1059  0.1254
 1265ERGO    C215836  13.678  17.738   8.673  0.0098  0.2285  0.0854
 1266ERGO   ROH15837  11.499   5.258   6.521 -0.2415 -0.0860  0.2844
 1266ERGO    R115838  11.552   5.149   6.776 -0.0392 -0.1147  0.2314
 1266ERGO    R215839  11.725   4.937   6.814 -0.0120 -0.1184  0.0705
 1266ERGO    R315840  11.843   5.106   6.990  0.1316 -0.1429 -0.0007
 1266ERGO    R415841  11.891   4.839   7.101 -0.2861 -0.1409  0.2244
 1266ERGO    R515842  11.801   5.008   7.205 -0.1128  0.0669  0.0553
 1266ERGO    C115843  12.098   4.941   7.434 -0.3110 -0.1768  0.2472
 1266ERGO    C215844  12.438   4.813   7.581  0.0687  0.0773  0.0221
 1267ERGO   ROH15845   8.297   7.177  10.241  0.1014  0.0724  0.0644
 1267ERGO    R115846   8.215   7.052  10.000  0.0448  0.0293  0.1045
 1267ERGO    R215847   7.978   7.116   9.873  0.0077  0.0037  0.1485
 1267ERGO    R315848   8.141   7.158   9.660 -0.0399 -0.0266  0.1072
 1267ERGO    R415849   7.874   7.131   9.544 -0.0635  0.0310  0.1728
 1267ERGO    R515850   8.051   7.018   9.488 -0.1060 -0.0007  0.1268
 1267ERGO    C115851   7.966   7.179   9.152 -0.1497  0.0185  0.1482
 1267ERGO    C215852   8.004   7.212   8.811 -0.3450 -0.3054 -0.2470
 1268ERGO   ROH15853   9.032   1.830   6.122  0.1874  0.2692 -0.1114
 1268ERGO    R115854   8.888   1.745   6.350  0.0938  0.1756 -0.2046
 1268ERGO    R215855   9.007   1.711   6.597  0.0084 -0.0029 -0.1892
 1268ERGO    R315856   8.811   1.880   6.679  0.0311  0.0033 -0.1466
 1268ERGO    R415857   8.807   1.660   6.874  0.0277 -0.0354 -0.1811
 1268ERGO    R515858   8.637   1.735   6.758  0.0235  0.0019 -0.1580
 1268ERGO    C115859   8.505   1.788   7.112  0.0603 -0.0485 -0.1364
 1268ERGO    C215860   8.512   1.926   7.375  0.0060  0.2155  0.0141
 1269ERGO   ROH15861   2.464  11.760   9.985 -0.1243 -0.1426  0.1116
 1269ERGO    R115862   2.338  11.879   9.762 -0.1634 -0.2571  0.0728
 1269ERGO    R215863   2.474  12.039   9.582 -0.2626 -0.0931  0.1480
 1269ERGO    R315864   2.373  11.865   9.400 -0.0013 -0.1838  0.0829
 1269ERGO    R415865   2.420  12.111   9.248 -0.3049 -0.0636  0.1606
 1269ERGO    R515866   2.233  12.000   9.260 -0.1646 -0.3234  0.1012
 1269ERGO    C115867   2.292  11.990   8.883 -0.0842 -0.1315  0.1068
 1269ERGO    C215868   2.213  11.946   8.557  0.0432 -0.0909  0.2364
 1270ERGO   ROH15869  13.367  13.232   6.903 -0.1693  0.0184 -0.1772
 1270ERGO    R115870  13.222  13.407   7.072 -0.1526  0.0472 -0.1926
 1270ERGO    R215871  12.959  13.475   7.025 -0.2358 -0.1623 -0.0396
 1270ERGO    R315872  12.924  13.386   7.280  0.0197  0.0011  0.0555
 1270ERGO    R415873  12.765  13.632   7.264 -0.2236 -0.1555 -0.0341
 1270ERGO    R515874  12.919  13.586   7.412 -0.0772  0.1031 -0.0976
 1270ERGO    C115875  12.620  13.640   7.643  0.0234  0.0018  0.0583
 1270ERGO    C215876  12.528  13.797   7.914 -0.1112  0.2922 -0.0087
 1271ERGO   ROH15877  17.691  11.883   6.962  0.0180  0.0035  0.0551
 1271ERGO    R115878  17.792  11.966   7.213 -0.1003  0.0547  0.0854
 1271ERGO    R215879  17.649  12.128   7.385 -0.2565 -0.0653  0.0625
 1271ERGO    R315880  17.695  11.927   7.562 -0.1524 -0.0436  0.0622
 1271ERGO    R415881  17.679  12.169   7.727 -0.3806 -0.0543  0.0737
 1271ERGO    R515882  17.842  12.024   7.725 -0.2656  0.0638  0.1077
 1271ERGO    C115883  17.741  12.004   8.092 -0.3553 -0.0276  0.0800
 1271ERGO    C215884  17.663  12.071   8.476  0.1462 -0.0143  0.1103
 1272ERGO   ROH15885   0.537   2.473   6.669 -0.0603 -0.1277 -0.0544
 1272ERGO    R115886   0.399   2.389   6.902 -0.0188 -0.0994 -0.0183
 1272ERGO    R215887   0.529   2.322   7.137  0.0163  0.0653  0.0150
 1272ERGO    R315888   0.361   2.507   7.244 -0.0771  0.0292 -0.0692
 1272ERGO    R415889   0.426   2.327   7.466 -0.2433 -0.0165 -0.0630
 1272ERGO    R515890   0.227   2.383   7.398 -0.1913 -0.0115 -0.2035
 1272ERGO    C115891   0.209   2.504   7.759 -0.4821 -0.0979 -0.1874
 1272ERGO    C215892   0.235   2.417   8.057 -0.1470 -0.1244 -0.0001
 1273ERGO   ROH15893   1.356   3.651   9.935 -0.2269 -0.0567 -0.1169
 1273ERGO    R115894   1.407   3.705   9.661 -0.0371 -0.1370 -0.0997
 1273ERGO    R215895   1.475   3.507   9.480 -0.1529 -0.2313 -0.0493
 1273ERGO    R315896   1.264   3.608   9.341  0.0135 -0.0236 -0.1554
 1273ERGO    R415897   1.430   3.478   9.139 -0.0094 -0.1587 -0.0746
 1273ERGO    R515898   1.358   3.683   9.135  0.1860 -0.0958 -0.0994
 1273ERGO    C115899   1.206   3.555   8.810  0.2303  0.0786 -0.1889
 1273ERGO    C215900   1.155   3.352   8.565  0.0432  0.0273 -0.3973
 1274ERGO   ROH15901  11.208   9.186   6.507 -0.0429 -0.2309 -0.0204
 1274ERGO    R115902  11.180   9.118   6.781  0.0464 -0.1390  0.0117
 1274ERGO    R215903  11.396   9.099   6.952  0.0878  0.0671 -0.0172
 1274ERGO    R315904  11.253   9.276   7.101  0.0011  0.0363 -0.0625
 1274ERGO    R415905  11.424   9.137   7.295  0.0730  0.1683 -0.0265
 1274ERGO    R515906  11.207   9.159   7.305  0.0603  0.0645 -0.0313
 1274ERGO    C115907  11.306   9.325   7.634 -0.0171  0.1983 -0.0745
 1274ERGO    C215908  11.375   9.375   7.981 -0.0848  0.3591  0.0557
 1275ERGO   ROH15909   4.656  13.134   6.564  0.0075  0.0171 -0.0073
 1275ERGO    R115910   4.664  13.044   6.832 -0.0046  0.1232  0.0302
 1275ERGO    R215911   4.846  13.141   7.017 -0.0460  0.2368  0.0179
 1275ERGO    R315912   4.621  13.191   7.162 -0.0770  0.2450 -0.0345
 1275ERGO    R415913   4.829  13.139   7.362 -0.1684  0.0875  0.0114
 1275ERGO    R515914   4.636  13.040   7.347 -0.1929  0.1600 -0.0977
 1275ERGO    C115915   4.609  13.184   7.699 -0.2688  0.0083 -0.0415
 1275ERGO    C215916   4.527  13.342   7.977 -0.1601 -0.2244 -0.1263
 1276ERGO   ROH15917   6.931  13.548  10.172 -0.0782 -0.0723 -0.0364
 1276ERGO    R115918   7.011  13.629   9.912  0.0118 -0.0386  0.0027
 1276ERGO    R215919   7.057  13.449   9.708 -0.0100 -0.0032 -0.0269
 1276ERGO    R315920   6.878  13.604   9.575  0.0817  0.0971 -0.0371
 1276ERGO    R415921   7.030  13.469   9.364 -0.1754 -0.2340 -0.0308
 1276ERGO    R515922   6.998  13.684   9.384  0.0704 -0.1753 -0.1678
 1276ERGO    C115923   6.846  13.627   9.039 -0.1856 -0.2743 -0.0428
 1276ERGO    C215924   6.808  13.692   8.632  0.1947 -0.1386  0.2155
 1277ERGO   ROH15925  10.155   6.291   6.389  0.1167 -0.0065 -0.0219
 1277ERGO    R115926  10.223   6.151   6.626  0.1635  0.0113 -0.0233
 1277ERGO    R215927  10.302   6.279   6.858  0.0711  0.0383 -0.0005
 1277ERGO    R315928  10.099   6.135   6.968  0.1308 -0.0745 -0.0401
 1277ERGO    R415929  10.281   6.188   7.191  0.0428  0.0418 -0.0023
 1277ERGO    R515930  10.207   5.993   7.128  0.1724 -0.0024 -0.0084
 1277ERGO    C115931  10.079   5.999   7.487  0.0823 -0.0619 -0.0405
 1277ERGO    C215932   9.921   5.966   7.758 -0.0802  0.3690  0.0381
 1278ERGO   ROH15933   7.472   5.230   9.888  0.0734  0.3446  0.0212
 1278ERGO    R115934   7.363   5.289   9.633 -0.0421  0.1630  0.0271
 1278ERGO    R215935   7.519   5.310   9.406 -0.1168  0.2126 -0.0210
 1278ERGO    R315936   7.346   5.124   9.309  0.0121  0.0308  0.0910
 1278ERGO    R415937   7.504   5.205   9.077 -0.2161  0.1884 -0.0092
 1278ERGO    R515938   7.287   5.205   9.092 -0.2075 -0.0348  0.1250
 1278ERGO    C115939   7.333   4.970   8.795 -0.1529  0.0035  0.1028
 1278ERGO    C215940   7.385   4.843   8.507  0.1051 -0.2028 -0.0066
 1279ERGO   ROH15941  15.592  10.594  10.326 -0.1899 -0.1028 -0.0125
 1279ERGO    R115942  15.601  10.479  10.068 -0.1294 -0.0832 -0.0194
 1279ERGO    R215943  15.373  10.405   9.929 -0.1050  0.0499 -0.1346
 1279ERGO    R315944  15.478  10.564   9.736  0.0708  0.0137 -0.0702
 1279ERGO    R415945  15.373  10.332   9.591 -0.1461  0.1647 -0.1592
 1279ERGO    R515946  15.575  10.412   9.579 -0.0649 -0.0299 -0.1126
 1279ERGO    C115947  15.471  10.440   9.213 -0.0048  0.1976 -0.1131
 1279ERGO    C215948  15.545  10.442   8.949 -0.1365 -0.1202  0.2652
 1280ERGO   ROH15949  14.305  11.621  10.071  0.2468 -0.1736 -0.0007
 1280ERGO    R115950  14.143  11.603   9.839  0.0952 -0.0631  0.0947
 1280ERGO    R215951  14.068  11.824   9.692  0.1637 -0.0118  0.1377
 1280ERGO    R315952  14.177  11.684   9.486 -0.0571 -0.0917  0.0725
 1280ERGO    R415953  14.058  11.920   9.360 -0.0152 -0.0332  0.1361
 1280ERGO    R515954  14.022  11.712   9.306 -0.1695 -0.0199  0.1778
 1280ERGO    C115955  14.154  11.844   8.973 -0.3266 -0.1207  0.0742
 1280ERGO    C215956  14.434  11.909   8.653  0.0548  0.1724 -0.1626
 1281ERGO   ROH15957  11.443  10.914  10.009 -0.3830 -0.0910  0.0290
 1281ERGO    R115958  11.301  10.887   9.766 -0.2867  0.1157 -0.0529
 1281ERGO    R215959  11.250  11.100   9.598  0.0726  0.2025 -0.0586
 1281ERGO    R315960  11.369  10.941   9.412 -0.0233  0.0735 -0.0105
 1281ERGO    R415961  11.142  11.061   9.272  0.1324  0.2804 -0.0884
 1281ERGO    R515962  11.187  10.849   9.288 -0.0753  0.2372 -0.0577
 1281ERGO    C115963  11.190  10.888   8.908  0.0771  0.2046 -0.0606
 1281ERGO    C215964  11.407  10.751   8.572  0.3161 -0.2632 -0.1016
 1282ERGO   ROH15965   7.809   5.578   6.399 -0.0266  0.1251  0.0769
 1282ERGO    R115966   7.854   5.681   6.659  0.0301  0.0149  0.1125
 1282ERGO    R215967   7.651   5.711   6.845  0.0293  0.1356  0.0999
 1282ERGO    R315968   7.815   5.561   7.001 -0.1140 -0.0519  0.0725
 1282ERGO    R415969   7.641   5.702   7.190  0.0999  0.1690  0.1017
 1282ERGO    R515970   7.859   5.700   7.191  0.0970 -0.0930  0.0525
 1282ERGO    C115971   7.791   5.557   7.538  0.0065  0.0124  0.0770
 1282ERGO    C215972   7.802   5.412   7.935  0.2169  0.2519 -0.1591
 1283ERGO   ROH15973  16.679  15.432   6.776  0.0288 -0.0952  0.0316
 1283ERGO    R115974  16.698  15.264   7.004 -0.0496 -0.0896  0.0430
 1283ERGO    R215975  16.879  15.310   7.208  0.0690 -0.2378 -0.0248
 1283ERGO    R315976  16.656  15.301   7.363  0.1123 -0.0083  0.0546
 1283ERGO    R415977  16.878  15.242   7.547  0.0946 -0.6003 -0.0939
 1283ERGO    R515978  16.699  15.121   7.517 -0.1376 -0.2544 -0.1538
 1283ERGO    C115979  16.669  15.194   7.890  0.1501 -0.5957 -0.0597
 1283ERGO    C215980  16.694  15.323   8.276 -0.1016  0.0983 -0.0472
 1284ERGO   ROH15981   5.098  16.084  10.323 -0.0594  0.0828 -0.1524
 1284ERGO    R115982   5.230  16.200  10.101  0.0759  0.0670 -0.0829
 1284ERGO    R215983   5.454  16.087   9.985  0.0074 -0.0723 -0.0916
 1284ERGO    R315984   5.305  16.103   9.758  0.0540  0.1429 -0.1079
 1284ERGO    R415985   5.580  16.066   9.663  0.0184 -0.1583 -0.0809
 1284ERGO    R515986   5.443  16.225   9.604  0.2113  0.0104 -0.0688
 1284ERGO    C115987   5.513  16.068   9.264  0.0686 -0.0061 -0.0901
 1284ERGO    C215988   5.586  16.123   8.988 -0.1188  0.1997  0.1757
 1285ERGO   ROH15989  15.230   4.961   6.519  0.0086 -0.3450  0.1598
 1285ERGO    R115990  15.051   5.094   6.695  0.0556 -0.1258  0.0449
 1285ERGO    R215991  15.040   5.038   6.965 -0.0341  0.0439  0.0750
 1285ERGO    R315992  15.079   5.306   6.989  0.1278  0.0368 -0.0770
 1285ERGO    R415993  15.041   5.211   7.264  0.2401  0.1891 -0.0051
 1285ERGO    R515994  14.931   5.372   7.165  0.2672  0.2026 -0.0170
 1285ERGO    C115995  15.077   5.564   7.461  0.5517  0.2670 -0.1944
 1285ERGO    C215996  15.109   5.766   7.769 -0.0472 -0.0255 -0.0494
 1286ERGO   ROH15997  15.955  13.996  10.388  0.0412  0.0186 -0.0105
 1286ERGO    R115998  15.856  13.873  10.153 -0.0397  0.1280 -0.0351
 1286ERGO    R215999  15.663  13.990   9.993  0.0255  0.2801 -0.0077
 1286ERGO    R316000  15.847  13.951   9.798 -0.0007  0.2103 -0.0177
 1286ERGO    R416001  15.613  14.057   9.658 -0.0315  0.1168 -0.0319
 1286ERGO    R516002  15.720  13.873   9.610 -0.0185  0.1084  0.0376
 1286ERGO    C116003  15.757  14.058   9.279 -0.0895 -0.0438 -0.0555
 1286ERGO    C216004  15.686  14.074   8.946 -0.0053  0.0609 -0.0099
 1287ERGO   ROH16005   9.457   1.006   5.959  0.2938  0.2583 -0.0956
 1287ERGO    R116006   9.515   0.984   6.235  0.0194  0.2150 -0.0381
 1287ERGO    R216007   9.317   0.978   6.429 -0.1881 -0.0434 -0.2460
 1287ERGO    R316008   9.442   0.748   6.503 -0.0461  0.0470 -0.2023
 1287ERGO    R416009   9.277   0.822   6.734 -0.0256  0.0331 -0.1848
 1287ERGO    R516010   9.491   0.779   6.735 -0.0033  0.1479 -0.2254
 1287ERGO    C116011   9.370   0.514   6.981  0.2022  0.1625 -0.1082
 1287ERGO    C216012   9.384   0.321   7.264  0.0898  0.1083 -0.1731
 1288ERGO   ROH16013   1.587   9.506   6.339  0.0994  0.0840 -0.2097
 1288ERGO    R116014   1.700   9.658   6.549 -0.0683  0.1548 -0.1688
 1288ERGO    R216015   1.554   9.840   6.697 -0.3146 -0.1610 -0.0108
 1288ERGO    R316016   1.647   9.695   6.907  0.0018 -0.1322 -0.1265
 1288ERGO    R416017   1.542   9.941   7.027 -0.0735 -0.2372  0.0227
 1288ERGO    R516018   1.742   9.859   7.054  0.0188 -0.0892 -0.1864
 1288ERGO    C116019   1.624   9.865   7.417  0.3639 -0.2546 -0.0664
 1288ERGO    C216020   1.641   9.886   7.763 -0.0508  0.1567 -0.0479
 1289ERGO   ROH16021   8.920   8.708  10.275 -0.1305 -0.1605  0.0237
 1289ERGO    R116022   9.011   8.658  10.011 -0.0357 -0.0668  0.0383
 1289ERGO    R216023   8.869   8.501   9.833  0.0649 -0.0617 -0.0429
 1289ERGO    R316024   8.890   8.721   9.674  0.0499 -0.0163  0.0162
 1289ERGO    R416025   8.942   8.494   9.495  0.0444  0.0303 -0.0502
 1289ERGO    R516026   9.069   8.669   9.524  0.0435  0.0272 -0.0094
 1289ERGO    C116027   9.003   8.696   9.149  0.0184  0.1265  0.0010
 1289ERGO    C216028   9.019   8.770   8.853  0.2212  0.0659 -0.1535
 1290ERGO   ROH16029   6.890  13.589   6.728  0.0346  0.1045 -0.0543
 1290ERGO    R116030   6.775  13.654   6.978  0.1581  0.2067 -0.0236
 1290ERGO    R216031   6.683  13.462   7.154 -0.0987  0.2909 -0.0663
 1290ERGO    R316032   6.848  13.589   7.328  0.1074  0.0071 -0.0481
 1290ERGO    R416033   6.643  13.465   7.497 -0.0836  0.2809 -0.0640
 1290ERGO    R516034   6.702  13.675   7.497  0.2391  0.1990 -0.0253
 1290ERGO    C116035   6.776  13.585   7.861  0.1187  0.0087 -0.0455
 1290ERGO    C216036   6.616  13.634   8.168 -0.0991 -0.1887  0.0046
 1291ERGO   ROH16037  11.557   8.717  10.332  0.1050  0.0164  0.1181
 1291ERGO    R116038  11.701   8.707  10.088  0.1150  0.0145  0.1236
 1291ERGO    R216039  11.616   8.558   9.871  0.1309 -0.0009  0.1240
 1291ERGO    R316040  11.639   8.795   9.741  0.1208 -0.0032  0.1192
 1291ERGO    R416041  11.637   8.596   9.528  0.1158  0.0020  0.1236
 1291ERGO    R516042  11.787   8.751   9.559  0.1113  0.0021  0.1141
 1291ERGO    C116043  11.672   8.841   9.207  0.0976  0.0015  0.1189
 1291ERGO    C216044  11.844   9.003   8.919 -0.1856  0.0068 -0.0702
 1292ERGO   ROH16045  11.018   1.800   6.458  0.1093 -0.0581  0.1331
 1292ERGO    R116046  11.123   1.783   6.721  0.0128  0.0257  0.1768
 1292ERGO    R216047  11.090   1.984   6.907 -0.2700 -0.0217  0.1783
 1292ERGO    R316048  10.989   1.782   7.059 -0.1345 -0.1361  0.1204
 1292ERGO    R416049  11.069   1.989   7.252 -0.5731  0.0072  0.1630
 1292ERGO    R516050  11.129   1.779   7.253 -0.2920  0.0826  0.2439
 1292ERGO    C116051  10.962   1.803   7.596 -0.6221 -0.0833  0.0998
 1292ERGO    C216052  10.814   1.807   7.872 -0.1650  0.0017  0.3029
 1293ERGO   ROH16053   7.827  13.964   6.380 -0.1646  0.0350 -0.0549
 1293ERGO    R116054   7.850  14.141   6.599 -0.0724  0.0021 -0.0373
 1293ERGO    R216055   7.697  14.116   6.828 -0.0643  0.0403 -0.0265
 1293ERGO    R316056   7.940  14.117   6.951 -0.0525 -0.0742 -0.0479
 1293ERGO    R416057   7.748  14.172   7.165 -0.0022  0.0447 -0.0363
 1293ERGO    R516058   7.923  14.291   7.115  0.0543 -0.0515 -0.0622
 1293ERGO    C116059   8.005  14.205   7.477  0.0450 -0.0603 -0.0621
 1293ERGO    C216060   7.936  14.082   7.809  0.0434 -0.3764  0.3637
 1294ERGO   ROH16061  14.799   5.920   9.980  0.1444 -0.0525 -0.0961
 1294ERGO    R116062  14.612   6.020   9.792  0.0642 -0.1258 -0.0558
 1294ERGO    R216063  14.677   6.215   9.608 -0.0708 -0.0520 -0.0248
 1294ERGO    R316064  14.582   6.033   9.430  0.0159 -0.0730 -0.0503
 1294ERGO    R416065  14.602   6.284   9.278 -0.0438 -0.0557 -0.0319
 1294ERGO    R516066  14.425   6.157   9.297 -0.0056 -0.1158 -0.0661
 1294ERGO    C116067  14.469   6.153   8.918  0.0534 -0.0775 -0.0601
 1294ERGO    C216068  14.578   6.285   8.540  0.1784  0.3406 -0.0691
 1295ERGO   ROH16069   5.334  13.883   6.449 -0.1644  0.2651  0.0769
 1295ERGO    R116070   5.446  13.855   6.708 -0.0375  0.3238  0.0294
 1295ERGO    R216071   5.502  14.072   6.871 -0.3438  0.3426  0.1104
 1295ERGO    R316072   5.346  13.937   7.048 -0.0712  0.0021  0.1024
 1295ERGO    R416073   5.516  14.107   7.214 -0.4476  0.4076  0.1082
 1295ERGO    R516074   5.491  13.892   7.233  0.0255  0.3359  0.1201
 1295ERGO    C116075   5.378  14.001   7.580 -0.2520  0.1256  0.0995
 1295ERGO    C216076   5.302  14.177   7.792  0.3395 -0.1118  0.2291
 1296ERGO   ROH16077   0.272   4.230   6.404 -0.0796  0.3292 -0.0019
 1296ERGO    R116078   0.376   4.328   6.649 -0.1276  0.1968  0.0721
 1296ERGO    R216079   0.222   4.467   6.831 -0.1879  0.0110  0.1633
 1296ERGO    R316080   0.311   4.277   7.003 -0.1243 -0.0767  0.0359
 1296ERGO    R416081   0.182   4.478   7.174 -0.0808 -0.1681  0.1829
 1296ERGO    R516082   0.385   4.400   7.195 -0.0687 -0.1715  0.0779
 1296ERGO    C116083   0.242   4.305   7.536  0.0413 -0.3547  0.0747
 1296ERGO    C216084   0.272   4.106   7.735 -0.2869 -0.1602  0.1156
 1297ERGO   ROH16085   7.929  13.937  10.016 -0.0679  0.0473  0.0214
 1297ERGO    R116086   7.911  14.054   9.759 -0.1010  0.0299  0.0156
 1297ERGO    R216087   8.052  13.957   9.542  0.0069  0.1215  0.0443
 1297ERGO    R316088   7.806  13.949   9.427  0.0333 -0.0514 -0.0024
 1297ERGO    R416089   7.993  13.902   9.206  0.1319  0.4040 -0.0273
 1297ERGO    R516090   7.836  14.054   9.214 -0.0527  0.2132  0.1102
 1297ERGO    C116091   7.727  13.862   8.902  0.2296  0.4061 -0.1128
 1297ERGO    C216092   7.687  13.892   8.580  0.0045 -0.3209  0.0453
 1298ERGO   ROH16093  10.276  11.883  10.336 -0.0260  0.0835 -0.1283
 1298ERGO    R116094  10.226  11.799  10.071 -0.0021  0.0940 -0.1365
 1298ERGO    R216095  10.000  11.657  10.000  0.0709 -0.0277 -0.1368
 1298ERGO    R316096   9.970  11.858   9.819 -0.0608 -0.0153 -0.1020
 1298ERGO    R416097   9.851  11.622   9.690 -0.0847 -0.0195 -0.0638
 1298ERGO    R516098  10.005  11.752   9.607 -0.1532  0.0155 -0.1316
 1298ERGO    C116099   9.736  11.790   9.339 -0.2991 -0.0030  0.0115
 1298ERGO    C216100   9.722  11.720   8.965  0.1421  0.1657  0.0334
 1299ERGO   ROH16101   9.563   1.084   9.531 -0.1517  0.1224 -0.1848
 1299ERGO    R116102   9.661   1.195   9.290 -0.1928  0.1356 -0.1956
 1299ERGO    R216103   9.836   1.059   9.125  0.0171  0.2626 -0.0804
 1299ERGO    R316104   9.648   1.111   8.936  0.0210 -0.0249 -0.1680
 1299ERGO    R416105   9.875   1.000   8.787  0.1933  0.1452 -0.0410
 1299ERGO    R516106   9.774   1.189   8.747  0.0026  0.0223 -0.1618
 1299ERGO    C116107   9.721   1.014   8.412  0.2996 -0.1930 -0.1002
 1299ERGO    C216108   9.770   0.838   8.110 -0.1448  0.2174  0.1611
 1300ERGO   ROH16109   1.809   0.981   6.815  0.2260 -0.0753  0.1385
 1300ERGO    R116110   1.749   1.066   7.078  0.0773 -0.0794  0.1074
 1300ERGO    R216111   1.750   0.893   7.293  0.0085 -0.0735  0.1155
 1300ERGO    R316112   1.922   1.076   7.399 -0.0819 -0.0324  0.1918
 1300ERGO    R416113   1.778   0.963   7.630 -0.0933 -0.1252  0.1349
 1300ERGO    R516114   1.798   1.175   7.579 -0.1569 -0.1106  0.1813
 1300ERGO    C116115   1.956   1.175   7.926 -0.2374 -0.1167  0.2177
 1300ERGO    C216116   1.884   1.173   8.235 -0.1504  0.0526 -0.2173
 1301ERGO   ROH16117  10.922   9.475  10.420 -0.3072 -0.1512  0.0998
 1301ERGO    R116118  10.770   9.428  10.186 -0.3002  0.1207  0.0385
 1301ERGO    R216119  10.750   9.613   9.983  0.1098  0.1648  0.0335
 1301ERGO    R316120  10.835   9.406   9.829 -0.1943  0.0111  0.0627
 1301ERGO    R416121  10.719   9.597   9.639  0.2676  0.2631  0.0131
 1301ERGO    R516122  10.668   9.386   9.658 -0.1471  0.3476 -0.0333
 1301ERGO    C116123  10.781   9.393   9.294  0.0739  0.1761  0.0288
 1301ERGO    C216124  10.806   9.410   8.929 -0.1131  0.1977 -0.1824
 1302ERGO   ROH16125  12.017  13.928   9.834 -0.1936 -0.1692  0.0318
 1302ERGO    R116126  11.941  13.791   9.598 -0.1722 -0.0704 -0.0317
 1302ERGO    R216127  11.865  13.923   9.367 -0.0271  0.0245 -0.0197
 1302ERGO    R316128  12.059  13.770   9.254 -0.0606 -0.0360  0.0023
 1302ERGO    R416129  11.899  13.866   9.028 -0.0688 -0.0512 -0.0120
 1302ERGO    R516130  11.948  13.659   9.073 -0.1011 -0.0564  0.0330
 1302ERGO    C116131  12.100  13.689   8.724 -0.1245 -0.1521  0.0131
 1302ERGO    C216132  12.336  13.834   8.429 -0.0466 -0.0171 -0.0317
 1303ERGO   ROH16133   8.979   4.118   9.716  0.0330 -0.0266  0.0496
 1303ERGO    R116134   9.085   4.097   9.454  0.0957 -0.0970  0.0802
 1303ERGO    R216135   8.948   3.974   9.248  0.1036 -0.0673  0.0584
 1303ERGO    R316136   8.990   4.211   9.121  0.2294 -0.0980  0.0411
 1303ERGO    R416137   8.898   4.030   8.910  0.0484 -0.0440  0.0702
 1303ERGO    R516138   9.079   4.149   8.908  0.1304 -0.1658  0.0175
 1303ERGO    C116139   8.908   4.285   8.595  0.1343 -0.0591  0.0609
 1303ERGO    C216140   8.621   4.278   8.289  0.1221  0.0767 -0.2468
 1304ERGO   ROH16141   6.790  16.748   6.306  0.0021  0.0345  0.2074
 1304ERGO    R116142   6.955  16.881   6.493  0.0694  0.0506  0.1374
 1304ERGO    R216143   6.854  17.058   6.681  0.1261  0.0046  0.2123
 1304ERGO    R316144   6.985  16.895   6.856  0.2560  0.0137  0.1242
 1304ERGO    R416145   6.867  17.103   7.024  0.2872 -0.0406  0.2129
 1304ERGO    R516146   7.076  17.044   7.020  0.3004  0.0136  0.0992
 1304ERGO    C116147   6.997  16.977   7.387  0.5028 -0.0581  0.1306
 1304ERGO    C216148   7.061  17.140   7.755  0.1148  0.1265 -0.4045
 1305ERGO   ROH16149   7.248   2.310   6.064 -0.0152 -0.2285  0.1441
 1305ERGO    R116150   7.394   2.399   6.289 -0.0986 -0.2190  0.1944
 1305ERGO    R216151   7.458   2.665   6.330 -0.0232 -0.2324  0.1507
 1305ERGO    R316152   7.337   2.623   6.570 -0.1605 -0.1186  0.1034
 1305ERGO    R416153   7.401   2.909   6.568  0.0518 -0.1606  0.0962
 1305ERGO    R516154   7.456   2.765   6.722 -0.1201 -0.1865  0.1387
 1305ERGO    C116155   7.254   3.012   6.932 -0.0335 -0.0120  0.0200
 1305ERGO    C216156   7.277   3.401   7.022  0.1906 -0.2860  0.2719
 1306ERGO   ROH16157   2.608   6.155   6.393 -0.0650 -0.3130 -0.1786
 1306ERGO    R116158   2.746   6.063   6.622 -0.0340 -0.2737 -0.1814
 1306ERGO    R216159   2.762   6.210   6.856  0.0401 -0.2111 -0.2251
 1306ERGO    R316160   2.663   5.982   6.967  0.0226 -0.1630 -0.1413
 1306ERGO    R416161   2.660   6.180   7.185  0.0749 -0.0939 -0.2031
 1306ERGO    R516162   2.752   5.982   7.190  0.0489 -0.1048 -0.1516
 1306ERGO    C116163   2.508   5.949   7.481  0.0788  0.0196 -0.1116
 1306ERGO    C216164   2.511   6.154   7.707  0.0298 -0.1349 -0.0619
 1307ERGO   ROH16165  12.696   3.678   9.969 -0.3093  0.1044 -0.0672
 1307ERGO    R116166  12.663   3.651   9.689  0.0010  0.0327 -0.1001
 1307ERGO    R216167  12.445   3.754   9.554 -0.0685 -0.3669 -0.3054
 1307ERGO    R316168  12.636   3.874   9.403 -0.1393 -0.0204 -0.1296
 1307ERGO    R416169  12.408   3.843   9.222  0.0459 -0.3629 -0.3179
 1307ERGO    R516170  12.612   3.776   9.186  0.1929 -0.0232 -0.1719
 1307ERGO    C116171  12.566   4.008   8.887  0.0460 -0.0354 -0.1600
 1307ERGO    C216172  12.614   4.191   8.628  0.0391  0.4301  0.0272
 1308ERGO   ROH16173  16.447  12.906  10.297  0.3354  0.0391  0.1363
 1308ERGO    R116174  16.337  12.990  10.050  0.2354  0.0628  0.1887
 1308ERGO    R216175  16.426  13.215   9.916  0.2476  0.0211  0.1268
 1308ERGO    R316176  16.457  13.041   9.711  0.0744 -0.0042  0.1205
 1308ERGO    R416177  16.462  13.305   9.585  0.2780 -0.0035  0.1235
 1308ERGO    R516178  16.333  13.138   9.530  0.1302  0.1026  0.1386
 1308ERGO    C116179  16.512  13.194   9.198  0.1335 -0.0417  0.1156
 1308ERGO    C216180  16.629  13.067   8.979 -0.3154 -0.2151 -0.3235
 1309ERGO   ROH16181  12.482   3.512   6.657  0.1866  0.1306  0.1756
 1309ERGO    R116182  12.317   3.511   6.887 -0.0515  0.1994  0.0105
 1309ERGO    R216183  12.403   3.607   7.132 -0.1745 -0.0520  0.1613
 1309ERGO    R316184  12.179   3.760   7.114  0.0342  0.2427  0.0131
 1309ERGO    R416185  12.272   3.799   7.388 -0.1268  0.0871  0.0817
 1309ERGO    R516186  12.073   3.737   7.326 -0.1597  0.3548 -0.0741
 1309ERGO    C116187  11.985   4.054   7.520  0.0970  0.4448 -0.1040
 1309ERGO    C216188  12.025   4.458   7.397  0.0921 -0.0592  0.0287
 1310ERGO   ROH16189   7.118   3.779   9.558  0.1229 -0.0593 -0.0018
 1310ERGO    R116190   7.284   3.783   9.329  0.0217 -0.1470 -0.0775
 1310ERGO    R216191   7.255   3.603   9.122 -0.1932 -0.1073 -0.0839
 1310ERGO    R316192   7.240   3.828   8.971 -0.1114 -0.0807 -0.0535
 1310ERGO    R416193   7.141   3.614   8.796 -0.2493 -0.0140 -0.0614
 1310ERGO    R516194   7.300   3.756   8.750 -0.1873 -0.0853 -0.0738
 1310ERGO    C116195   7.060   3.833   8.464 -0.2051  0.0652 -0.0197
 1310ERGO    C216196   6.982   3.941   8.119 -0.1725  0.1390  0.0779
 1311ERGO   ROH16197   8.708  14.981  10.132 -0.1367 -0.2766  0.1153
 1311ERGO    R116198   8.779  15.100   9.885 -0.1927 -0.1328  0.1673
 1311ERGO    R216199   8.941  14.974   9.700 -0.0307  0.0759  0.1627
 1311ERGO    R316200   8.733  15.024   9.532 -0.0421 -0.0683  0.1333
 1311ERGO    R416201   8.967  15.001   9.356  0.0298  0.2617  0.1808
 1311ERGO    R516202   8.826  15.167   9.364 -0.1502  0.1093  0.2224
 1311ERGO    C116203   8.787  15.063   8.999  0.0543  0.2346  0.1637
 1311ERGO    C216204   8.718  15.125   8.636 -0.0365  0.3495  0.2526
 1312ERGO   ROH16205  14.327   2.385   9.877  0.1175  0.0424  0.1223
 1312ERGO    R116206  14.273   2.403   9.599  0.1886  0.1066  0.1112
 1312ERGO    R216207  14.288   2.640   9.460  0.3334  0.1221  0.1446
 1312ERGO    R316208  14.456   2.499   9.299  0.3042  0.0624  0.1679
 1312ERGO    R416209  14.322   2.689   9.119  0.0378 -0.2243  0.0598
 1312ERGO    R516210  14.333   2.472   9.095  0.1642 -0.2438  0.2880
 1312ERGO    C116211  14.500   2.584   8.771 -0.1618 -0.4820  0.0324
 1312ERGO    C216212  14.437   2.642   8.373  0.0137  0.0293  0.0217
 1313ERGO   ROH16213   7.585  10.396   6.626 -0.2375  0.0175 -0.0367
 1313ERGO    R116214   7.572  10.397   6.909  0.0196  0.1528 -0.0221
 1313ERGO    R216215   7.632  10.621   7.060 -0.0944  0.3060 -0.1973
 1313ERGO    R316216   7.385  10.577   7.164  0.0455  0.0778  0.0498
 1313ERGO    R416217   7.530  10.719   7.375  0.0745  0.3666 -0.1605
 1313ERGO    R516218   7.425  10.529   7.395  0.3087  0.2545  0.0443
 1313ERGO    C116219   7.238  10.734   7.656  0.3040  0.1878  0.0930
 1313ERGO    C216220   6.992  10.787   7.890  0.0621  0.1975  0.0817
 1314ERGO   ROH16221   4.194  10.172   6.747  0.1595 -0.0301  0.0089
 1314ERGO    R116222   4.241  10.056   7.001 -0.0436 -0.1204  0.0058
 1314ERGO    R216223   4.339  10.200   7.215  0.1347 -0.2790  0.0266
 1314ERGO    R316224   4.118  10.103   7.341 -0.0244  0.0264 -0.0057
 1314ERGO    R416225   4.299  10.183   7.558  0.2342 -0.5700  0.0276
 1314ERGO    R516226   4.205   9.988   7.532 -0.1761 -0.3656 -0.1585
 1314ERGO    C116227   4.068  10.082   7.875  0.1427 -0.4526 -0.0021
 1314ERGO    C216228   3.938  10.014   8.144  0.1833 -0.0228 -0.1056
 1315ERGO   ROH16229   2.284  15.183   6.794 -0.1674  0.0600  0.0740
 1315ERGO    R116230   2.367  15.266   7.051 -0.0397  0.0419  0.0399
 1315ERGO    R216231   2.189  15.316   7.256  0.0451  0.2373  0.0714
 1315ERGO    R316232   2.343  15.137   7.391 -0.0777  0.1297  0.0701
 1315ERGO    R416233   2.224  15.304   7.600  0.2078  0.3499  0.0596
 1315ERGO    R516234   2.436  15.263   7.572  0.1507  0.1099 -0.0314
 1315ERGO    C116235   2.389  15.129   7.926  0.1873  0.3144  0.0515
 1315ERGO    C216236   2.443  15.213   8.332  0.0461 -0.0694  0.1974
 1316ERGO   ROH16237   1.125  14.458   6.900  0.1069  0.1032  0.0342
 1316ERGO    R116238   1.194  14.502   7.171  0.0287  0.1622  0.0446
 1316ERGO    R216239   1.010  14.586   7.359 -0.0732 -0.0003  0.0178
 1316ERGO    R316240   1.096  14.366   7.494  0.1005  0.0737  0.0300
 1316ERGO    R416241   0.994  14.544   7.702 -0.1990 -0.0585  0.0052
 1316ERGO    R516242   1.191  14.453   7.696 -0.0920  0.1549  0.0894
 1316ERGO    C116243   1.065  14.314   8.028 -0.1093 -0.0229  0.0095
 1316ERGO    C216244   0.938  14.419   8.374  0.1315  0.0068  0.1531
 1317ERGO   ROH16245   8.352   4.175   9.624 -0.0310  0.0653 -0.2296
 1317ERGO    R116246   8.555   4.250   9.442  0.0152 -0.0853 -0.2411
 1317ERGO    R216247   8.539   4.196   9.171 -0.0681 -0.0241 -0.2461
 1317ERGO    R316248   8.580   4.464   9.149  0.1728 -0.0548 -0.2071
 1317ERGO    R416249   8.579   4.366   8.873 -0.1886  0.0164 -0.2400
 1317ERGO    R516250   8.734   4.486   8.967  0.0238 -0.1594 -0.3515
 1317ERGO    C116251   8.640   4.716   8.678 -0.0325  0.0111 -0.1999
 1317ERGO    C216252   8.523   4.835   8.409  0.1460  0.0619 -0.0919
 1318ERGO   ROH16253  14.811  16.981   6.676  0.1467  0.2780  0.0299
 1318ERGO    R116254  14.890  16.834   6.905 -0.0445  0.1341  0.0052
 1318ERGO    R216255  15.152  16.821   6.990 -0.0856 -0.0794  0.1051
 1318ERGO    R316256  15.046  16.907   7.225 -0.1199 -0.0974  0.0964
 1318ERGO    R416257  15.314  16.812   7.296 -0.0626  0.0666  0.0981
 1318ERGO    R516258  15.126  16.751   7.388 -0.0224 -0.0229  0.1200
 1318ERGO    C116259  15.308  16.887   7.694 -0.0814  0.1345  0.0858
 1318ERGO    C216260  15.544  16.916   7.925  0.0266  0.2366  0.1723
 1319ERGO   ROH16261   7.513  11.397   6.685  0.1086 -0.3152 -0.2358
 1319ERGO    R116262   7.641  11.340   6.931  0.0606 -0.1670 -0.1751
 1319ERGO    R216263   7.528  11.403   7.175 -0.0246 -0.0910 -0.2308
 1319ERGO    R316264   7.568  11.139   7.226  0.0411 -0.0573 -0.1057
 1319ERGO    R416265   7.624  11.273   7.481  0.1003  0.0805 -0.1958
 1319ERGO    R516266   7.756  11.135   7.375  0.0892  0.0519 -0.1657
 1319ERGO    C116267   7.718  10.949   7.706  0.2348  0.2120 -0.0580
 1319ERGO    C216268   7.919  10.891   7.938  0.0017  0.0240 -0.1846
 1320ERGO   ROH16269   3.144   9.351  10.140  0.0756 -0.1222  0.0177
 1320ERGO    R116270   3.064   9.221   9.902  0.0256  0.0020 -0.0342
 1320ERGO    R216271   2.839   9.295   9.760  0.0294  0.1148  0.0197
 1320ERGO    R316272   3.015   9.313   9.554  0.0136  0.1691  0.0106
 1320ERGO    R416273   2.757   9.393   9.439 -0.0397 -0.0137 -0.0025
 1320ERGO    R516274   2.890   9.238   9.363  0.0520  0.0464  0.0324
 1320ERGO    C116275   2.874   9.466   9.058 -0.0947 -0.0377 -0.0240
 1320ERGO    C216276   2.742   9.718   8.859 -0.0410 -0.0042 -0.0889
 1321ERGO   ROH16277   1.273  15.539   7.316  0.1856 -0.3014 -0.0458
 1321ERGO    R116278   1.346  15.597   7.583 -0.0811 -0.0332 -0.0266
 1321ERGO    R216279   1.173  15.717   7.762 -0.4410 -0.3226 -0.1736
 1321ERGO    R316280   1.233  15.500   7.915 -0.0614 -0.1409 -0.0500
 1321ERGO    R416281   1.098  15.686   8.098 -0.2732 -0.2153 -0.1235
 1321ERGO    R516282   1.293  15.593   8.128 -0.1174  0.0910 -0.1299
 1321ERGO    C116283   1.110  15.464   8.437  0.1809  0.0176  0.0216
 1321ERGO    C216284   0.778  15.313   8.521 -0.0151  0.0322 -0.0285
 1322ERGO   ROH16285   9.519   9.603  10.321  0.1240 -0.0706  0.1296
 1322ERGO    R116286   9.367   9.510  10.102  0.1698 -0.1750  0.1429
 1322ERGO    R216287   9.258   9.680   9.912 -0.1606 -0.2286  0.2849
 1322ERGO    R316288   9.393   9.520   9.739  0.0040  0.0640  0.1335
 1322ERGO    R416289   9.269   9.724   9.570 -0.3664  0.0042  0.3049
 1322ERGO    R516290   9.252   9.508   9.546 -0.0671 -0.0179  0.1838
 1322ERGO    C116291   9.401   9.599   9.207 -0.3317  0.4146  0.1744
 1322ERGO    C216292   9.380   9.648   8.885  0.2251 -0.2601 -0.1356
 1323ERGO   ROH16293   6.455   0.791   6.587 -0.2377  0.1418 -0.0482
 1323ERGO    R116294   6.464   0.865   6.860 -0.2537  0.1810 -0.0583
 1323ERGO    R216295   6.579   0.706   7.054 -0.2490  0.2176 -0.0319
 1323ERGO    R316296   6.722   0.931   7.108 -0.2684  0.2363 -0.0571
 1323ERGO    R416297   6.706   0.788   7.364 -0.0503  0.1425 -0.0914
 1323ERGO    R516298   6.649   0.995   7.327 -0.1317  0.1419  0.0189
 1323ERGO    C116299   6.914   1.047   7.597  0.0472  0.1163 -0.1497
 1323ERGO    C216300   7.203   1.204   7.767 -0.0617 -0.1036  0.0506
 1324ERGO   ROH16301  12.565  17.368   6.197 -0.0591  0.0941  0.0763
 1324ERGO    R116302  12.432  17.245   6.414  0.0391 -0.0166  0.0741
 1324ERGO    R216303  12.562  17.173   6.647  0.0741  0.2030  0.1232
 1324ERGO    R316304  12.368  17.323   6.764 -0.1434 -0.0055  0.0398
 1324ERGO    R416305  12.453  17.136   6.973  0.0790  0.1800  0.1226
 1324ERGO    R516306  12.249  17.169   6.903  0.0396 -0.1142  0.0808
 1324ERGO    C116307  12.208  17.255   7.272 -0.1224 -0.0290  0.0439
 1324ERGO    C216308  12.253  17.282   7.642  0.0831  0.3657  0.4726
 1325ERGO   ROH16309   8.997   4.749   6.223 -0.0775  0.0696 -0.1018
 1325ERGO    R116310   8.941   4.626   6.471 -0.0706  0.0799 -0.0949
 1325ERGO    R216311   9.094   4.671   6.697 -0.0184  0.0279 -0.1212
 1325ERGO    R316312   8.854   4.735   6.807  0.0216  0.0962 -0.0747
 1325ERGO    R416313   9.029   4.677   7.036  0.0727  0.0835 -0.1053
 1325ERGO    R516314   8.834   4.588   6.995  0.0382  0.1201 -0.0498
 1325ERGO    C116315   8.766   4.742   7.337  0.1633  0.1800 -0.0524
 1325ERGO    C216316   8.745   4.924   7.573 -0.0367  0.0219 -0.1410
 1326ERGO   ROH16317  11.577   1.366   9.812  0.0484 -0.0162  0.1770
 1326ERGO    R116318  11.604   1.474   9.552  0.0103  0.0701  0.2111
 1326ERGO    R216319  11.850   1.522   9.436 -0.0163  0.0260  0.1646
 1326ERGO    R316320  11.749   1.369   9.235 -0.1193  0.1429  0.1224
 1326ERGO    R416321  11.981   1.505   9.116  0.2034 -0.2224  0.2629
 1326ERGO    R516322  11.777   1.503   9.038  0.2377  0.0841  0.1145
 1326ERGO    C116323  11.962   1.350   8.742  0.2347 -0.2572  0.2806
 1326ERGO    C216324  12.204   1.162   8.665 -0.0063  0.1613 -0.2423
 1327ERGO   ROH16325  11.764   4.941  10.075 -0.0092 -0.0536  0.0435
 1327ERGO    R116326  11.834   5.104   9.854  0.1243 -0.0437  0.0919
 1327ERGO    R216327  12.078   5.084   9.726  0.0727 -0.2741  0.0258
 1327ERGO    R316328  11.923   5.052   9.505 -0.0206 -0.0075  0.0486
 1327ERGO    R416329  12.161   5.192   9.408  0.0841 -0.1654  0.0653
 1327ERGO    R516330  11.954   5.254   9.380  0.1283  0.0396  0.1572
 1327ERGO    C116331  12.064   5.225   9.016  0.0032  0.1481  0.1099
 1327ERGO    C216332  12.044   5.370   8.747 -0.1429  0.0064  0.0756
 1328ERGO   ROH16333  10.710   1.330   9.761  0.2151  0.1344  0.0719
 1328ERGO    R116334  10.614   1.465   9.531  0.1368  0.1067  0.0884
 1328ERGO    R216335  10.782   1.568   9.338  0.0698  0.0714  0.0124
 1328ERGO    R316336  10.629   1.417   9.171  0.0008  0.0561  0.0885
 1328ERGO    R416337  10.852   1.510   9.004  0.1088 -0.2232  0.0693
 1328ERGO    R516338  10.640   1.532   8.961  0.1324 -0.1032  0.0048
 1328ERGO    C116339  10.750   1.334   8.653  0.0667 -0.4091  0.1740
 1328ERGO    C216340  11.004   1.439   8.332 -0.2090 -0.1029  0.0437
 1329ERGO   ROH16341   7.641  17.111  10.111  0.0683 -0.3704  0.0353
 1329ERGO    R116342   7.660  17.028   9.841  0.1191 -0.1195 -0.0402
 1329ERGO    R216343   7.439  16.974   9.685  0.1526 -0.2140 -0.0541
 1329ERGO    R316344   7.553  17.155   9.517 -0.0537  0.0507  0.0810
 1329ERGO    R416345   7.408  16.971   9.341  0.3054 -0.0993 -0.0700
 1329ERGO    R516346   7.619  17.025   9.327  0.2327  0.2394  0.0441
 1329ERGO    C116347   7.498  17.138   8.983  0.2007  0.2160  0.0473
 1329ERGO    C216348   7.388  17.104   8.639  0.0391 -0.0095  0.1447
 1330ERGO   ROH16349  13.934   0.904   7.920 -0.1899  0.0171 -0.2042
 1330ERGO    R116350  13.949   0.663   8.068 -0.0589  0.0141 -0.2218
 1330ERGO    R216351  13.732   0.555   8.200  0.0476 -0.0085 -0.0621
 1330ERGO    R316352  13.794   0.334   8.054 -0.0413  0.0012 -0.1156
 1330ERGO    R416353  13.605   0.239   8.258  0.1206 -0.0227  0.0243
 1330ERGO    R516354  13.803   0.157   8.216  0.0971 -0.0029 -0.1273
 1330ERGO    C116355  13.589  -0.153   8.154  0.0797 -0.0219  0.0244
 1330ERGO    C216356  13.247  -0.284   8.064  0.1423 -0.3751  0.1309
 1331ERGO   ROH16357  14.155   9.035   9.921 -0.1532  0.1120  0.1339
 1331ERGO    R116358  14.188   8.928   9.661 -0.1517 -0.0012  0.1798
 1331ERGO    R216359  14.092   9.054   9.434 -0.1073 -0.0741  0.1183
 1331ERGO    R316360  14.350   9.031   9.351 -0.1044 -0.1589  0.1517
 1331ERGO    R416361  14.193   9.038   9.104 -0.0604  0.0138  0.1284
 1331ERGO    R516362  14.338   8.886   9.161 -0.1398 -0.0762  0.0912
 1331ERGO    C116363  14.493   9.007   8.834 -0.0304 -0.0148  0.1658
 1331ERGO    C216364  14.479   8.892   8.596 -0.1012  0.0124 -0.3226
 1332ERGO   ROH16365   1.890  10.076   9.977 -0.3606  0.0888 -0.0171
 1332ERGO    R116366   1.787   9.957   9.741 -0.2218  0.0511 -0.0611
 1332ERGO    R216367   1.790  10.085   9.497 -0.1611  0.0515 -0.0664
 1332ERGO    R316368   1.917   9.859   9.416 -0.0474  0.0932 -0.0032
 1332ERGO    R416369   1.787   9.962   9.174 -0.0439 -0.0195 -0.0402
 1332ERGO    R516370   1.768   9.761   9.256  0.0317 -0.0067 -0.0091
 1332ERGO    C116371   1.905   9.677   8.910  0.1311 -0.0218  0.0344
 1332ERGO    C216372   1.847   9.637   8.542  0.2165 -0.0295 -0.0109
 1333ERGO   ROH16373   9.272   8.489   6.632  0.0914 -0.0792 -0.0757
 1333ERGO    R116374   9.375   8.428   6.888  0.0335  0.0798 -0.0126
 1333ERGO    R216375   9.290   8.555   7.118 -0.2830 -0.0288 -0.0652
 1333ERGO    R316376   9.244   8.300   7.203  0.0292 -0.0946 -0.0841
 1333ERGO    R416377   9.227   8.463   7.445 -0.1995 -0.1291 -0.0768
 1333ERGO    R516378   9.353   8.288   7.416  0.0258  0.0293 -0.0753
 1333ERGO    C116379   9.148   8.171   7.716  0.1422 -0.2494 -0.1012
 1333ERGO    C216380   8.938   8.142   8.075 -0.0999  0.4302 -0.0270
 1334ERGO   ROH16381   7.179   8.409   6.326  0.2771 -0.1305  0.0700
 1334ERGO    R116382   7.140   8.305   6.587  0.1791 -0.1495  0.0467
 1334ERGO    R216383   6.904   8.338   6.727  0.1784 -0.0498  0.0053
 1334ERGO    R316384   6.915   8.067   6.746  0.0312 -0.0605 -0.0205
 1334ERGO    R416385   6.714   8.147   6.943  0.3473  0.0832  0.2779
 1334ERGO    R516386   6.890   8.023   6.979  0.3311 -0.0371  0.0287
 1334ERGO    C116387   6.615   7.781   7.087  0.3074  0.1505  0.4125
 1334ERGO    C216388   6.391   7.499   7.101 -0.0154 -0.0711  0.0044
 1335ERGO   ROH16389  17.073   5.674   9.909 -0.1527 -0.1458  0.0826
 1335ERGO    R116390  17.062   5.512   9.677 -0.0504 -0.1074  0.0509
 1335ERGO    R216391  16.890   5.564   9.467 -0.1020 -0.1905  0.0733
 1335ERGO    R316392  17.118   5.558   9.320 -0.1064  0.0052  0.0560
 1335ERGO    R416393  16.902   5.580   9.122 -0.1393 -0.1265  0.0748
 1335ERGO    R516394  17.060   5.430   9.126 -0.0240 -0.0090  0.0400
 1335ERGO    C116395  17.124   5.585   8.783 -0.1654  0.0946  0.0595
 1335ERGO    C216396  17.409   5.624   8.614  0.0899  0.1727  0.0557
 1336ERGO   ROH16397  10.187   4.509   9.706  0.2302 -0.0119  0.0588
 1336ERGO    R116398  10.156   4.433   9.435  0.0808 -0.0664  0.0906
 1336ERGO    R216399   9.968   4.549   9.269  0.0888  0.0027  0.1330
 1336ERGO    R316400  10.184   4.595   9.111  0.0562 -0.1717  0.0345
 1336ERGO    R416401   9.959   4.570   8.924 -0.0618  0.0372  0.1382
 1336ERGO    R516402  10.146   4.459   8.917 -0.1573 -0.1269  0.0397
 1336ERGO    C116403  10.157   4.626   8.575 -0.1800 -0.1063  0.0488
 1336ERGO    C216404  10.209   4.604   8.271  0.2023  0.0528  0.0060
 1337ERGO   ROH16405   6.587   3.071   9.684 -0.1741  0.1160  0.0750
 1337ERGO    R116406   6.526   2.950   9.435 -0.0770 -0.0445  0.1273
 1337ERGO    R216407   6.368   3.073   9.244 -0.2469 -0.2883  0.1016
 1337ERGO    R316408   6.583   3.026   9.084 -0.2134 -0.1067  0.0925
 1337ERGO    R416409   6.353   3.027   8.902 -0.1830 -0.0252  0.0622
 1337ERGO    R516410   6.502   2.870   8.921 -0.1468  0.0005 -0.0417
 1337ERGO    C116411   6.545   2.957   8.552 -0.1144  0.2985  0.0305
 1337ERGO    C216412   6.522   2.966   8.301 -0.2553  0.2650  0.2302
 1338ERGO   ROH16413   4.103  17.064  10.729  0.1090  0.0526  0.0447
 1338ERGO    R116414   4.197  17.225  10.516  0.1599 -0.0406 -0.0032
 1338ERGO    R216415   4.385  17.136  10.334  0.0097 -0.2144 -0.0747
 1338ERGO    R316416   4.196  17.209  10.152 -0.0034 -0.0628 -0.0031
 1338ERGO    R416417   4.429  17.136   9.991 -0.1496 -0.3432 -0.0965
 1338ERGO    R516418   4.318  17.323   9.981  0.0367 -0.2283 -0.0878
 1338ERGO    C116419   4.277  17.203   9.621 -0.2546 -0.2759 -0.0419
 1338ERGO    C216420   4.123  17.253   9.198  0.0179 -0.2192 -0.1393
 1339ERGO   ROH16421  14.782   2.453   9.890  0.1965  0.0558  0.1914
 1339ERGO    R116422  14.761   2.573   9.635  0.0860 -0.0349  0.1562
 1339ERGO    R216423  14.953   2.746   9.537 -0.0382  0.0627  0.0793
 1339ERGO    R316424  14.955   2.573   9.327  0.0493 -0.0022  0.1333
 1339ERGO    R416425  14.960   2.840   9.204 -0.1188 -0.0371  0.0493
 1339ERGO    R516426  14.818   2.680   9.161 -0.0264 -0.1355  0.1095
 1339ERGO    C116427  14.966   2.733   8.813 -0.0837 -0.1561  0.0826
 1339ERGO    C216428  14.924   2.730   8.465 -0.4858  0.1166  0.3072
 1340ERGO   ROH16429  17.697  17.084   7.340 -0.4715  0.1176 -0.0231
 1340ERGO    R116430  17.769  17.161   7.603 -0.2772  0.0284 -0.0481
 1340ERGO    R216431  17.808  17.425   7.675 -0.1317 -0.0032 -0.0085
 1340ERGO    R316432  17.625  17.366   7.867 -0.0342  0.0221  0.0928
 1340ERGO    R416433  17.776  17.593   7.975  0.1973 -0.1271  0.0998
 1340ERGO    R516434  17.742  17.401   8.073  0.1410 -0.1563  0.0286
 1340ERGO    C116435  17.586  17.636   8.331  0.4804 -0.1754  0.2580
 1340ERGO    C216436  17.408  17.719   8.572 -0.0944 -0.1123 -0.0300
 1341ERGO   ROH16437  15.281   3.054   6.229 -0.1331 -0.1657 -0.0990
 1341ERGO    R116438  15.290   3.207   6.467 -0.0418 -0.0382 -0.1837
 1341ERGO    R216439  15.123   3.159   6.682  0.0791  0.0399 -0.0719
 1341ERGO    R316440  15.357   3.145   6.819  0.1530  0.1622 -0.1829
 1341ERGO    R416441  15.157   3.218   7.021  0.1737 -0.1114 -0.0542
 1341ERGO    R516442  15.343   3.323   6.979  0.0703  0.0685 -0.0823
 1341ERGO    C116443  15.396   3.239   7.347  0.2983 -0.0848 -0.1482
 1341ERGO    C216444  15.408   3.079   7.687  0.1129  0.3457  0.0112
 1342ERGO   ROH16445   8.201   2.702   9.389  0.1720  0.1191 -0.0070
 1342ERGO    R116446   8.130   2.565   9.151  0.1036  0.1111  0.0192
 1342ERGO    R216447   7.889   2.605   9.023  0.1282  0.2115  0.0132
 1342ERGO    R316448   8.048   2.656   8.808  0.1531  0.0868 -0.0004
 1342ERGO    R416449   7.784   2.600   8.693  0.0785  0.3502  0.0250
 1342ERGO    R516450   7.972   2.503   8.640 -0.0156  0.1751 -0.0104
 1342ERGO    C116451   7.873   2.645   8.300  0.0730  0.3139  0.0191
 1342ERGO    C216452   7.804   2.632   7.953 -0.0542  0.0384 -0.2191
 1343ERGO   ROH16453  10.663   8.695   6.735  0.0643  0.0042  0.0784
 1343ERGO    R116454  10.490   8.727   6.957  0.0750  0.0620  0.0780
 1343ERGO    R216455  10.281   8.554   7.009 -0.0101  0.1591  0.0517
 1343ERGO    R316456  10.401   8.534   7.252 -0.0274  0.0705  0.0535
 1343ERGO    R416457  10.130   8.431   7.294 -0.0036 -0.0341 -0.0267
 1343ERGO    R516458  10.228   8.588   7.408 -0.0614 -0.0614  0.0648
 1343ERGO    C116459  10.155   8.339   7.688 -0.0160 -0.2299 -0.0707
 1343ERGO    C216460  10.252   8.207   7.873  0.0277  0.2319  0.5693
 1344ERGO   ROH16461  15.214  15.649   9.981  0.0718  0.1652  0.0536
 1344ERGO    R116462  15.236  15.661   9.699  0.0973  0.0756  0.0508
 1344ERGO    R216463  15.129  15.867   9.550  0.0142 -0.0243 -0.0371
 1344ERGO    R316464  15.383  15.887   9.455  0.0174  0.0604 -0.0100
 1344ERGO    R416465  15.212  15.937   9.222  0.0306 -0.2609 -0.0845
 1344ERGO    R516466  15.372  15.790   9.236  0.1242 -0.1400  0.0748
 1344ERGO    C116467  15.499  15.996   8.942  0.0430 -0.3190 -0.0866
 1344ERGO    C216468  15.519  16.103   8.699  0.2182  0.0827 -0.1199
 1345ERGO   ROH16469   0.411  13.856  10.624  0.0389 -0.1028  0.0423
 1345ERGO    R116470   0.471  13.828  10.349 -0.1421 -0.0966  0.0009
 1345ERGO    R216471   0.299  13.914  10.150 -0.1698  0.1275  0.1164
 1345ERGO    R316472   0.518  14.051  10.065 -0.0751 -0.0720  0.0313
 1345ERGO    R416473   0.350  14.023   9.826 -0.2954  0.2635  0.1417
 1345ERGO    R516474   0.559  13.966   9.845 -0.3429  0.0100 -0.0543
 1345ERGO    C116475   0.585  14.216   9.557 -0.2797  0.1554  0.0766
 1345ERGO    C216476   0.638  14.224   9.211  0.3428 -0.0128  0.0286
 1346W        W16477  16.452   9.280  16.539 -0.1044 -0.1896 -0.2095
 1347W        W16478  15.290   2.293  11.073  0.3029 -0.2763 -0.1216
 1348W        W16479   9.458  16.391  14.680  0.1116  0.1566 -0.2782
 1349W        W16480   8.235   7.611  10.479  0.0142 -0.2170 -0.0790
 1350W        W16481  15.794   4.391  15.907  0.2319 -0.1815  0.1026
 1351W        W16482   9.831   2.632  14.113 -0.1770  0.1988 -0.3223
 1352W        W16483   2.537   7.852  13.327 -0.0449 -0.0271  0.0237
 1353W        W16484   1.578  10.349  13.893  0.0543 -0.1199  0.0889
 1354W        W16485  12.944   3.922   3.421 -0.0760  0.1663 -0.5474
 1355W        W16486   9.668   3.128  13.124  0.0083  0.1607  0.0081
 1356W        W16487   6.810   3.452   5.184 -0.1347  0.2151 -0.0501
 1357W        W16488   0.213  13.787   1.899  0.1067  0.1937 -0.1816
 1358W        W16489  13.331  16.331   0.851 -0.1823  0.4072  0.2358
 1359W        W16490  17.674  15.050   0.066 -0.1184  0.0049  0.1342
 1360W        W16491   9.825   5.474  13.839  0.2246 -0.0284  0.0750
 1361W        W16492  17.867  17.645   2.367  0.0768 -0.0790  0.1482
 1362W        W16493   0.898   1.075  12.631 -0.1012 -0.0814 -0.1822
 1363W        W16494   5.087   4.708   1.803 -0.1011 -0.1464  0.0378
 1364W        W16495  17.819   0.877   1.621 -0.0142 -0.3105  0.1016
 1365W        W16496   8.332   1.413   3.833  0.0605  0.0831  0.2090
 1366W        W16497   0.471   6.997   2.293  0.2235  0.0527  0.2353
 1367W        W16498   2.421   6.929  14.834 -0.1660  0.0773  0.1558
 1368W        W16499   9.979  17.242   4.815  0.1647 -0.0152 -0.1971
 1369W        W16500   1.596   6.823  12.783 -0.1513  0.1149  0.0335
 1370W        W16501   1.389   4.520   2.861 -0.0471 -0.0265 -0.0434
 1371W        W16502  12.829   1.826  15.549 -0.3217 -0.0733 -0.0430
 1372W        W16503  15.094   2.091  11.543 -0.0674  0.0786 -0.0452
 1373W        W16504   5.356   5.011  11.226 -0.0230  0.2024 -0.0482
 1374W        W16505  11.518   3.163  16.323 -0.1449 -0.0765 -0.5932
 1375W        W16506   4.804   6.275  15.990 -0.1405 -0.0063  0.0448
 1376W        W16507   7.527  15.794   2.665  0.1178 -0.2669 -0.2438
 1377W        W16508  17.589   1.094   2.701 -0.1435  0.2906 -0.0149
 1378W        W16509  10.881   9.653   0.154 -0.1761 -0.1036  0.0295
 1379W        W16510  13.702   5.096   5.712  0.2235  0.0985 -0.0552
 1380W        W16511  11.528  13.647  13.015 -0.0118  0.1791 -0.2844
 1381W        W16512  16.367   6.770   3.495 -0.1119  0.0751  0.0909
 1382W        W16513  13.654  13.292  14.475  0.0461 -0.3321  0.0236
 1383W        W16514  13.691   7.625  13.449 -0.0491  0.2798  0.1146
 1384W        W16515  11.416  11.247  13.157 -0.0946  0.0416 -0.1928
 1385W        W16516  10.266   8.787   2.053  0.0512  0.1924  0.2413
 1386W        W16517  15.558   6.859  15.322 -0.1604 -0.3368 -0.0002
 1387W        W16518  10.803  16.307   1.633 -0.1592  0.0228  0.0874
 1388W        W16519   6.336   5.112  11.141  0.7764 -0.0076 -0.2737
 1389W        W16520   6.438  15.588   2.730  0.0779 -0.0342 -0.2598
 1390W        W16521  14.404   1.159  14.441  0.6149  0.0464 -0.0061
 1391W        W16522  17.139   0.859  13.602 -0.0847  0.1981  0.2848
 1392W        W16523  17.236  15.452  13.258 -0.0196  0.3388  0.0261
 1393W        W16524   9.236   1.257   3.542  0.0973  0.2775  0.3635
 1394W        W16525   1.714  15.057   1.974  0.0440 -0.1654  0.0833
 1395W        W16526   2.408   8.630   0.732  0.1914 -0.0390  0.1051
 1396W        W16527   7.405   8.083   2.914  0.1335  0.0259  0.0283
 1397W        W16528   7.259  10.448  12.665 -0.1484  0.1811 -0.0701
 1398W        W16529  16.514   6.779   0.806 -0.2393 -0.0002 -0.0706
 1399W        W16530  13.355   0.423   2.003  0.1286  0.1985 -0.1807
 1400W        W16531   1.250   5.021  14.593 -0.2050 -0.1294  0.0072
 1401W        W16532   4.506   2.313   3.890 -0.1894  0.1190 -0.1406
 1402W        W16533   7.666   3.528   0.740 -0.2821 -0.1361 -0.1012
 1403W        W16534  13.544   0.401  16.518 -0.0371 -0.0399  0.0114
 1404W        W16535   4.793  13.656  16.767  0.0132  0.2233 -0.1403
 1405W        W16536  11.292  16.323   0.652 -0.0043  0.0282  0.1505
 1406W        W16537  14.663   2.832  15.379 -0.2106 -0.0164  0.1667
 1407W        W16538   6.895   4.652   2.455  0.0409 -0.0875  0.1638
 1408W        W16539   7.399   3.706  14.413  0.2789 -0.5137  0.3304
 1409W        W16540   8.719  12.725  15.110  0.2857 -0.2084  0.1593
 1410W        W16541   3.123  14.337   3.334 -0.1514  0.2257 -0.0256
 1411W        W16542   4.015  16.220  14.289  0.1196  0.1867  0.1177
 1412W        W16543   0.363   3.033  12.767  0.1359  0.2676  0.0600
 1413W        W16544   3.099   7.811  13.386 -0.0969 -0.1530 -0.2506
 1414W        W16545   0.578  14.095   2.038  0.0672 -0.0044 -0.0545
 1415W        W16546   7.883  11.025  12.928 -0.0356  0.0154 -0.2869
 1416W        W16547   1.113  13.792   5.327 -0.2513  0.1784  0.2230
 1417W        W16548   4.520   6.096   6.111  0.0336 -0.0078 -0.0702
 1418W        W16549   9.310   0.701  11.816  0.2200  0.0953  0.1922
 1419W        W16550   4.010   1.603  13.318 -0.0603 -0.0563  0.0921
 1420W        W16551  13.106  15.135   1.333  0.0003 -0.0228  0.0811
 1421W        W16552  11.640   8.554  12.023 -0.1138 -0.1516  0.0704
 1422W        W16553  17.859  12.920  15.994  0.3886 -0.0089 -0.2816
 1423W        W16554   3.961   4.914   1.468 -0.0748 -0.0580 -0.0747
 1424W        W16555  14.555   0.766  15.880 -0.2507  0.4538  0.0106
 1425W        W16556   9.358   4.137   1.245  0.0608  0.2069  0.1317
 1426W        W16557   6.035  14.157  14.241  0.4776 -0.1473 -0.0228
 1427W        W16558  16.246  12.546   1.182  0.0096 -0.0577 -0.1595
 1428W        W16559   1.501   6.341  16.637 -0.1832  0.1669  0.0584
 1429W        W16560   2.077  14.805   4.387 -0.4763  0.0339  0.1213
 1430W        W16561   6.391  13.422   3.077  0.2565 -0.0347 -0.3648
 1431W        W16562   6.632  10.904  14.163  0.0407 -0.0596 -0.2310
 1432W        W16563  15.055   4.776   2.329  0.0656 -0.4531  0.1483
 1433W        W16564   6.726   6.845  16.455 -0.2435  0.0111  0.2087
 1434W        W16565  13.488   0.584  14.603 -0.1245 -0.1637 -0.2307
 1435W        W16566   2.812   2.719   2.179 -0.1884  0.3448  0.1967
 1436W        W16567  12.385  16.291   4.002  0.1023 -0.1536  0.0811
 1437W        W16568   5.426   0.591   0.413  0.0499  0.2459 -0.2766
 1438W        W16569   5.896   3.573  12.368  0.3739  0.0785  0.0690
 1439W        W16570   1.143   0.915  15.543 -0.1737 -0.2333 -0.3445
 1440W        W16571   7.624  11.721  13.448 -0.0794  0.3723  0.3400
 1441W        W16572  14.884   1.700  11.317  0.0309  0.0224  0.3653
 1442W        W16573  15.860  17.847  12.898  0.4777  0.3122 -0.0306
 1443W        W16574   1.263   7.992   3.303  0.1023 -0.0095  0.0663
 1444W        W16575  14.279   5.417   0.229  0.1379 -0.3019 -0.1385
 1445W        W16576  15.326  10.963   1.421  0.0808 -0.0232  0.0703
 1446W        W16577   8.275  14.649   2.069  0.3533 -0.2445 -0.0321
 1447W        W16578   6.654   9.308  16.553 -0.1909 -0.1629  0.0837
 1448W        W16579  14.901   2.424  16.505  0.2143 -0.0548 -0.0470
 1449W        W16580   0.258  13.864  13.934 -0.0896 -0.4805  0.1422
 1450W        W16581  14.146  15.405   2.534 -0.0076  0.0555  0.1485
 1451W        W16582  17.062   0.872   5.072  0.1877  0.0895 -0.2638
 1452W        W16583  10.377   7.284  12.479 -0.0025 -0.1195 -0.3121
 1453W        W16584   5.484  16.510  15.574 -0.0222  0.1515  0.3315
 1454W        W16585   2.526   0.744  15.219 -0.2158 -0.1731 -0.1491
 1455W        W16586  11.810   3.488  15.870  0.0343 -0.0353 -0.1590
 1456W        W16587   7.659  14.898  15.466  0.1057  0.1955 -0.0375
 1457W        W16588   7.519   3.314  15.978 -0.1776  0.0214  0.0989
 1458W        W16589  17.708  13.238  13.567 -0.1288  0.0682  0.0091
 1459W        W16590  11.919   8.735  12.871 -0.0416 -0.2421  0.3371
 1460W        W16591  14.900  10.009  12.824 -0.0499 -0.0384  0.0985
 1461W        W16592  10.437   6.153   5.956  0.0219 -0.0997 -0.3162
 1462W        W16593  15.365   7.894  13.777 -0.1482  0.1108 -0.0454
 1463W        W16594  17.880   2.479  14.312 -0.0636 -0.0465 -0.0828
 1464W        W16595  16.223   8.774  16.262 -0.3212  0.1558 -0.0646
 1465W        W16596  17.459  13.129   6.208  0.2372  0.0216  0.1730
 1466W        W16597   1.572   3.752  12.907  0.1034  0.0018 -0.1206
 1467W        W16598  16.680   8.920   1.952  0.3440  0.0780 -0.2890
 1468W        W16599   5.811   1.926   0.046 -0.1405 -0.2115 -0.1285
 1469W        W16600   0.000  14.391   3.634 -0.1505  0.0662 -0.3109
 1470W        W16601  16.451   2.774  14.460 -0.0481  0.0540 -0.1016
 1471W        W16602   5.022   3.627   3.419  0.0954 -0.0948 -0.0357
 1472W        W16603  10.370  13.084  13.431  0.3758 -0.1376 -0.2960
 1473W        W16604  12.295  11.440  15.279 -0.4372 -0.0529  0.0197
 1474W        W16605   4.330   4.652  15.682  0.0327 -0.0282  0.0669
 1475W        W16606  13.014   7.425   0.403  0.1638  0.1222  0.2232
 1476W        W16607   3.632  17.697   5.433 -0.1657 -0.1119  0.0745
 1477W        W16608   5.920   0.221  13.204 -0.2482  0.0869 -0.0275
 1478W        W16609  11.749  16.003  11.332  0.0420  0.1333 -0.1113
 1479W        W16610  12.655   5.345  13.479 -0.1506 -0.2707  0.2944
 1480W        W16611   7.247  17.797   4.166  0.0599 -0.1906  0.3085
 1481W        W16612   9.697   7.866  15.923  0.0842 -0.1477 -0.0954
 1482W        W16613  11.359   8.705  15.079  0.1324  0.1466  0.0512
 1483W        W16614  16.370   3.835  12.303  0.0530 -0.0355  0.0844
 1484W        W16615  15.711   9.504  12.323 -0.0880 -0.0411  0.1521
 1485W        W16616   2.251   2.259  12.689 -0.0783 -0.1189  0.0372
 1486W        W16617   2.851  15.012   3.947 -0.2206  0.0617  0.2207
 1487W        W16618   2.303   6.214  11.282  0.1982  0.2080 -0.2834
 1488W        W16619   2.777   6.874  15.618 -0.1787  0.1633 -0.0728
 1489W        W16620   1.670   3.004   5.168  0.1428  0.0993  0.0162
 1490W        W16621   0.565   5.269  15.702  0.3685  0.2396  0.4053
 1491W        W16622   8.486   2.480  10.616 -0.0903 -0.0734  0.0454
 1492W        W16623  13.505   0.417  15.163 -0.1227  0.0165  0.1418
 1493W        W16624  12.084   5.065  12.966  0.0190  0.2815 -0.2541
 1494W        W16625  12.167  11.501  13.543  0.0853  0.0469  0.2327
 1495W        W16626  14.984   4.670  15.552 -0.0248  0.1269 -0.0350
 1496W        W16627   8.204  17.593  14.190 -0.1500  0.3187  0.0982
 1497W        W16628   2.625   8.885   5.708  0.2469  0.1608 -0.3529
 1498W        W16629  11.715   2.798   2.289  0.3155 -0.2780  0.0009
 1499W        W16630  14.769   9.760  10.938 -0.2156  0.0830 -0.1597
 1500W        W16631   2.190   7.877   3.852 -0.0342  0.1671 -0.2947
 1501W        W16632  14.076  17.542  16.726  0.0917  0.0612 -0.3190
 1502W        W16633   3.229   2.285   4.183  0.0940  0.2022  0.0712
 1503W        W16634   8.783   2.331  15.590 -0.2082  0.0855 -0.1681
 1504W        W16635  11.252   0.751   1.331  0.2035 -0.0862 -0.0205
 1505W        W16636  13.804  15.902   4.098  0.1127  0.0961  0.0621
 1506W        W16637   3.221  12.489  13.674 -0.0402 -0.2272  0.0973
 1507W        W16638  11.868   9.977  10.783 -0.3103  0.0414 -0.0052
 1508W        W16639  11.997  16.694  12.532  0.0449 -0.1113  0.0362
 1509W        W16640   7.548  13.495  10.990  0.0824 -0.1230 -0.0375
 1510W        W16641   1.264  11.796   6.009 -0.1586  0.1079  0.0412
 1511W        W16642   2.158   6.983   1.089  0.0062  0.0920 -0.2594
 1512W        W16643  12.860  12.165  14.849  0.1556  0.1250 -0.2411
 1513W        W16644   7.181   7.014   6.302  0.1766  0.0494 -0.0258
 1514W        W16645   7.281  12.461  14.437 -0.0170 -0.0247  0.1266
 1515W        W16646   5.972   7.604   5.961 -0.2447 -0.2074 -0.0085
 1516W        W16647  10.946   4.791   3.928  0.1795  0.2796 -0.0268
 1517W        W16648   0.944   4.207   2.786  0.0697 -0.1574  0.2592
 1518W        W16649  11.976   6.721   3.665 -0.1151  0.2163  0.0457
 1519W        W16650  17.796   4.628   3.769 -0.2188  0.2207 -0.1887
 1520W        W16651   8.168   9.832   1.487  0.1511  0.4836  0.2464
 1521W        W16652   4.952  16.729   1.504  0.0492  0.1355  0.3947
 1522W        W16653  16.505  11.147   2.306  0.0307  0.0199  0.0830
 1523W        W16654   8.628  15.093   5.256  0.2619  0.0738  0.2659
 1524W        W16655   6.880   4.037  16.544 -0.1404 -0.2636 -0.0419
 1525W        W16656  13.066   7.005   0.852 -0.3451 -0.1755 -0.1099
 1526W        W16657   2.671  16.662  16.344  0.2111  0.1904  0.3506
 1527W        W16658   2.805  13.476  12.211 -0.1134 -0.1665  0.1260
 1528W        W16659   5.794   1.098   3.894 -0.1478  0.0654 -0.2138
 1529W        W16660  16.547  16.814  12.087 -0.2824  0.3972 -0.0415
 1530W        W16661   1.113  11.636  12.358  0.1408  0.0563  0.2268
 1531W        W16662   5.976  14.213   1.178  0.0462 -0.1633  0.3896
 1532W        W16663   5.039   4.613   3.086  0.0304 -0.0862  0.0748
 1533W        W16664  14.508   4.315   3.838  0.1141 -0.1113 -0.1430
 1534W        W16665   8.500   0.675  13.270  0.1617  0.3416  0.1162
 1535W        W16666  11.052  16.525  11.645 -0.3314  0.0887 -0.1451
 1536W        W16667  17.842   7.064   3.882 -0.2094 -0.2145  0.0210
 1537W        W16668   0.757   6.987  11.151 -0.3049 -0.0038  0.0486
 1538W        W16669  15.598   2.001   0.995  0.0584  0.0797  0.0042
 1539W        W16670   5.644   5.652   0.378 -0.1501  0.2325  0.0390
 1540W        W16671   4.853   1.963  15.323  0.1894 -0.2710 -0.2703
 1541W        W16672   5.974   6.317  15.593 -0.0699  0.0052  0.0453
 1542W        W16673   7.414   8.005   5.312 -0.1088 -0.2473 -0.4535
 1543W        W16674  13.443   6.121   5.322 -0.0296  0.1365 -0.0743
 1544W        W16675   3.367  16.919   1.993 -0.1709  0.2112 -0.0233
 1545W        W16676   1.507   2.908   4.649 -0.2491 -0.2504  0.0977
 1546W        W16677   9.204  10.153   0.994  0.0088 -0.2524 -0.3246
 1547W        W16678   8.544   9.177  12.549  0.0209 -0.1083 -0.0549
 1548W        W16679   5.108   7.584  14.400  0.3884 -0.3762  0.0802
 1549W        W16680   8.648   9.556  15.025 -0.2444  0.0665  0.1236
 1550W        W16681  14.426  10.097  12.746 -0.2529 -0.0215 -0.1578
 1551W        W16682   0.080   3.154   2.859  0.2401 -0.0482 -0.2018
 1552W        W16683   4.411  12.541   2.223 -0.0953  0.0412  0.0112
 1553W        W16684   4.053  16.710   6.455 -0.0079  0.1054  0.1192
 1554W        W16685   0.231   3.073   3.817 -0.4709 -0.3760  0.0406
 1555W        W16686   4.315  13.104   5.667  0.0698 -0.3148 -0.1198
 1556W        W16687   5.078  13.318   1.290 -0.3721  0.0379 -0.2426
 1557W        W16688   1.360  12.043   2.599 -0.0170 -0.1979 -0.4173
 1558W        W16689   9.219  10.684   4.676  0.3436 -0.2143  0.2652
 1559W        W16690   1.241   7.165   0.843 -0.1519  0.0591  0.0391
 1560W        W16691   8.406   3.597  11.201  0.1553  0.0201 -0.0928
 1561W        W16692   9.959  11.020   3.627  0.4218  0.1688  0.1547
 1562W        W16693   5.128  10.630   5.239 -0.3042 -0.0068 -0.0150
 1563W        W16694  14.081   3.426   3.667 -0.1266 -0.0411 -0.3219
 1564W        W16695  10.835  10.287  14.239 -0.0909  0.3261  0.1346
 1565W        W16696   6.813  13.874   0.901  0.2058 -0.2607 -0.0659
 1566W        W16697   6.468  15.462   5.010 -0.1842 -0.3180  0.2999
 1567W        W16698   4.738  13.386  12.801  0.0783  0.3133  0.2322
 1568W        W16699   0.031   9.397  14.939  0.1134 -0.1656  0.0758
 1569W        W16700  12.968   9.064  11.238  0.0817  0.1287  0.2547
 1570W        W16701   0.309   7.688  15.530  0.0895  0.0583 -0.0055
 1571W        W16702  17.098   9.541   5.468  0.0388  0.0003  0.3006
 1572W        W16703   8.276  11.553   3.547  0.0601 -0.0804  0.2160
 1573W        W16704  12.477  16.658  13.921 -0.3255  0.0404 -0.3028
 1574W        W16705  16.170   2.631   4.858 -0.0637 -0.1998 -0.0687
 1575W        W16706  16.816   6.929  13.664 -0.0343 -0.0082  0.0133
 1576W        W16707   1.738   2.676  11.631 -0.1902 -0.1455 -0.0137
 1577W        W16708   4.464   6.613   4.796 -0.2322 -0.0052  0.0844
 1578W        W16709   5.584  17.289  14.196 -0.2591 -0.1263 -0.3574
 1579W        W16710   1.557  14.483  12.741 -0.1053 -0.0728  0.1298
 1580W        W16711  16.543   5.763  15.832  0.3021 -0.2203 -0.0297
 1581W        W16712   4.204   8.433   5.811  0.1771 -0.0139  0.2304
 1582W        W16713  12.780   6.249   3.908 -0.1161  0.0008  0.1046
 1583W        W16714  17.334  16.731   1.578 -0.3869  0.0950  0.3316
 1584W        W16715  11.696   6.657   5.887 -0.1333 -0.1857 -0.3298
 1585W        W16716  12.823  15.076  12.738  0.2151 -0.0379  0.2358
 1586W        W16717  10.619   0.608   3.518  0.0132  0.2601  0.1042
 1587W        W16718   4.326  14.842   3.861 -0.0580 -0.3662 -0.0233
 1588W        W16719  10.565   1.311   2.637 -0.0017  0.3022 -0.1335
 1589W        W16720  12.916  13.537  15.701 -0.1161 -0.4023 -0.0141
 1590W        W16721   5.839  13.146  15.509  0.1003  0.0603  0.1425
 1591W        W16722   9.135  10.030   2.175 -0.1713 -0.2909  0.1622
 1592W        W16723   4.215   8.213   4.829  0.1275  0.1721 -0.0746
 1593W        W16724   4.813  12.242  13.008  0.2700 -0.1788 -0.2693
 1594W        W16725   3.932  17.573   1.867 -0.2843  0.0689  0.1252
 1595W        W16726  14.002   4.398  13.393 -0.0572 -0.3217  0.1136
 1596W        W16727   4.790   6.710  12.105  0.0107  0.4054  0.1646
 1597W        W16728  15.779   3.740  12.956  0.1751  0.5908 -0.0213
 1598W        W16729   0.560   0.366  14.788 -0.1281  0.3175 -0.1166
 1599W        W16730  11.659   3.885  10.956 -0.3524  0.1240  0.1523
 1600W        W16731  16.306   3.065  15.771  0.0744 -0.0236  0.3102
 1601W        W16732   8.340   8.782   1.278  0.1195 -0.2742 -0.2386
 1602W        W16733   0.315  15.836   0.078  0.0002  0.0751  0.2795
 1603W        W16734   3.787   7.043  12.190 -0.3306 -0.3492  0.0114
 1604W        W16735   8.698   8.063   2.605 -0.2606 -0.1929  0.0636
 1605W        W16736  17.684  16.259   1.798 -0.1005  0.1003  0.1263
 1606W        W16737  14.773   6.789  12.238  0.1866 -0.2506 -0.1420
 1607W        W16738   0.441   0.260   2.947  0.1524 -0.2251  0.0394
 1608W        W16739   2.600   2.935  14.645  0.0727 -0.1792 -0.0670
 1609W        W16740  11.671   1.519   2.453  0.1562 -0.1701 -0.0472
 1610W        W16741  15.903  15.065   0.936  0.2621 -0.1917  0.0047
 1611W        W16742  14.832  13.081  12.840 -0.1056 -0.1666  0.0458
 1612W        W16743   0.098   3.673   4.840 -0.2977  0.2098 -0.1438
 1613W        W16744  11.883  12.611  11.905  0.0999 -0.0078  0.1237
 1614W        W16745   9.890   8.635   3.581 -0.2249  0.5379 -0.0012
 1615W        W16746   2.680   5.711   0.699  0.0722  0.2316  0.0922
 1616W        W16747  15.204  13.086  11.119 -0.0133 -0.0414 -0.2291
 1617W        W16748  17.480   3.411  13.240 -0.1831  0.0924 -0.0818
 1618W        W16749  13.579   2.578   3.784  0.1622 -0.0441 -0.0411
 1619W        W16750  12.371   1.826   0.575  0.0000  0.1283 -0.0939
 1620W        W16751  17.754   7.778  10.927  0.2073 -0.0127 -0.3441
 1621W        W16752  11.303  14.326  13.614  0.0663  0.3732 -0.1681
 1622W        W16753  12.205   2.617   4.082 -0.0714  0.1032 -0.1554
 1623W        W16754  14.700   6.155   1.762  0.3568  0.0018  0.2465
 1624W        W16755  13.349   4.199  15.718  0.4124  0.2547  0.1469
 1625W        W16756  14.775   3.908   3.741 -0.1692  0.0997 -0.1844
 1626W        W16757  11.982  10.678   5.119  0.2516  0.1948  0.1765
 1627W        W16758   8.603  16.445   5.531  0.1280  0.0233  0.0028
 1628W        W16759  16.134  13.862  13.254 -0.2649 -0.4487  0.1272
 1629W        W16760  12.699   2.012   5.253 -0.1649 -0.1184  0.0958
 1630W        W16761   5.857   9.002  15.944  0.0572 -0.0299 -0.2079
 1631W        W16762   3.723   5.697   0.909 -0.2184 -0.1416  0.0203
 1632W        W16763   4.228  15.383   3.650 -0.1352 -0.0588  0.0011
 1633W        W16764  16.177   2.450   2.623 -0.0884  0.1776  0.0124
 1634W        W16765   5.231  11.312  15.978 -0.1746  0.3287  0.1717
 1635W        W16766   1.972   4.492  12.288 -0.2969  0.3213 -0.0048
 1636W        W16767  13.920  17.003   1.174 -0.1329 -0.0488 -0.4260
 1637W        W16768  13.679   0.330   0.448 -0.0551  0.1651 -0.4067
 1638W        W16769   7.832  17.289   4.350  0.2484  0.2226 -0.0526
 1639W        W16770  16.025   9.344  16.226  0.1003  0.0875  0.3384
 1640W        W16771   1.177  17.579   2.088  0.2234 -0.1526 -0.2668
 1641W        W16772   0.615   8.719  16.399  0.0702  0.2597  0.1349
 1642W        W16773  14.674   4.823   2.640 -0.1139  0.3040  0.0645
 1643W        W16774  13.108  14.896  10.759 -0.2488  0.2238  0.0861
 1644W        W16775   5.213  12.757   1.982  0.0295 -0.1814  0.0879
 1645W        W16776   1.237  16.045   4.307 -0.0109  0.2521 -0.0744
 1646W        W16777   5.327  14.471  13.554 -0.0205  0.1856 -0.1743
 1647W        W16778   4.499   6.944  11.011  0.1140 -0.0156 -0.3615
 1648W        W16779  14.555   8.008  14.854  0.1493  0.0270 -0.2418
 1649W        W16780  15.445   7.212  14.531 -0.2566 -0.1728 -0.2915
 1650W        W16781  14.030   9.932  16.133  0.3300  0.1460 -0.0268
 1651W        W16782  13.985  13.842   1.690  0.2899  0.2240 -0.0481
 1652W        W16783  11.035  10.073  13.259  0.0068 -0.0600 -0.2723
 1653W        W16784  11.799   7.116   0.318 -0.0692 -0.0166 -0.2309
 1654W        W16785  12.749   9.262  13.280  0.1857 -0.1649  0.3340
 1655W        W16786   3.122  12.469  12.596  0.1451 -0.3621  0.0544
 1656W        W16787   5.592  11.313  15.132  0.1993 -0.1138  0.2051
 1657W        W16788   1.350  10.626   0.733 -0.1270 -0.0068 -0.2444
 1658W        W16789   4.317  10.727   2.140  0.1670 -0.1176  0.1287
 1659W        W16790   7.086   1.574   4.213  0.0272  0.3167 -0.3794
 1660W        W16791  16.764  10.307   0.776  0.1104 -0.1352  0.4381
 1661W        W16792  13.105   7.583  13.493  0.3813 -0.1423  0.4053
 1662W        W16793   9.141   0.098  11.018 -0.1295 -0.0801 -0.0822
 1663W        W16794  11.909  17.512   3.946 -0.2108 -0.0098 -0.3339
 1664W        W16795  15.139   7.665  15.245  0.0477  0.0845  0.1899
 1665W        W16796  10.828   3.332   4.342  0.3665 -0.0225 -0.0200
 1666W        W16797   1.596   9.539   0.035 -0.2103 -0.1048  0.0650
 1667W        W16798  11.318   2.484   0.943  0.1211  0.3729  0.1935
 1668W        W16799  14.010   7.071  11.745  0.0871  0.0212 -0.2821
 1669W        W16800   4.254   3.778  16.235  0.1386  0.0442 -0.0942
 1670W        W16801  12.367   8.747  12.662  0.2892  0.0277  0.0685
 1671W        W16802  17.138   6.493  15.124 -0.5348 -0.1282  0.0762
 1672W        W16803   3.535   5.747   4.536 -0.0386 -0.1362  0.1934
 1673W        W16804  14.014   3.124   1.080 -0.0955  0.3461  0.0785
 1674W        W16805  10.461   9.962   6.205 -0.0419 -0.0538  0.1005
 1675W        W16806  15.037   6.333   4.000 -0.0377  0.0121  0.0238
 1676W        W16807  14.650   0.560  15.059  0.3252 -0.1951  0.2392
 1677W        W16808   2.462   5.316   5.302  0.0529 -0.1056 -0.0907
 1678W        W16809  13.787  17.778   4.141  0.1137  0.2388 -0.3346
 1679W        W16810   0.472   3.873  15.224  0.0502 -0.2524  0.1101
 1680W        W16811  15.395   5.278  16.539  0.0010 -0.3019  0.1477
 1681W        W16812  15.936   1.527   0.102  0.3999 -0.1140 -0.3095
 1682W        W16813   0.813  17.139   2.304  0.2848 -0.0457 -0.0625
 1683W        W16814   7.084  16.875   2.503 -0.2368 -0.0041 -0.0148
 1684W        W16815  11.009   9.239  14.344 -0.2042  0.0687  0.2446
 1685W        W16816  16.080  13.539   3.446  0.0674 -0.1900  0.0541
 1686W        W16817   1.427  17.384  14.944 -0.0509 -0.2095 -0.1629
 1687W        W16818  17.561   0.029   2.989 -0.1568 -0.2846 -0.0460
 1688W        W16819  10.174   1.117   5.314 -0.0584  0.0015 -0.3223
 1689W        W16820   4.088   4.882  14.753  0.0323 -0.4236 -0.1610
 1690W        W16821   4.543   1.134   3.871 -0.1426  0.1275  0.0369
 1691W        W16822  15.072  17.560   0.115 -0.1094 -0.2405  0.0642
 1692W        W16823   2.304   1.906   2.117  0.1142 -0.1246  0.0638
 1693W        W16824  17.849   1.296  16.717  0.0716  0.0391  0.1820
 1694W        W16825  14.202   1.910  13.843 -0.3097 -0.3104  0.1361
 1695W        W16826  11.857  17.541   0.414 -0.1736 -0.1402 -0.1486
 1696W        W16827  16.386   9.024   5.323 -0.0333  0.1497 -0.2245
 1697W        W16828   1.481  17.716   5.026  0.2283 -0.0923 -0.0624
 1698W        W16829  10.999   3.326  16.170 -0.0059  0.0576  0.0026
 1699W        W16830  15.047   2.580  12.389 -0.4163 -0.1537 -0.4044
 1700W        W16831  17.009   1.832   2.689 -0.0538  0.2084 -0.4367
 1701W        W16832   9.254   8.885  14.815  0.2691  0.2484 -0.2157
 1702W        W16833  16.261   5.909  12.031 -0.0204  0.0384 -0.0292
 1703W        W16834   5.721   2.758  15.732 -0.0468 -0.2753  0.0627
 1704W        W16835  17.000  16.985  12.465 -0.1334 -0.0167  0.2984
 1705W        W16836   5.309   9.431  12.387 -0.1644 -0.0090  0.2831
 1706W        W16837   8.989   0.048  14.472  0.0756 -0.0618  0.1662
 1707W        W16838  16.095   8.079   1.738 -0.0209 -0.0512  0.0189
 1708W        W16839  14.081   4.367  16.715  0.0817 -0.0985 -0.1070
 1709W        W16840  12.397   6.348  13.984  0.2073  0.3130  0.2102
 1710W        W16841  12.227   3.092   4.410  0.2423  0.0538 -0.0288
 1711W        W16842   5.811  13.425   4.830  0.0225 -0.1456  0.1996
 1712W        W16843  15.467   1.073   4.549 -0.0184  0.0541  0.0990
 1713W        W16844   3.456   1.310  10.764  0.0457 -0.0372 -0.1269
 1714W        W16845   2.664  16.079  12.609  0.1056  0.0134  0.1187
 1715W        W16846   1.979  17.878  16.163  0.2124 -0.2912  0.1428
 1716W        W16847  16.415  11.907   2.038  0.2543  0.1788 -0.2723
 1717W        W16848   0.141   6.915  16.770  0.0386  0.1238  0.0556
 1718W        W16849   5.607   2.954  11.930  0.0860 -0.3662  0.0325
 1719W        W16850  11.806   1.000   4.825  0.0035 -0.2438 -0.0536
 1720W        W16851   8.229  16.091   1.230  0.1814  0.1518 -0.0149
 1721W        W16852   1.730   9.491   2.678 -0.1973 -0.1288  0.2253
 1722W        W16853  13.181   1.359  13.159 -0.1178  0.0147 -0.1692
 1723W        W16854   9.872  17.761   4.854  0.0358 -0.0291  0.0061
 1724W        W16855   8.836   7.818  15.507  0.1785  0.0489  0.1491
 1725W        W16856  17.078  14.253  12.818 -0.0129 -0.3125 -0.2001
 1726W        W16857  16.757  12.944   4.807  0.0710  0.1490 -0.2239
 1727W        W16858   0.722   6.394  14.198  0.1529 -0.2294 -0.1768
 1728W        W16859  12.865   9.416   1.235  0.2604 -0.1960 -0.1204
 1729W        W16860   6.449   8.283   3.472 -0.1569 -0.2223 -0.0342
 1730W        W16861  16.138  17.301   5.939  0.0535  0.2323 -0.0324
 1731W        W16862   9.263   6.615  12.330 -0.0659  0.1085 -0.2811
 1732W        W16863  11.096   0.805   2.759 -0.0256 -0.1122 -0.1978
 1733W        W16864   9.722   9.700   2.369 -0.3108 -0.1566  0.1528
 1734W        W16865   3.220   2.546   5.637  0.1277 -0.1936 -0.1565
 1735W        W16866   3.552  14.485  14.092  0.0452  0.1925 -0.1060
 1736W        W16867  16.238   1.018   0.819  0.1210 -0.3659  0.1519
 1737W        W16868   0.050   8.905   4.193 -0.0870 -0.0608 -0.1091
 1738W        W16869   2.078   5.141  14.320  0.1598  0.0816  0.0544
 1739W        W16870  17.488  10.056   3.292  0.1378  0.0936  0.0030
 1740W        W16871  13.330   1.878  14.032 -0.2278 -0.1624  0.0666
 1741W        W16872   1.930  16.279  15.096  0.1430 -0.1372 -0.0886
 1742W        W16873   9.981   8.815   2.499  0.2162 -0.1709 -0.0109
 1743W        W16874   1.127  10.341   4.139  0.0562  0.0729  0.4083
 1744W        W16875  13.319  13.532  13.666 -0.0534  0.0140  0.2155
 1745W        W16876   7.051  16.021  13.227  0.0312  0.1711  0.0364
 1746W        W16877   2.897   7.829   1.119 -0.1417 -0.1169  0.2375
 1747W        W16878   8.774   2.227  12.428 -0.1735  0.0856 -0.0159
 1748W        W16879   8.664   0.359   2.990 -0.0499  0.2354 -0.2969
 1749W        W16880   7.239   5.292   0.344 -0.0990  0.1684  0.1665
 1750W        W16881  12.901  10.099   5.402 -0.0560  0.1934  0.0924
 1751W        W16882  11.429   0.375  13.236  0.3946 -0.2075 -0.0285
 1752W        W16883   3.094  13.091  11.464 -0.5070  0.0187  0.1091
 1753W        W16884   8.368   0.852  16.197 -0.0289 -0.1006 -0.0968
 1754W        W16885  17.792   7.722  13.383 -0.1062  0.1711 -0.1264
 1755W        W16886  14.633   4.417   0.988 -0.0756  0.2702  0.0689
 1756W        W16887   3.793   9.510  11.647 -0.0361  0.3328  0.1321
 1757W        W16888  17.499  15.541   1.282  0.1316 -0.1903 -0.3791
 1758W        W16889  10.580  10.357  14.679 -0.0511  0.1269 -0.0096
 1759W        W16890  13.951  15.034   3.819 -0.2449  0.1907 -0.0505
 1760W        W16891  12.107   3.574   0.855  0.1172 -0.0440  0.0017
 1761W        W16892  13.540   8.582  15.116  0.3539  0.0029 -0.0022
 1762W        W16893   4.951   4.017  11.155 -0.1588  0.1083  0.0702
 1763W        W16894   3.782   4.753  16.069  0.1727 -0.0461 -0.0200
 1764W        W16895   4.024  15.426  15.743 -0.2159  0.1655  0.0774
 1765W        W16896  15.450   8.710  14.164 -0.0794 -0.2967 -0.1065
 1766W        W16897   4.175   8.583   5.333  0.1269  0.0445 -0.0458
 1767W        W16898  13.283  12.364   6.351  0.1934 -0.0170  0.0434
 1768W        W16899  14.358   1.235  13.981  0.1040  0.0207 -0.0261
 1769W        W16900  16.503   7.620   6.319 -0.0569  0.1535 -0.1924
 1770W        W16901   0.459  12.919   3.023  0.1193 -0.0397 -0.0744
 1771W        W16902   8.304   7.836  14.611 -0.0561  0.1037  0.0255
 1772W        W16903  11.414   3.156  15.815  0.0020  0.1903  0.0209
 1773W        W16904   4.032   4.024  13.785 -0.0605  0.1127 -0.2939
 1774W        W16905  17.270   3.273  12.342  0.0795 -0.0973 -0.0894
 1775W        W16906  11.503   9.627   5.320 -0.1699  0.1904 -0.2118
 1776W        W16907  15.525   5.320  12.116  0.2321  0.2095  0.0306
 1777W        W16908  17.240   0.315  16.596  0.1225  0.0026  0.1658
 1778W        W16909   5.546   3.440   2.676  0.0942  0.0866  0.0191
 1779W        W16910  16.261   0.928   2.638 -0.0229  0.2385  0.1059
 1780W        W16911   1.241  16.906   2.183  0.2386 -0.2596 -0.0966
 1781W        W16912  15.068  15.171   3.861  0.1626  0.2298  0.2933
 1782W        W16913   3.325  16.945   3.251 -0.4333 -0.3699  0.1320
 1783W        W16914   9.472   7.951   5.454  0.1859 -0.0954 -0.2797
 1784W        W16915  13.509   0.855  14.089  0.0288 -0.1916  0.2524
 1785W        W16916   0.146  12.176   2.446  0.0947 -0.2843 -0.4291
 1786W        W16917   5.164  11.286   4.558  0.2981  0.2574  0.3314
 1787W        W16918   3.608  15.455   2.137  0.0989 -0.1452 -0.0961
 1788W        W16919   6.530   5.918   0.662 -0.0041 -0.0637 -0.1008
 1789W        W16920   8.621   3.106  10.835  0.0085  0.0067  0.1778
 1790W        W16921  16.938   4.032  13.675  0.0579 -0.2393  0.0866
 1791W        W16922   1.025   7.994   0.646 -0.0413  0.0442 -0.1571
 1792W        W16923   1.914   3.942  14.022  0.1518 -0.3276 -0.2163
 1793W        W16924   5.455   4.984  14.020 -0.1677 -0.1417 -0.1029
 1794W        W16925  12.537   1.894  10.755  0.0836  0.3486 -0.2416
 1795W        W16926   3.682   3.451   6.276  0.0751  0.0397  0.0931
 1796W        W16927   3.564  17.176   2.750 -0.2346 -0.1468  0.0365
 1797W        W16928   1.247   1.348  14.825  0.3566 -0.1371  0.1679
 1798W        W16929   0.579   3.213  14.831 -0.0445  0.0332 -0.2430
 1799W        W16930  16.266   4.650  14.817  0.0813 -0.1008  0.1633
 1800W        W16931   6.801   1.838   1.828  0.0536 -0.3050  0.4283
 1801W        W16932   8.554  12.368  11.659 -0.2227  0.1569  0.0722
 1802W        W16933   4.125   1.182  11.790  0.0495 -0.1044 -0.0599
 1803W        W16934   3.723   0.717   0.521 -0.1949 -0.1690 -0.0890
 1804W        W16935   9.233  14.086   0.812  0.2384 -0.1004  0.0252
 1805W        W16936  11.287   8.972   1.534  0.3280 -0.0684 -0.1491
 1806W        W16937  15.320  11.350  13.563 -0.3060 -0.0274 -0.0543
 1807W        W16938   1.861  10.322  15.803  0.2329 -0.1378  0.0507
 1808W        W16939   8.526   7.274  11.388  0.0044 -0.4148 -0.1068
 1809W        W16940  10.912   3.703  16.682 -0.2399  0.0023  0.1055
 1810W        W16941  12.208   1.866  12.542 -0.2129  0.1649 -0.2232
 1811W        W16942  11.040   2.228  15.387  0.1413  0.4369  0.1067
 1812W        W16943  16.721  10.551  15.460  0.2409 -0.1028 -0.2251
 1813W        W16944  17.619   0.091   6.548 -0.0756  0.0148 -0.3674
 1814W        W16945   3.241   2.403   2.496 -0.0684 -0.1203 -0.2642
 1815W        W16946  14.014   7.983   1.176  0.3132  0.2835  0.0620
 1816W        W16947  10.718   6.783   2.130 -0.1602 -0.0719 -0.4271
 1817W        W16948   0.765   3.658   1.190 -0.0706  0.0493  0.0252
 1818W        W16949   4.994   2.933  15.464 -0.2799 -0.0974 -0.1199
 1819W        W16950   5.173  14.956  13.703 -0.0369  0.0097 -0.3716
 1820W        W16951  17.230  17.624  11.766 -0.1804 -0.0465  0.0610
 1821W        W16952  14.289   9.849  13.182 -0.0832  0.1111 -0.5172
 1822W        W16953   2.871   5.989   2.662  0.1563  0.1833  0.1723
 1823W        W16954   3.713   0.284   4.425  0.0044 -0.1126  0.1246
 1824W        W16955  13.142   5.946  10.983  0.0928 -0.0557  0.0509
 1825W        W16956  12.149   8.979  14.883 -0.0171 -0.0392  0.0219
 1826W        W16957   4.668  17.393   0.326  0.1795  0.3006 -0.1309
 1827W        W16958  14.731   8.576  13.423  0.1354 -0.1302 -0.1565
 1828W        W16959  16.275  10.127   2.535 -0.2416  0.1377 -0.0013
 1829W        W16960   2.148  12.228   0.641 -0.0661 -0.1486 -0.1207
 1830W        W16961   8.815   4.613  12.441 -0.0227  0.0984  0.2645
 1831W        W16962   6.812  16.227   3.635 -0.0605 -0.0677 -0.1682
 1832W        W16963   9.615  16.464  11.421  0.1748 -0.0536  0.0442
 1833W        W16964  10.566   9.513  10.746  0.0964 -0.3009  0.0020
 1834W        W16965  16.804  16.864   4.252  0.2303  0.4664 -0.0572
 1835W        W16966  17.415  10.837   5.957 -0.1858 -0.2144  0.0539
 1836W        W16967  11.326  12.455  12.501  0.0808 -0.0545  0.1798
 1837W        W16968  13.166   0.794  15.190  0.3048 -0.2991  0.1837
 1838W        W16969  12.863   8.349   4.858 -0.3553 -0.2948  0.1016
 1839W        W16970   7.146   1.005  11.369  0.0416 -0.0758 -0.0446
 1840W        W16971   2.189   8.452   4.765 -0.0081  0.2308  0.2898
 1841W        W16972   1.632  13.754  14.491  0.1477  0.2141 -0.1356
 1842W        W16973   0.609   0.957  15.596  0.1045  0.1881  0.1784
 1843W        W16974   0.978  17.199   1.321 -0.1219 -0.0603  0.1554
 1844W        W16975  11.061  16.813   1.994 -0.0497  0.0860  0.2409
 1845W        W16976  12.317  10.503  14.476 -0.2108  0.0413  0.0681
 1846W        W16977  15.948  12.652  13.004  0.1197 -0.2465 -0.1805
 1847W        W16978   5.385   8.401  16.025  0.1457  0.1819  0.1117
 1848W        W16979   7.400   6.870  16.077  0.1241 -0.2905  0.0712
 1849W        W16980  15.736  13.926   0.522 -0.1807  0.1091  0.0647
 1850W        W16981  12.196   7.794  13.935 -0.0851 -0.2151 -0.0786
 1851W        W16982   6.335   9.662  16.317 -0.1589 -0.1957  0.1965
 1852W        W16983   9.995   3.777  13.672  0.0614  0.0244 -0.3044
 1853W        W16984  15.985   3.487  13.315 -0.0261  0.1862  0.0435
 1854W        W16985   0.528  12.091   0.010  0.0085 -0.3399  0.0153
 1855W        W16986  11.963   2.170   0.440 -0.3846 -0.1402  0.2529
 1856W        W16987   3.591   7.905  10.720  0.0144  0.0162 -0.0597
 1857W        W16988   2.878   5.250  14.715 -0.1136 -0.3892  0.0523
 1858W        W16989   1.846   1.297   2.492  0.3264  0.3022  0.0935
 1859W        W16990   7.903   4.159   0.244 -0.0716 -0.0086 -0.2348
 1860W        W16991   0.837  11.313  13.813 -0.2745 -0.0778 -0.0229
 1861W        W16992   2.914   6.462  14.175 -0.1400 -0.3168  0.3835
 1862W        W16993  15.974  13.735  15.434  0.2302 -0.0718 -0.0961
 1863W        W16994   2.452   2.010  14.643  0.3219  0.1059 -0.1853
 1864W        W16995   0.565   5.908   3.828 -0.1090  0.0592 -0.0692
 1865W        W16996   1.197  17.262   2.926 -0.1470  0.3048 -0.0624
 1866W        W16997   6.204   7.955  16.511 -0.0276  0.0513  0.1531
 1867W        W16998   8.338   7.109   1.511 -0.0898  0.2202 -0.1311
 1868W        W16999  13.392  10.743   5.605  0.2595 -0.0865 -0.3125
 1869W        W17000   0.126   6.446  11.517 -0.4322  0.3174  0.2374
 1870W        W17001  10.508   8.937   4.422 -0.2059  0.1706  0.1127
 1871W        W17002  11.733   9.600  13.464 -0.0943 -0.3107  0.0643
 1872W        W17003   0.566   6.698  12.303  0.0668  0.1052 -0.1862
 1873W        W17004   9.372   3.219  15.729  0.0506  0.3155 -0.0233
 1874W        W17005  13.009  10.784   1.815 -0.1908 -0.0034  0.2600
 1875W        W17006   5.982   7.962   1.071  0.2321 -0.2216  0.0628
 1876W        W17007  15.846  17.289  10.326 -0.0463 -0.2042 -0.0870
 1877W        W17008   5.481  14.858   5.653 -0.1901 -0.1009 -0.0039
 1878W        W17009  11.673   1.484   2.925 -0.1021  0.1024 -0.0036
 1879W        W17010  10.128  10.871   1.805 -0.1347 -0.0603 -0.2457
 1880W        W17011  10.110   7.930   1.874  0.1448 -0.0459  0.0811
 1881W        W17012  12.535  10.747  14.043 -0.1689 -0.1286 -0.0191
 1882W        W17013   8.351  13.068   3.846  0.1683 -0.2823 -0.1526
 1883W        W17014   2.997  10.768   2.572  0.1449  0.0531  0.3017
 1884W        W17015   9.388  15.004   5.446  0.1059 -0.1312 -0.1658
 1885W        W17016   2.333   2.496   2.316 -0.2402 -0.0865  0.1290
 1886W        W17017   0.443  15.226   5.685  0.3687  0.0876  0.0711
 1887W        W17018   2.508   8.973   5.138 -0.0943 -0.2287  0.1831
 1888W        W17019   3.765   0.462  12.737 -0.1065 -0.1085  0.0367
 1889W        W17020   6.935   6.720   4.629  0.2408 -0.0354 -0.1049
 1890W        W17021  13.777   8.222  10.595  0.0350  0.0686  0.1905
 1891W        W17022   7.277  11.876   0.631  0.0783 -0.2953  0.0471
 1892W        W17023  17.107   1.992   0.137 -0.0118 -0.0191  0.0218
 1893W        W17024   6.157  17.685  11.841 -0.0928  0.0042 -0.1264
 1894W        W17025   4.450   0.575   1.910 -0.1544  0.2079  0.0274
 1895W        W17026  17.402   9.856  11.635 -0.0293  0.2870  0.0276
 1896W        W17027   2.758  13.522   2.393 -0.0033  0.2205 -0.0454
 1897W        W17028  16.284  10.903   6.036  0.1518 -0.0716  0.1241
 1898W        W17029  11.461  16.675   3.240  0.1576 -0.0052  0.2309
 1899W        W17030  17.120  12.866   5.263 -0.0430 -0.1472 -0.1898
 1900W        W17031   9.340   7.065  11.022  0.5720  0.0411 -0.0602
 1901W        W17032   1.459  14.951   5.209  0.1818 -0.2559 -0.2485
 1902W        W17033   4.898   2.151  14.856  0.2628  0.0754  0.1124
 1903W        W17034  13.315  13.208   5.383 -0.1877 -0.0621  0.0386
 1904W        W17035   7.967  15.610  11.631  0.0202  0.1030 -0.0074
 1905W        W17036   0.901   6.584  13.743  0.2018 -0.0492  0.1176
 1906W        W17037  16.707   0.930   0.851 -0.2332 -0.1284  0.0601
 1907W        W17038   5.994   1.262  12.138  0.4350  0.1093  0.1918
 1908W        W17039   4.434   7.617  14.960  0.0156  0.1098  0.0397
 1909W        W17040   7.294   4.766   4.571 -0.2539 -0.0977  0.0087
 1910W        W17041   3.836  17.677   0.554 -0.0739  0.1136  0.1004
 1911W        W17042   7.415   9.678   4.165  0.0191 -0.2083  0.1202
 1912W        W17043   4.291  11.520   0.770  0.1591 -0.0648 -0.0411
 1913W        W17044   0.240   8.878   0.789  0.2051  0.0437 -0.1000
 1914W        W17045   9.868  14.978   1.578 -0.1986  0.0032  0.0968
 1915W        W17046  10.011   5.844  13.468  0.0817  0.0779 -0.0475
 1916W        W17047  17.446  16.976  14.436 -0.0436 -0.0359  0.1285
 1917W        W17048   1.660  14.292   2.014  0.0878 -0.0370  0.0868
 1918W        W17049   6.095  15.440   1.421 -0.1159 -0.0385  0.0690
 1919W        W17050   0.074   5.341   3.142 -0.0100 -0.0886 -0.0164
 1920W        W17051   7.926   8.943  14.176 -0.0869  0.1692 -0.2272
 1921W        W17052   5.733   9.136   2.621 -0.0827 -0.2178  0.1172
 1922W        W17053   8.400   7.334   2.007  0.1744 -0.1335  0.1131
 1923W        W17054   0.670  13.386  12.471 -0.0343  0.1423  0.2969
 1924W        W17055  11.378   4.354  11.962  0.0125  0.0879 -0.0973
 1925W        W17056   8.927   6.845   4.095 -0.0216  0.0892 -0.1870
 1926W        W17057   4.558   3.761  15.608  0.1253  0.0373  0.0648
 1927W        W17058  16.910  10.101   1.195  0.1392 -0.0804 -0.3128
 1928W        W17059   7.818   9.153   4.924 -0.1733 -0.0195 -0.0715
 1929W        W17060   9.283   9.661  15.913 -0.2120  0.1780  0.3046
 1930W        W17061  15.479  14.167   5.275 -0.4132  0.0313 -0.0387
 1931W        W17062  17.389  12.208  13.836  0.0088 -0.2394 -0.2718
 1932W        W17063  14.788   1.110   2.854  0.4961 -0.2073 -0.1382
 1933W        W17064   2.422  12.988  13.850  0.0210  0.1589  0.1609
 1934W        W17065  14.937   3.298  11.746  0.3211  0.0085  0.0687
 1935W        W17066   3.587   1.411   1.479  0.0583 -0.0100 -0.0453
 1936W        W17067  13.465   4.135   3.441 -0.1092  0.0449 -0.3807
 1937W        W17068  13.341   8.112   3.261 -0.2563  0.0307  0.1187
 1938W        W17069  14.291   0.448   2.193 -0.1172 -0.3602 -0.1441
 1939W        W17070  13.884   8.567   0.527  0.0968 -0.0390  0.0975
 1940W        W17071   1.056  11.197   3.089  0.1328 -0.0653  0.0886
 1941W        W17072  15.598   9.245   4.811  0.0039  0.1378 -0.4395
 1942W        W17073   8.825   5.977  11.561 -0.1813 -0.1430  0.3120
 1943W        W17074  10.973   0.111  13.130 -0.3640 -0.2494 -0.0043
 1944W        W17075  13.463  14.101  15.910  0.2739 -0.0889 -0.3410
 1945W        W17076   0.973   2.353   0.466  0.1341  0.2790 -0.0837
 1946W        W17077   1.080   8.247   5.184  0.0999 -0.0031  0.0908
 1947W        W17078  15.176  15.975   1.840 -0.0891 -0.3410  0.1392
 1948W        W17079  14.994  15.541  13.318 -0.1486 -0.1451  0.1557
 1949W        W17080  12.299  12.233  14.837  0.0828 -0.1913 -0.1189
 1950W        W17081  10.419   8.661   4.837  0.2546 -0.0619  0.0960
 1951W        W17082   5.214   2.116   4.762  0.2358  0.0655 -0.0047
 1952W        W17083   0.780   8.620   1.401 -0.2656 -0.0823  0.1473
 1953W        W17084   8.423   1.803  14.279  0.1944  0.0087  0.0091
 1954W        W17085  13.678  10.913   0.089  0.1529 -0.0340  0.1298
 1955W        W17086   9.105  11.593  12.688 -0.1424  0.3043  0.1266
 1956W        W17087  12.827  12.491  11.711  0.4566 -0.0222 -0.2243
 1957W        W17088   5.848  17.250   0.056 -0.1586  0.1930  0.2561
 1958W        W17089  15.326   1.305   0.368 -0.1738  0.0714 -0.1303
 1959W        W17090   8.026  11.920   2.882 -0.1131 -0.0589 -0.1740
 1960W        W17091   3.920  16.860   2.364 -0.2242  0.2056 -0.0032
 1961W        W17092  13.897  11.788   1.499  0.2558  0.1488  0.2131
 1962W        W17093   3.931   7.918  15.243 -0.0675 -0.1595  0.3113
 1963W        W17094   2.842   1.182  16.176  0.1639  0.1319  0.1514
 1964W        W17095   7.064  10.616  14.486  0.0696 -0.0692  0.1804
 1965W        W17096  16.805  14.487   0.260 -0.1779  0.1183 -0.2472
 1966W        W17097  15.733  10.827  14.130 -0.0973 -0.2908  0.0764
 1967W        W17098   6.072   4.300   2.080  0.0911 -0.0533 -0.0626
 1968W        W17099  12.837   9.965  11.363 -0.2417 -0.0937 -0.1259
 1969W        W17100   9.603  13.813   0.565  0.1799 -0.1370 -0.1788
 1970W        W17101  17.508   5.747  14.891  0.3590  0.0493  0.1211
 1971W        W17102   4.735  13.774  14.475 -0.0351 -0.2937  0.1322
 1972W        W17103   8.018  12.288   0.228 -0.1630 -0.0277  0.3630
 1973W        W17104   6.348  14.376   2.897 -0.0289 -0.3509  0.0599
 1974W        W17105   5.215  13.619   2.611  0.0620  0.0783 -0.0567
 1975W        W17106  16.076  12.543  11.132 -0.0139 -0.3931  0.0792
 1976W        W17107   3.406   6.969   2.684  0.0158 -0.5351  0.0366
 1977W        W17108   4.039  14.064  12.393  0.0222  0.0360  0.1046
 1978W        W17109   2.202   3.568  13.910 -0.0653  0.1030 -0.0624
 1979W        W17110   1.740  17.766   2.187 -0.0939 -0.1375  0.1145
 1980W        W17111   4.838   6.049   1.392  0.2309  0.1346 -0.1335
 1981W        W17112  10.036   4.898   2.310 -0.0062 -0.1670  0.0696
 1982W        W17113   1.438   5.980  14.540 -0.0801  0.1332  0.0516
 1983W        W17114  11.481   9.179   0.750  0.0215 -0.1751  0.2036
 1984W        W17115   8.126   6.463   5.614  0.0810 -0.1620 -0.0477
 1985W        W17116  15.425   6.089   4.846  0.1246 -0.4086 -0.0302
 1986W        W17117   4.991  12.556   0.679 -0.3127  0.2263  0.1233
 1987W        W17118   5.793   8.673  14.511  0.0626  0.2334  0.1513
 1988W        W17119   8.111   5.193   0.457 -0.1938 -0.0038  0.1048
 1989W        W17120   2.876   9.054   0.766 -0.2672 -0.1583 -0.0093
 1990W        W17121  14.412   0.423  16.214  0.0636  0.1261 -0.0044
 1991W        W17122   0.504  12.869  15.752  0.1275  0.2326 -0.1330
 1992W        W17123  12.867   6.069  13.153  0.4082 -0.3508 -0.3858
 1993W        W17124   0.952  17.187   4.551  0.1411 -0.0022  0.0894
 1994W        W17125  10.961   1.052  12.778  0.1333 -0.3082  0.1665
 1995W        W17126   8.615   7.812   2.067 -0.1894  0.2308  0.3107
 1996W        W17127   4.310  14.302  13.874  0.1514 -0.1242 -0.1292
 1997W        W17128   5.184   2.802  13.522  0.0610  0.1306  0.2379
 1998W        W17129   9.776   1.208   4.640  0.4444 -0.2021  0.1939
 1999W        W17130  10.248  14.502  12.992 -0.0019 -0.2655 -0.2669
 2000W        W17131   9.346  12.515   2.350 -0.0709 -0.2941  0.0995
 2001W        W17132  16.013   8.732   0.360  0.0319 -0.1407 -0.0170
 2002W        W17133   8.506  13.290   4.469  0.0472 -0.1225 -0.0419
 2003W        W17134  13.733   0.360   6.726  0.3347 -0.0484 -0.0060
 2004W        W17135   4.967   3.732  16.556  0.0509 -0.2980  0.1315
 2005W        W17136   2.599   9.836  15.786 -0.1968  0.1592 -0.1057
 2006W        W17137  10.396   8.296  16.510  0.1731  0.0619  0.1926
 2007W        W17138   1.689   2.501   5.134 -0.1639  0.1217  0.2952
 2008W        W17139  13.335  17.582  14.418 -0.0836 -0.1219 -0.2247
 2009W        W17140  11.370  12.609   3.263 -0.1943 -0.1329 -0.1098
 2010W        W17141  15.258   7.913  16.670  0.0788  0.0853 -0.1401
 2011W        W17142   6.516  17.171  16.762  0.1967 -0.1278  0.0811
 2012W        W17143   6.871  12.581  13.536 -0.0523  0.1369  0.0750
 2013W        W17144  13.718  13.658   1.268 -0.3102 -0.2543  0.0802
 2014W        W17145   9.782  10.609   3.956  0.3490 -0.0593  0.0219
 2015W        W17146   7.346   5.837  11.514  0.0575  0.0653  0.3064
 2016W        W17147  16.299  17.612   2.160 -0.0560  0.3416 -0.3021
 2017W        W17148   9.409   0.600  12.638  0.3669  0.1591 -0.2360
 2018W        W17149   1.231   9.790  11.235  0.0511 -0.0378 -0.0388
 2019W        W17150  16.204  16.739  16.527  0.0314 -0.5409  0.0277
 2020W        W17151   2.050  13.631  12.305 -0.0355  0.2971  0.0726
 2021W        W17152   1.071   4.604  14.675  0.1495  0.0480 -0.0569
 2022W        W17153   8.119   1.507  16.722 -0.1361  0.4076  0.4182
 2023W        W17154   2.063  15.233  14.750 -0.1312  0.0677  0.0857
 2024W        W17155  14.577  11.672   2.643  0.1208 -0.0966 -0.0342
 2025W        W17156   6.114   5.827  12.193  0.1085 -0.0764  0.3752
 2026W        W17157   3.314   9.810  13.826 -0.0578  0.1459 -0.2118
 2027W        W17158   2.954  14.877   1.923  0.2543  0.1851 -0.0898
 2028W        W17159  13.205   0.187  10.639 -0.2166 -0.1802 -0.2256
 2029W        W17160   5.789   0.799   0.935 -0.1330  0.0229 -0.0496
 2030W        W17161   3.678   9.691   2.639  0.2753  0.2623  0.2690
 2031W        W17162   6.736  16.004   1.447 -0.2036 -0.2347  0.0146
 2032W        W17163  11.388  17.749   2.200  0.0720  0.1650  0.0498
 2033W        W17164  12.704  17.152  16.225 -0.2237 -0.0750 -0.3153
 2034W        W17165  11.391   5.660  15.445 -0.0021 -0.1079 -0.1365
 2035W        W17166  10.580   3.845  11.733  0.3310 -0.1559  0.0755
 2036W        W17167   6.729   3.398   0.356 -0.1670 -0.0963  0.1559
 2037W        W17168   5.372   8.540   4.761 -0.0058 -0.3304  0.1127
 2038W        W17169   0.359   5.973  15.551  0.2180 -0.0343 -0.0211
 2039W        W17170  14.175  13.218  16.755 -0.3284 -0.0161 -0.2222
 2040W        W17171   7.055  12.855   4.590 -0.2120 -0.2776  0.3103
 2041W        W17172   0.889  14.378  13.271 -0.2507 -0.1082  0.0978
 2042W        W17173  11.188   7.050  16.633  0.1708  0.0432 -0.1984
 2043W        W17174   5.909  11.483  13.364  0.2920 -0.0373 -0.0227
 2044W        W17175  16.548   6.168  12.399  0.2815  0.3305 -0.1321
 2045W        W17176   7.311   6.648  11.231  0.0199  0.0640 -0.0615
 2046W        W17177   6.469   7.123   0.761 -0.0464  0.5480  0.1680
 2047W        W17178  14.509  17.427   2.200  0.0670  0.1621  0.2070
 2048W        W17179   4.240  11.955  13.859  0.4081 -0.1099  0.2061
 2049W        W17180  11.821   4.617   0.956  0.0109 -0.1862  0.0838
 2050W        W17181   0.687   6.028   3.225  0.1792  0.2459  0.2628
 2051W        W17182  14.432  14.157   5.304  0.0398  0.0398  0.0926
 2052W        W17183  12.902  10.012   1.256  0.1086  0.0012  0.0698
 2053W        W17184   0.867   6.139  15.535  0.2933  0.1602  0.1799
 2054W        W17185  12.548   9.153   5.366  0.2012  0.2635 -0.2731
 2055W        W17186   1.007   2.542   2.245  0.0165 -0.0796 -0.0282
 2056W        W17187  11.266   7.170   3.264  0.1458 -0.0184  0.2450
 2057W        W17188   2.595   7.178  12.037 -0.1476 -0.1506  0.1458
 2058W        W17189  14.087  14.796   1.928  0.1496  0.2194  0.0371
 2059W        W17190   0.422  11.992  11.658 -0.0535 -0.3014 -0.0987
 2060W        W17191   9.882  13.476   1.187 -0.0017  0.1807 -0.0687
 2061W        W17192   1.695   2.852  16.379  0.2424  0.0201 -0.2579
 2062W        W17193   9.215  14.273   2.263 -0.0987 -0.0046 -0.0185
 2063W        W17194   0.576  15.735  14.789  0.1677 -0.1599  0.0999
 2064W        W17195  15.079   8.820  12.820  0.2140 -0.1882 -0.0191
 2065W        W17196  17.036  12.204  14.796  0.0512 -0.0803  0.3235
 2066W        W17197  17.595   1.975  11.239  0.2347  0.2113 -0.1897
 2067W        W17198   0.290  17.819   5.648 -0.1332  0.0887  0.1637
 2068W        W17199  16.583   9.306  12.640 -0.1756  0.4195  0.0441
 2069W        W17200   6.115  17.505  14.646 -0.1871 -0.0079  0.0075
 2070W        W17201  12.605   3.057  14.780  0.1703  0.1537  0.0272
 2071W        W17202  16.504   0.984   1.730  0.1261  0.1510 -0.1243
 2072W        W17203   7.718   5.504   0.367  0.1883 -0.1692 -0.1351
 2073W        W17204   4.732   4.343   0.932  0.0278 -0.1044 -0.1417
 2074W        W17205   2.787   9.652  11.517  0.1147 -0.0623 -0.1089
 2075W        W17206   3.173   0.803   6.095 -0.1630  0.2609 -0.2005
 2076W        W17207  14.795   2.832  12.072  0.0118  0.1821  0.0894
 2077W        W17208   3.505  10.555  15.962  0.1283  0.4529 -0.1045
 2078W        W17209   2.062   8.373  14.964  0.0931  0.3649  0.0473
 2079W        W17210  11.055   2.325  13.803  0.0645  0.0867  0.3020
 2080W        W17211   1.716  12.742   1.465 -0.2739  0.2536  0.1292
 2081W        W17212  12.356   1.675  16.092  0.0916  0.1218  0.1660
 2082W        W17213   3.153   0.467   3.761 -0.0321  0.3282  0.0573
 2083W        W17214   1.653  11.988   4.246  0.3388 -0.2368  0.1139
 2084W        W17215  11.493   6.403   4.392 -0.0898  0.1480 -0.1039
 2085W        W17216  14.224  11.812   3.605  0.1150  0.0936 -0.3104
 2086W        W17217  11.038   0.312  13.603 -0.1057 -0.0085 -0.0698
 2087W        W17218   0.488  17.657  13.325  0.0487 -0.1965  0.0141
 2088W        W17219  11.382   1.216   5.997  0.1080  0.0517 -0.0804
 2089W        W17220   9.173   2.975  15.113 -0.3056  0.0124 -0.1668
 2090W        W17221  17.715  10.206  12.616  0.1635  0.2009  0.0580
 2091W        W17222  15.879  11.619   0.286 -0.5748 -0.0070 -0.3179
 2092W        W17223  12.766  12.921   0.245 -0.3455 -0.0577 -0.1539
 2093W        W17224  10.615   3.231   1.854  0.0963  0.0873 -0.0191
 2094W        W17225  16.269   4.027   5.237 -0.0834 -0.1905 -0.1172
 2095W        W17226  14.026  14.883  11.677 -0.0726  0.0049  0.0886
 2096W        W17227  17.017  11.140   5.919  0.1350  0.0595  0.0585
 2097W        W17228  15.700  14.927   3.190  0.1757 -0.1112 -0.1268
 2098W        W17229   7.426  11.007  13.746  0.1040  0.0243 -0.1136
 2099W        W17230   1.136   2.565   5.805 -0.1344 -0.0124 -0.0724
 2100W        W17231   0.915   5.366   0.001  0.0555 -0.1758  0.1021
 2101W        W17232   9.125  12.948   1.521 -0.1291 -0.3997 -0.2758
 2102W        W17233   9.705  12.431  13.811 -0.0852 -0.0048 -0.0318
 2103W        W17234   4.088   4.983  12.378  0.0158  0.0571  0.0723
 2104W        W17235   4.398   1.393   2.055  0.0862  0.2808 -0.0382
 2105W        W17236  15.137   5.285  14.751  0.0650 -0.2439  0.0469
 2106W        W17237  15.693  17.532   6.072 -0.3350  0.0953 -0.0686
 2107W        W17238   5.156   6.613  14.527  0.0941 -0.1088  0.0489
 2108W        W17239   6.080   0.518  15.947 -0.0046  0.0403  0.1873
 2109W        W17240   6.822  13.158   6.388 -0.2638 -0.0484  0.1600
 2110W        W17241   8.248  12.757   2.907  0.0749  0.0612  0.0066
 2111W        W17242   7.093   0.133  12.187  0.2308 -0.0895  0.2855
 2112W        W17243  17.144   6.241  16.390 -0.0034 -0.2018 -0.0368
 2113W        W17244  14.681   8.480  12.894  0.2119  0.1924 -0.1126
 2114W        W17245  14.720   2.294   3.815  0.2212 -0.0102 -0.0936
 2115W        W17246  16.281   0.981  10.346  0.0444  0.2882  0.1614
 2116W        W17247   9.523   0.020   2.901 -0.2130  0.3803  0.1701
 2117W        W17248  17.382   7.482  14.241 -0.1004 -0.0060 -0.0694
 2118W        W17249   4.296   1.001   1.677  0.0890 -0.0398  0.1632
 2119W        W17250  16.055   0.072   0.923  0.0956 -0.2910  0.1042
 2120W        W17251   7.180  10.578   4.779  0.0370 -0.3547  0.1580
 2121W        W17252  12.442   9.674  16.409  0.2890  0.1813 -0.3209
 2122W        W17253   1.735  12.797  11.974 -0.0164  0.0619 -0.2114
 2123W        W17254  17.197   1.237   4.068  0.0695  0.2285  0.0920
 2124W        W17255   8.299  13.726  16.570  0.1702  0.0530  0.0626
 2125W        W17256   3.532  12.622   5.067  0.5101 -0.0028 -0.0411
 2126W        W17257   6.913  17.308   2.252  0.0342  0.1777 -0.1361
 2127W        W17258   5.969  13.787  10.337  0.2369 -0.0336 -0.0567
 2128W        W17259  14.460  13.355   4.261  0.0158  0.3936  0.2385
 2129W        W17260  11.460  17.253  10.624  0.0032  0.2596 -0.2561
 2130W        W17261  16.383   5.353   2.885  0.1031 -0.0413 -0.0395
 2131W        W17262   4.856  11.529   5.023  0.1690 -0.1292  0.3262
 2132W        W17263   2.788   5.276   3.302 -0.1738 -0.0724 -0.0915
 2133W        W17264  16.222  12.168   4.471 -0.0565 -0.2520 -0.0216
 2134W        W17265  11.684  14.605  14.743  0.0439 -0.1313 -0.0577
 2135W        W17266  11.458   7.467  16.761 -0.0915  0.4304 -0.0992
 2136W        W17267   0.242   7.851  11.381  0.1873  0.2937  0.1784
 2137W        W17268  11.618  11.003  13.730  0.0609 -0.0199 -0.0332
 2138W        W17269   9.860   1.341   5.641  0.1294  0.1743  0.1399
 2139W        W17270  13.423   2.060   1.917  0.1009 -0.0085 -0.0311
 2140W        W17271   5.987  13.405   6.237  0.0318 -0.3694 -0.0765
 2141W        W17272   2.032   4.059   1.671 -0.2196 -0.2606 -0.0658
 2142W        W17273   1.444  17.866   4.398 -0.1274 -0.1980  0.0624
 2143W        W17274  11.102  17.153  14.284  0.1815  0.0458 -0.1960
 2144W        W17275  15.988   5.760   4.173  0.0150 -0.3537 -0.1618
 2145W        W17276   7.762  16.854   1.080  0.1136  0.1591  0.2039
 2146W        W17277  14.761  14.194   0.788 -0.2611 -0.1627 -0.0283
 2147W        W17278   8.686  12.714   0.825 -0.3052 -0.2434  0.3241
 2148W        W17279   9.598  17.091  13.575 -0.0987 -0.2448 -0.1388
 2149W        W17280   7.928  16.915  12.393 -0.0246 -0.0223  0.0416
 2150W        W17281  10.634   1.529   4.431  0.3221  0.2041 -0.2028
 2151W        W17282   3.296   0.403  15.807  0.2650  0.2611 -0.1986
 2152W        W17283  14.215  15.556   0.816 -0.1310  0.1678 -0.0553
 2153W        W17284   2.533   1.257   3.549 -0.0040  0.0028  0.1217
 2154W        W17285   0.511   0.647   5.124  0.0254 -0.4909  0.2147
 2155W        W17286   3.999  16.735  14.703 -0.1303  0.0164  0.0486
 2156W        W17287   8.102  14.601  12.430  0.1618 -0.4261 -0.0606
 2157W        W17288   3.857   5.420   0.447 -0.1984  0.2670 -0.0553
 2158W        W17289  15.091  12.351   5.750 -0.0395 -0.4089 -0.0623
 2159W        W17290   5.906  12.303   1.265  0.1469  0.3208  0.1620
 2160W        W17291   0.267   9.005  12.947  0.0362 -0.1526  0.5735
 2161W        W17292  16.517  13.090  13.919 -0.1238  0.1247  0.0775
 2162W        W17293  17.226  12.728  13.955 -0.2524 -0.2381 -0.2287
 2163W        W17294   0.841  11.335   5.362 -0.0872  0.0237 -0.0570
 2164W        W17295  12.049  10.107  13.491 -0.0414  0.0496  0.0255
 2165W        W17296   5.675  10.181  13.492 -0.0823  0.4117  0.0426
 2166W        W17297   7.436  16.183   1.898  0.4306  0.1930  0.0440
 2167W        W17298   4.502  16.632  13.048 -0.1074  0.0257  0.0065
 2168W        W17299   0.996   0.522   2.675  0.0717  0.3886  0.1173
 2169W        W17300  13.256  14.570   2.543  0.3098 -0.0700  0.0033
 2170W        W17301   4.917   9.541   1.240  0.2169  0.0335 -0.1044
 2171W        W17302  17.620   6.547  11.253  0.0246  0.0750 -0.0043
 2172W        W17303   3.227   4.681   1.666  0.1712 -0.1881 -0.0850
 2173W        W17304  10.976   3.106  14.881  0.3129  0.1910  0.0403
 2174W        W17305  13.030   7.601  16.161  0.0485 -0.0529  0.4279
 2175W        W17306   1.223   5.315   3.955  0.4216  0.1442  0.0723
 2176W        W17307   4.968   7.228  13.057  0.0826  0.3527  0.0380
 2177W        W17308  12.873   9.123   4.877  0.1108  0.2076 -0.1773
 2178W        W17309  14.722   0.795   6.545  0.2167  0.0346  0.1112
 2179W        W17310   5.679   6.435  16.114 -0.2073  0.1250  0.0157
 2180W        W17311  15.987   7.700   0.666  0.2805 -0.2464 -0.0416
 2181W        W17312   3.244   5.283   0.497  0.0780 -0.1276 -0.1651
 2182W        W17313   8.552   5.318  12.861  0.2174  0.1193 -0.1563
 2183W        W17314   8.310   5.838  13.362  0.0870  0.0800  0.0851
 2184W        W17315  13.043   2.006   4.874  0.2456  0.0318 -0.0980
 2185W        W17316   5.776  10.373   5.158  0.4487  0.2222  0.2369
 2186W        W17317   7.168  17.136  11.715 -0.1571  0.0562  0.4410
 2187W        W17318  16.176   6.822  13.970  0.1700  0.1761 -0.1458
 2188W        W17319  16.362  17.159   3.040  0.0130 -0.3955  0.0897
 2189W        W17320   5.175   0.809   5.457  0.0872  0.0939  0.1559
 2190W        W17321  11.486  12.299  15.149  0.1043  0.2334 -0.0272
 2191W        W17322  10.807   1.703   2.162  0.0106 -0.0480 -0.1317
 2192W        W17323  17.231  12.126   3.636 -0.2900  0.2121 -0.0855
 2193W        W17324   2.132  12.690   0.875  0.0474  0.3169  0.0401
 2194W        W17325   2.142   6.449   2.727  0.0740 -0.2318 -0.0605
 2195W        W17326  13.909   6.915   4.181 -0.1391  0.2002  0.1961
 2196W        W17327  16.920  12.537   2.253  0.2414 -0.4818  0.0507
 2197W        W17328  17.710  11.628   1.130  0.1541  0.1906  0.2074
 2198W        W17329  17.574   4.732  15.969  0.0620  0.0883 -0.0716
 2199W        W17330  16.471  15.812   2.355  0.0254  0.3057  0.1058
 2200W        W17331   1.437   5.754  12.900  0.0238  0.1618  0.2160
 2201W        W17332   9.842   9.308   6.476  0.0681 -0.2635 -0.0698
 2202W        W17333   1.240   6.300   1.606 -0.1641 -0.0175  0.1998
 2203W        W17334   3.629   8.744   2.970 -0.2105 -0.0869  0.0207
 2204W        W17335   7.010  10.599  13.433  0.1807  0.0226 -0.0699
 2205W        W17336  11.429   5.164   0.985  0.1345  0.1327 -0.3697
 2206W        W17337  12.854   7.898  14.087 -0.1877 -0.2654  0.1095
 2207W        W17338  11.926   9.424  11.674  0.0678  0.1332  0.0982
 2208W        W17339   7.857   8.280  15.225 -0.0880 -0.2205  0.1504
 2209W        W17340   2.533  16.333   5.593  0.0151 -0.2452 -0.4566
 2210W        W17341  12.300   7.071   4.004  0.0412 -0.1406  0.2296
 2211W        W17342  11.168  15.290   6.037 -0.1444  0.1352  0.1113
 2212W        W17343   7.396  12.945   5.641 -0.1512  0.2645 -0.0146
 2213W        W17344   4.021   7.303  14.378 -0.0674 -0.1055  0.0382
 2214W        W17345   5.141  17.595   4.832  0.2327 -0.0522  0.0460
 2215W        W17346   2.235  15.035  12.047  0.0699 -0.2125 -0.1222
 2216W        W17347   8.078  11.414  12.160  0.1992  0.0000 -0.3027
 2217W        W17348   2.642   3.917  14.626  0.1876 -0.2897 -0.2148
 2218W        W17349  15.346  11.242   2.944  0.3254 -0.0497 -0.0691
 2219W        W17350   0.158  13.432  15.249  0.1288 -0.0542 -0.2845
 2220W        W17351  15.805  16.896   1.755  0.0903  0.0364  0.0244
 2221W        W17352  11.568   2.992  11.538 -0.3138  0.0083  0.3465
 2222W        W17353   5.673  13.317   1.143 -0.0372 -0.1661  0.2332
 2223W        W17354  12.844   8.671  13.403 -0.0141  0.3517 -0.4964
 2224W        W17355   5.432   2.797   2.583 -0.4606  0.1609  0.0889
 2225W        W17356  10.307   2.809  14.257  0.1219  0.2418  0.2746
 2226W        W17357   3.944   8.333  11.372 -0.3131  0.1634 -0.3354
 2227W        W17358   0.686  17.032   0.976 -0.1331 -0.0098 -0.0056
 2228W        W17359  15.899   3.918   1.293  0.0208  0.2319 -0.2036
 2229W        W17360  14.706  10.915   5.182 -0.1905  0.2693 -0.1557
 2230W        W17361   6.873  14.923  12.372 -0.0173 -0.1878  0.1484
 2231W        W17362   2.526   6.182   2.966 -0.1027 -0.0160 -0.1627
 2232W        W17363  15.579   6.978   4.713 -0.1026  0.0752 -0.1815
 2233W        W17364   6.109  14.466  10.771 -0.1395  0.3804 -0.2632
 2234W        W17365   6.412   4.547   4.918  0.3495  0.2523 -0.2319
 2235W        W17366  15.068  15.646  14.173  0.1199 -0.1744 -0.0932
 2236W        W17367  17.574   3.662  12.331  0.1390 -0.1533  0.1123
 2237W        W17368   6.418  12.550  14.127 -0.0339 -0.0228 -0.0644
 2238W        W17369   0.174  11.239  16.514  0.0845  0.2205  0.0788
 2239W        W17370  12.560  10.914  16.131 -0.0900  0.0845 -0.0003
 2240W        W17371  16.230  12.933  13.483 -0.0434 -0.0222  0.1045
 2241W        W17372   3.715  16.511  16.644  0.0022  0.1585  0.1841
 2242W        W17373   6.234   1.682  14.473 -0.0727  0.1143 -0.2481
 2243W        W17374  12.913  17.465  11.309  0.1113 -0.3185  0.0685
 2244W        W17375   9.487   0.821   3.333 -0.0714 -0.2745 -0.3340
 2245W        W17376  14.618   1.270  16.645 -0.1714  0.0510 -0.0758
 2246W        W17377  13.185   4.774   3.786 -0.0126 -0.0197  0.0054
 2247W        W17378   3.646   2.187  14.493 -0.1589  0.3105 -0.0353
 2248W        W17379  12.544   2.666   1.076  0.0117  0.2223  0.1330
 2249W        W17380   2.980   9.207   4.697  0.1904 -0.1210 -0.4812
 2250W        W17381  11.682   2.758   2.811  0.0215 -0.1877  0.1153
 2251W        W17382   2.838  16.724  11.453 -0.0071  0.2460 -0.0605
 2252W        W17383   7.474   1.457   0.999 -0.2427  0.1556  0.2172
 2253W        W17384   2.782   8.890   4.104  0.0685  0.0127  0.1590
 2254W        W17385  14.429   3.582   5.076  0.2415 -0.1726  0.2532
 2255W        W17386  11.555  16.918  14.088 -0.3161 -0.0063 -0.1168
 2256W        W17387  10.764  10.037  13.753 -0.0292  0.3940  0.1150
 2257W        W17388   6.525   7.112   4.505 -0.0642  0.0127 -0.1047
 2258W        W17389  14.574  14.484   4.360 -0.2976 -0.1151  0.0233
 2259W        W17390  12.819  14.705  13.051 -0.2423  0.1243  0.1706
 2260W        W17391  10.477   5.786   3.716 -0.3040  0.2597 -0.0483
 2261W        W17392   3.893  12.620   3.166  0.1095 -0.0166  0.0296
 2262W        W17393   8.192   3.061  13.574 -0.2394  0.0191  0.0641
 2263W        W17394  15.662   5.211   6.032 -0.2525 -0.0135  0.1953
 2264W        W17395  12.933  10.553   6.587 -0.2704 -0.1085 -0.0386
 2265W        W17396   6.476   2.950   1.594  0.4681 -0.2553 -0.4223
 2266W        W17397  17.459  15.882  14.382  0.0651 -0.0334  0.2352
 2267W        W17398   9.695  15.597   0.205 -0.1650  0.0795  0.1558
 2268W        W17399  11.424   2.135  13.590  0.1910 -0.1985 -0.0533
 2269W        W17400  15.483   4.477   4.110  0.4745  0.2311 -0.0387
 2270W        W17401   3.093  12.004  15.781  0.1387  0.2977  0.2601
 2271W        W17402  11.863  11.956   0.228 -0.0183 -0.0584 -0.0079
 2272W        W17403   9.518  16.769   1.510  0.1390 -0.1449  0.0801
 2273W        W17404  10.398   8.392  15.273 -0.1262 -0.2811  0.0717
 2274W        W17405   5.444   2.633   1.202  0.1523  0.1022 -0.1883
 2275W        W17406   6.732   9.641   1.082  0.0810  0.0285  0.1189
 2276W        W17407   9.390  11.628   1.048  0.2288  0.0165  0.0409
 2277W        W17408  17.798   4.976   4.682 -0.0200 -0.0133  0.0831
 2278W        W17409   6.388  11.398   3.393  0.1211  0.1997  0.1704
 2279W        W17410   7.325  10.926   5.418 -0.0859 -0.2807 -0.0523
 2280W        W17411   4.044  15.199  16.183 -0.1618  0.2527  0.1761
 2281W        W17412   6.767  11.888   0.403  0.0964 -0.0010 -0.0739
 2282W        W17413   8.744   8.531  13.652 -0.0383 -0.0823  0.1477
 2283W        W17414  17.207   2.961   5.357  0.3462  0.1567  0.0341
 2284W        W17415   5.805   2.346  15.172  0.1469  0.3951  0.0999
 2285W        W17416   8.390  14.715   3.335 -0.0583  0.0790  0.0675
 2286W        W17417  17.462   5.320  12.350  0.1151 -0.0438  0.1063
 2287W        W17418   3.543   2.199  13.207 -0.0950 -0.0529  0.2992
 2288W        W17419  16.325   7.258  16.301 -0.2774 -0.4488 -0.1446
 2289W        W17420   7.049  14.319  13.640 -0.0315 -0.0438 -0.3277
 2290W        W17421  11.385  15.881  15.561  0.0644  0.0069 -0.2185
 2291W        W17422   3.024   0.305  11.956  0.1949 -0.1545 -0.1031
 2292W        W17423   9.348  14.588  11.518  0.2218 -0.1236  0.0559
 2293W        W17424  15.313  11.210  12.381  0.0115 -0.1483  0.0291
 2294W        W17425   4.697   1.461   5.007 -0.1750  0.2243 -0.1220
 2295W        W17426   2.862   3.936   4.234 -0.3140  0.0107 -0.0878
 2296W        W17427  16.028   4.830   2.456  0.1480  0.1780  0.2049
 2297W        W17428   5.992  12.498   2.587  0.1644 -0.1944 -0.3241
 2298W        W17429   6.604  16.459  11.425 -0.0759 -0.2506  0.1314
 2299W        W17430  14.708  13.622   6.269  0.1323 -0.1030 -0.1867
 2300W        W17431   6.624  11.738  15.605 -0.1320 -0.3157  0.2418
 2301W        W17432  12.435   9.186   1.611 -0.1121 -0.0802 -0.0450
 2302W        W17433  13.529   4.377  16.508 -0.1057  0.1164 -0.0546
 2303W        W17434   1.262   3.877  14.659 -0.0304  0.2603 -0.1661
 2304W        W17435   3.838   6.372  13.024  0.1484  0.1071 -0.2218
 2305W        W17436  13.152  12.602   1.745 -0.2991 -0.0195  0.1856
 2306W        W17437   3.527  12.381  14.452  0.0429 -0.1434 -0.2748
 2307W        W17438   8.875   2.105  15.091  0.0460 -0.1658 -0.0198
 2308W        W17439  11.125  14.733  12.671  0.1656  0.0705 -0.0655
 2309W        W17440  12.927   7.407   5.523 -0.2790 -0.0742 -0.0356
 2310W        W17441   1.752   4.719   1.903  0.0788 -0.1821  0.0010
 2311W        W17442  13.167   7.192  12.123 -0.1153  0.0503 -0.0124
 2312W        W17443  17.668  10.873   3.377 -0.0391 -0.1904  0.2432
 2313W        W17444   6.147  16.124  13.253 -0.3966  0.1940  0.2767
 2314W        W17445   2.838   8.969   3.214  0.0376 -0.2848  0.0278
 2315W        W17446   0.735   7.301  12.443  0.2954 -0.1653 -0.2808
 2316W        W17447   9.491  12.112  11.567  0.1126 -0.0814  0.1920
 2317W        W17448  17.491   2.296   0.283  0.0946  0.1434  0.2712
 2318W        W17449   2.896  13.291   1.922 -0.0783 -0.3331  0.2107
 2319W        W17450  13.721   6.070   3.773 -0.0143 -0.0585 -0.4687
 2320W        W17451  14.732  14.145  11.849  0.0065 -0.1045 -0.1027
 2321W        W17452   4.673   7.988   2.785 -0.0236 -0.2283 -0.1049
 2322W        W17453   7.919   1.914   4.534  0.3827 -0.0451  0.0407
 2323W        W17454   7.793   8.596   2.768 -0.1860 -0.0210  0.0038
 2324W        W17455   1.195   6.998  13.007  0.1133 -0.2147  0.0373
 2325W        W17456  12.850   2.676  15.131  0.4200  0.2494  0.1807
 2326W        W17457   8.210   2.213   0.453 -0.1390  0.1627  0.0125
 2327W        W17458   1.229  13.929   2.573 -0.4377 -0.0536  0.1045
 2328W        W17459   4.515   6.216  13.647  0.0712 -0.0059 -0.0839
 2329W        W17460   5.491  17.261  13.619 -0.1139 -0.1107 -0.1621
 2330W        W17461   2.463  10.693   2.781  0.2171 -0.1968 -0.0659
 2331W        W17462   9.688  16.416   5.795 -0.0063  0.2121 -0.0642
 2332W        W17463   5.733  13.565  12.899  0.2034 -0.1219 -0.1344
 2333W        W17464  10.728  16.767   2.575 -0.1984 -0.1316 -0.2583
 2334W        W17465  16.014  16.153  12.682 -0.3613  0.0448  0.1123
 2335W        W17466  12.402   2.681  15.952  0.1353 -0.0175 -0.3891
 2336W        W17467   0.645  16.023   3.529  0.0841 -0.1038 -0.2817
 2337W        W17468   8.420  13.908   5.210 -0.1015 -0.2929  0.1483
 2338W        W17469  15.998  10.275   5.984 -0.0669  0.0151  0.0780
 2339W        W17470   1.946   3.502   0.830  0.2170 -0.2081 -0.3387
 2340W        W17471  11.725  11.693  10.252  0.1449 -0.3045  0.0482
 2341W        W17472   9.600   3.678   4.797 -0.0741 -0.2482  0.3018
 2342W        W17473   3.115  17.270  16.775 -0.0921 -0.0720  0.1395
 2343W        W17474  17.291  16.454   0.571  0.1872 -0.3356  0.3249
 2344W        W17475   6.755   1.363  14.436  0.1419 -0.0738 -0.1235
 2345W        W17476   3.078  12.224   3.217  0.1706  0.2700  0.0673
 2346W        W17477  15.156   1.499   2.671  0.2125 -0.2396 -0.3147
 2347W        W17478   9.105   4.449   2.194  0.1828  0.1143  0.1892
 2348W        W17479   5.179  16.638   3.988 -0.0402  0.1419  0.0347
 2349W        W17480  10.057   7.609   0.535 -0.1040  0.0031  0.3311
 2350W        W17481   7.850   6.137   1.975 -0.0269  0.0053 -0.2898
 2351W        W17482   7.619   8.446   5.467  0.1711  0.0567  0.0011
 2352W        W17483  11.753  11.669  14.387 -0.0491  0.5187 -0.0777
 2353W        W17484  14.031  14.895   2.701 -0.0071 -0.0570  0.0794
 2354W        W17485   5.004   1.374  15.471  0.4153  0.1111 -0.1294
 2355W        W17486   4.133   9.760   6.360  0.0030  0.1232 -0.0588
 2356W        W17487   5.012   4.525   4.420  0.1598 -0.1433  0.0574
 2357W        W17488  14.047   6.790  15.906  0.2078  0.1646  0.0678
 2358W        W17489   4.682  16.383   5.132  0.1044  0.0184  0.2025
 2359W        W17490  13.077   1.495   1.152  0.1305  0.0801 -0.1294
 2360W        W17491  10.951   0.460  16.593 -0.0212 -0.2762 -0.1168
 2361W        W17492  11.339  10.457  16.504 -0.2815  0.3189  0.0305
 2362W        W17493  16.342   1.452  12.347  0.2177  0.0698  0.1615
 2363W        W17494  11.347  10.319  12.924  0.0788 -0.0931 -0.2851
 2364W        W17495   0.781  14.430  15.567  0.0186  0.0974 -0.0831
 2365W        W17496   4.948   7.683   2.449 -0.0522 -0.3512 -0.0365
 2366W        W17497   4.889  15.113   3.795 -0.6774  0.0447  0.0856
 2367W        W17498  17.492  10.369  11.766 -0.1414  0.1269  0.2012
 2368W        W17499  16.852   7.580  13.633 -0.2895 -0.1250 -0.1882
 2369W        W17500   3.760   5.924  12.722  0.0686  0.2808  0.1343
 2370W        W17501  10.696  16.191   3.558 -0.0773  0.2020 -0.1140
 2371W        W17502   5.435   5.918  16.749 -0.1917 -0.0513  0.0376
 2372W        W17503  14.653  17.009  15.870  0.0715 -0.0900  0.1277
 2373W        W17504  17.769   8.322  14.180 -0.0380 -0.2641  0.0202
 2374W        W17505  12.283  15.810  11.381 -0.1633 -0.0653 -0.1181
 2375W        W17506   5.983   3.705  14.605  0.3282  0.1784 -0.0051
 2376W        W17507   0.149   3.895  11.517 -0.2540  0.1664  0.3237
 2377W        W17508  14.390   9.335   3.291  0.3993 -0.0250 -0.1592
 2378W        W17509  11.365  12.827   1.838 -0.0419  0.0406  0.0710
 2379W        W17510  10.347   0.622   4.058 -0.1350  0.1933 -0.2181
 2380W        W17511  10.702  13.410  15.888  0.2483  0.3761 -0.0713
 2381W        W17512   6.048  15.130   3.939 -0.1816 -0.0007 -0.3198
 2382W        W17513  10.330   5.994   2.974  0.0007 -0.1088  0.1085
 2383W        W17514  11.469   8.302   1.065  0.0812  0.0070  0.0206
 2384W        W17515   4.858  15.362   4.561  0.5118  0.0307 -0.1752
 2385W        W17516  17.113  16.932   5.601 -0.0214 -0.0489 -0.0189
 2386W        W17517   8.901   8.703   3.422  0.0177  0.1257 -0.1534
 2387W        W17518   1.378   5.343   1.311  0.0020 -0.2586 -0.3622
 2388W        W17519  12.525   7.543   2.505 -0.1529 -0.2089 -0.2698
 2389W        W17520   8.709   7.396  13.041 -0.0987 -0.0918  0.0380
 2390W        W17521   0.485   5.553   0.201  0.0628  0.0262 -0.1554
 2391W        W17522  14.241  12.849  15.973 -0.2865 -0.0621 -0.0438
 2392W        W17523  17.421   0.730   5.883  0.2041  0.1929  0.1935
 2393W        W17524  10.593  11.082  10.608 -0.1341 -0.1271 -0.2134
 2394W        W17525  12.386   5.658  13.800 -0.0683 -0.1099  0.0453
 2395W        W17526   5.608   8.833  13.194  0.3098 -0.1635 -0.2616
 2396W        W17527  15.235  14.284   3.506 -0.0583  0.2662  0.2209
 2397W        W17528   9.192   3.728  11.943 -0.1074  0.2350 -0.2218
 2398W        W17529   4.044   6.740   5.651 -0.3120 -0.0856  0.2530
 2399W        W17530  10.131  15.868  15.699 -0.3140  0.1336  0.2443
 2400W        W17531   4.440   4.527  11.946 -0.1695  0.0647 -0.1189
 2401W        W17532   9.328  10.156  16.344 -0.0847  0.1467 -0.1865
 2402W        W17533  13.773   4.831  16.570 -0.0297 -0.0886  0.0922
 2403W        W17534   5.627   1.805   6.005  0.2166 -0.1060 -0.1797
 2404W        W17535   4.991   2.418   3.763 -0.0514 -0.0350  0.0906
 2405W        W17536   5.582   7.290   3.490  0.1446  0.2150 -0.1615
 2406W        W17537   6.424   7.814  14.598 -0.2010  0.1942 -0.1141
 2407W        W17538  11.114   3.101   5.093 -0.1015 -0.0730  0.3875
 2408W        W17539   6.662  16.236  12.457  0.1783 -0.0247 -0.3586
 2409W        W17540   1.970   7.977  14.674 -0.4174  0.3870 -0.0335
 2410W        W17541  13.665   4.468  10.159 -0.0995 -0.2114  0.0184
 2411W        W17542   6.886  12.818  12.143  0.0973  0.0161  0.1208
 2412W        W17543   6.508  10.727  16.576 -0.0323 -0.1195  0.2092
 2413W        W17544  12.508   9.549  15.521 -0.3938  0.0189 -0.0264
 2414W        W17545   9.339   1.707  16.135 -0.0477 -0.2009  0.0723
 2415W        W17546  14.324  16.826  11.306 -0.1482 -0.0075  0.0355
 2416W        W17547   6.863   2.941   3.148 -0.1497 -0.1832 -0.2297
 2417W        W17548   4.884   7.913  12.301 -0.0220 -0.0397 -0.0606
 2418W        W17549  16.852  14.707   4.125 -0.0683 -0.0667  0.1966
 2419W        W17550   8.648  16.911   5.779 -0.2276 -0.0991 -0.4419
 2420W        W17551  16.167   8.224   3.225 -0.2367  0.0132 -0.1469
 2421W        W17552   4.517  12.799   4.262 -0.1010 -0.0714 -0.0528
 2422W        W17553   5.628  13.513   3.384 -0.0247  0.1020  0.0024
 2423W        W17554  14.171   7.561  12.630  0.0659 -0.1172  0.2483
 2424W        W17555   0.353  13.489   0.725  0.0573  0.0418  0.1221
 2425W        W17556  12.518  11.105   4.481  0.1564 -0.0158  0.1966
 2426W        W17557  15.396  14.149   1.455 -0.0098 -0.1101  0.0670
 2427W        W17558   4.228   3.704   1.483  0.4336  0.1004 -0.0076
 2428W        W17559   1.702   2.469  14.128  0.3760  0.3439 -0.3027
 2429W        W17560  17.834  13.504  16.087  0.2289 -0.0522  0.0223
 2430W        W17561   5.075  14.597   1.427  0.1377 -0.0084 -0.0639
 2431W        W17562   4.293  13.706   2.240 -0.0598 -0.2028  0.1757
 2432W        W17563  14.927  15.036   2.932  0.2379 -0.0631  0.1937
 2433W        W17564  15.832  15.464  15.842 -0.1029 -0.0737 -0.3489
 2434W        W17565   7.721   5.851   2.415 -0.1951 -0.0907 -0.2257
 2435W        W17566   0.991  15.262  15.601  0.1458 -0.1059 -0.0331
 2436W        W17567   7.147   7.119  11.141 -0.1740 -0.2676  0.4202
 2437W        W17568   1.450   7.533   3.441 -0.2735  0.1200 -0.0283
 2438W        W17569  10.256  11.564  14.607 -0.2478 -0.2099  0.3280
 2439W        W17570  17.178   5.292   4.245 -0.0287  0.2120  0.2306
 2440W        W17571   5.231  16.127  12.792 -0.0744 -0.2075  0.1459
 2441W        W17572   9.792   5.428  13.328 -0.2073  0.1578 -0.0267
 2442W        W17573   0.124   9.941   0.041  0.0156 -0.1896 -0.1319
 2443W        W17574  11.316  15.749  14.357 -0.2232 -0.1998  0.0255
 2444W        W17575   6.235   2.116  13.841 -0.0465 -0.1033  0.0903
 2445W        W17576  16.320   3.664   1.405 -0.0928 -0.0320 -0.1252
 2446W        W17577  16.368  14.453  14.593  0.0696 -0.0572 -0.0607
 2447W        W17578   3.589   2.720  13.830 -0.2270  0.2753  0.0233
 2448W        W17579   8.139   0.280   1.735  0.1056  0.0386 -0.0987
 2449W        W17580   9.259  10.419  13.178  0.0227 -0.1041  0.0159
 2450W        W17581   5.360  15.464   1.274 -0.1400 -0.1069  0.3468
 2451W        W17582  12.665  14.576   2.937  0.0527 -0.1533 -0.0157
 2452W        W17583   4.136   3.308   3.722 -0.1424 -0.1561 -0.0292
 2453W        W17584   6.987  13.450   2.484 -0.2448  0.0030  0.1420
 2454W        W17585   4.259   2.349  13.703 -0.0645 -0.1738  0.2033
 2455W        W17586   9.130   4.076  11.557 -0.0308  0.0447  0.2454
 2456W        W17587   0.059  16.543  15.669 -0.2112  0.0863 -0.1130
 2457W        W17588   1.320  10.389  16.610 -0.2046  0.1896 -0.0159
 2458W        W17589  13.767   8.941  11.317 -0.0975  0.0289 -0.2189
 2459W        W17590  10.317  17.532  16.446  0.0071  0.0822  0.4664
 2460W        W17591  12.095  12.759   2.726  0.3963  0.1344 -0.1222
 2461W        W17592  16.558   3.357  16.044  0.0503  0.1219 -0.0196
 2462W        W17593  12.296  14.235  14.727  0.1622  0.0603  0.2618
 2463W        W17594   0.233   1.912  13.244 -0.1142  0.3068 -0.2117
 2464W        W17595   1.200   0.654  16.408 -0.0644  0.0407  0.1732
 2465W        W17596  13.037   7.668  12.989 -0.3231  0.2769  0.0178
 2466W        W17597  17.017   4.743   5.389 -0.1131  0.3826  0.2530
 2467W        W17598  16.742   5.102   0.812 -0.2049  0.0985 -0.0939
 2468W        W17599  15.167  10.774   5.052  0.2706 -0.1770 -0.2175
 2469W        W17600   2.900  15.663   5.372  0.2494 -0.2940  0.1320
 2470W        W17601   5.429   5.379   3.304 -0.0637  0.0921 -0.1475
 2471W        W17602   7.395  11.585   4.636  0.0355 -0.1472  0.0331
 2472W        W17603   8.125   3.923  14.245  0.0837  0.2539  0.0040
 2473W        W17604  10.844   7.526   0.115  0.0023  0.1272  0.0755
 2474W        W17605   7.745   2.304  13.107  0.1606 -0.1390  0.0548
 2475W        W17606  14.900   3.636   4.257 -0.2369  0.0863  0.2599
 2476W        W17607   8.000  11.019   2.696 -0.0517 -0.2031  0.0390
 2477W        W17608  15.819  13.736  13.611  0.0437 -0.3232  0.0306
 2478W        W17609   5.541   6.132  13.677 -0.1261 -0.1091  0.3510
 2479W        W17610  10.478  15.269   5.791 -0.1620  0.0038 -0.1517
 2480W        W17611   3.701  15.178   3.653  0.0325 -0.0035 -0.1320
 2481W        W17612   0.041  12.976  16.508  0.1712 -0.2772  0.0890
 2482W        W17613  16.385   4.310  16.705  0.1118 -0.2039 -0.0703
 2483W        W17614   7.114  12.305   3.165  0.0262  0.0532  0.2288
 2484W        W17615  11.249   8.766  13.450 -0.2387 -0.1067  0.0197
 2485W        W17616  14.114   3.631  12.963 -0.0493  0.1132 -0.1849
 2486W        W17617  15.938   7.429   1.702 -0.1441  0.0041 -0.2396
 2487W        W17618  11.671  12.520  16.419 -0.0230  0.0194  0.0959
 2488W        W17619   9.468   0.247  13.983  0.0446 -0.0613  0.2005
 2489W        W17620  14.906  14.111   2.788 -0.2733  0.2322  0.0313
 2490W        W17621   4.793  12.694   5.642 -0.0978  0.0915 -0.1673
 2491W        W17622  13.082  15.325   4.352 -0.0223 -0.0540  0.5315
 2492W        W17623   2.709   7.457  14.196 -0.2050  0.0254 -0.2045
 2493W        W17624  14.707   0.597   1.998 -0.0209  0.0388 -0.0323
 2494W        W17625  10.340  13.853  11.492  0.0627 -0.2700  0.0036
 2495W        W17626  12.723   7.889  13.510  0.1031  0.0541  0.1621
 2496W        W17627   2.606   4.226  15.128 -0.2424  0.0427 -0.0733
 2497W        W17628  10.287   9.138  11.954 -0.1142 -0.0872 -0.1325
 2498W        W17629   3.973   6.914  13.699 -0.0926  0.0515  0.2592
 2499W        W17630   3.731   5.568   4.064  0.0277 -0.1042 -0.1533
 2500W        W17631  16.117   2.965  13.211  0.0946  0.0699 -0.1776
 2501W        W17632   5.270   4.488  12.587  0.1799 -0.0581 -0.0035
 2502W        W17633   8.979   2.630  16.475 -0.1606 -0.0882 -0.0664
 2503W        W17634   1.174  17.858  15.231 -0.0301 -0.0985 -0.0887
 2504W        W17635  17.643  17.097   5.742  0.3092  0.0825  0.0950
 2505W        W17636   0.593   7.881   5.673 -0.1732  0.1543  0.4408
 2506W        W17637  17.557   6.722  15.040  0.2061  0.2537 -0.0681
 2507W        W17638  12.740   5.608  15.643 -0.1650  0.1793  0.1537
 2508W        W17639   7.017   7.475  12.615  0.1904  0.3793 -0.0831
 2509W        W17640   9.068   1.919  10.601  0.0947 -0.0127 -0.1286
 2510W        W17641  13.951  15.831  15.413 -0.1347 -0.3706  0.0579
 2511W        W17642   0.006   7.359   5.415 -0.2930  0.0294 -0.0708
 2512W        W17643   3.363  16.913   4.960  0.0696  0.1351 -0.0886
 2513W        W17644   2.159  10.353  14.663 -0.1456  0.0565 -0.1140
 2514W        W17645  12.783  12.297   6.321  0.1407  0.1793 -0.1606
 2515W        W17646  17.279  15.785   4.629 -0.1747  0.0589 -0.0648
 2516W        W17647   3.030  10.663  15.881  0.0690  0.0722  0.0393
 2517W        W17648   9.267  12.888  16.131 -0.1681 -0.0385  0.0915
 2518W        W17649   2.893  16.630   4.090  0.0182 -0.1097  0.0765
 2519W        W17650   6.805   2.111   0.554  0.0117  0.1042 -0.3835
 2520W        W17651  12.939  14.493  12.517 -0.1544  0.0629 -0.1490
 2521W        W17652   0.631   7.702   0.509  0.0348  0.1044  0.1645
 2522W        W17653  16.840  15.440   3.106  0.1376 -0.0777  0.1907
 2523W        W17654  14.037  11.965  12.492 -0.0826  0.2791 -0.0995
 2524W        W17655  10.113   4.962  12.566 -0.1683 -0.1418  0.0873
 2525W        W17656   8.933   5.002   3.016 -0.1134 -0.3839  0.2069
 2526W        W17657  13.224   5.521  13.698 -0.0562  0.1012 -0.2094
 2527W        W17658  13.374  12.464   5.049  0.3053  0.1571 -0.1760
 2528W        W17659  15.241   3.145  13.684 -0.0824 -0.0456  0.2437
 2529W        W17660  11.081   7.554   1.678  0.1575  0.0535  0.2751
 2530W        W17661  10.267  13.023  14.336  0.2521 -0.0267 -0.1932
 2531W        W17662  11.400   5.502   5.388 -0.0116 -0.1115  0.1579
 2532W        W17663   8.765  13.064  12.297 -0.0278  0.0006  0.1010
 2533W        W17664   5.710   0.494  13.595  0.1018 -0.0644  0.3669
 2534W        W17665   7.323   6.142  11.084  0.0602  0.1270  0.0684
 2535W        W17666  15.447  15.273   3.482  0.2139 -0.3105  0.2643
 2536W        W17667   3.811   8.878  16.064 -0.2611  0.3418 -0.2238
 2537W        W17668   5.626   9.803   4.203 -0.0213 -0.0483 -0.0793
 2538W        W17669   3.001   1.259  13.948  0.0185  0.1623  0.0870
 2539W        W17670  17.749   4.293  13.085 -0.0267  0.2044 -0.2702
 2540W        W17671   6.263  13.536   4.689 -0.0695 -0.0159 -0.1879
 2541W        W17672  15.401  11.093   2.132  0.0150  0.1602  0.2840
 2542W        W17673   6.445  16.484  13.318 -0.2294  0.0792  0.1994
 2543W        W17674   8.202   0.397  14.214  0.0792 -0.0842  0.0254
 2544W        W17675   5.670  11.227  16.601 -0.0087  0.0233 -0.1618
 2545W        W17676   6.101  13.673  14.308 -0.0829 -0.0405 -0.3840
 2546W        W17677  13.236  10.687  13.482  0.0548  0.0539 -0.2697
 2547W        W17678  15.748   8.525  16.103 -0.2242 -0.0273  0.0224
 2548W        W17679   4.759   4.324  11.646  0.0279  0.1898 -0.4412
 2549W        W17680  10.145   8.629  14.873  0.1476 -0.0285 -0.2516
 2550W        W17681  15.988   5.331   4.441 -0.2849  0.0178 -0.0605
 2551W        W17682  17.186   7.883   2.380 -0.0245  0.0965 -0.0507
 2552W        W17683  11.808  15.262   1.197 -0.0509 -0.1614  0.0354
 2553W        W17684  11.278   9.157   2.943  0.0423 -0.1467 -0.1327
 2554W        W17685   7.679   3.060   6.002 -0.1465 -0.0481 -0.1022
 2555W        W17686   7.537   2.263  16.766  0.1703  0.1002 -0.3682
 2556W        W17687   5.768  12.313   3.130  0.0619 -0.1576 -0.2508
 2557W        W17688   7.088   6.868  14.420  0.1652  0.0287 -0.1220
 2558W        W17689   5.193  12.168   4.356 -0.1994 -0.1751  0.0878
 2559W        W17690  15.317   9.841  12.556  0.1227  0.0507  0.0603
 2560W        W17691  15.905   7.016   1.376  0.0807  0.1164  0.1209
 2561W        W17692  10.718   9.382  12.184  0.2105 -0.1891  0.0547
 2562W        W17693  16.808  10.665   0.097  0.0008  0.3430 -0.3327
 2563W        W17694  13.934  16.187   5.037  0.1230 -0.2928 -0.2946
 2564W        W17695   6.539  11.045  13.157  0.1014  0.0119  0.0023
 2565W        W17696   0.003  10.434   3.091  0.0163 -0.1890  0.0441
 2566W        W17697  13.571  12.142  11.429 -0.0869  0.0113 -0.0930
 2567W        W17698  11.968   5.254   3.432 -0.0374 -0.2044 -0.1686
 2568W        W17699  11.552   7.755   2.431  0.0668 -0.3907  0.2466
 2569W        W17700  16.043   7.197  11.061 -0.2490 -0.0351 -0.1355
 2570W        W17701   8.408   2.875  15.812 -0.2482  0.0104 -0.0086
 2571W        W17702  12.424  13.619   4.801  0.3223 -0.1761  0.1515
 2572W        W17703   8.833  12.566   2.478 -0.2697  0.1330  0.1452
 2573W        W17704   0.375   9.046   2.710 -0.0445  0.0112 -0.1655
 2574W        W17705   0.971  10.104   0.047 -0.3060 -0.1831 -0.0770
 2575W        W17706   5.580   9.101  11.050  0.0026  0.1239  0.6098
 2576W        W17707  14.081  13.131  11.272 -0.3393 -0.1460 -0.2158
 2577W        W17708   1.271  14.017   3.072  0.1274  0.0552  0.2228
 2578W        W17709   6.173  11.361   0.010 -0.4320 -0.0313  0.2360
 2579W        W17710  15.230  11.275   5.246  0.1918  0.1555 -0.0329
 2580W        W17711   4.560  15.519   3.111 -0.1139  0.1497 -0.1509
 2581W        W17712  16.952  12.675  12.251  0.0818  0.0615 -0.2486
 2582W        W17713   0.710  16.578  14.916 -0.1484 -0.3976 -0.0355
 2583W        W17714  12.564  12.372   3.770  0.0805  0.2852  0.0190
 2584W        W17715  16.949   5.157   2.518 -0.1353 -0.2423  0.0234
 2585W        W17716  10.400  14.970  14.089  0.0437  0.3284  0.0884
 2586W        W17717  12.969   8.675   4.494  0.1092 -0.1792 -0.0481
 2587W        W17718   1.689  10.223  16.305  0.2422 -0.0192 -0.1712
 2588W        W17719  15.428   4.896  11.790  0.0330  0.4342 -0.3455
 2589W        W17720   6.112  15.455  14.449 -0.1402 -0.0174  0.1081
 2590W        W17721  16.150   5.607  14.857  0.3699 -0.0615  0.0761
 2591W        W17722  14.567   9.070  13.729 -0.1506  0.1119 -0.3295
 2592W        W17723  17.857  11.064   1.156 -0.0247  0.0140  0.0695
 2593W        W17724   7.702   7.060  13.872 -0.2315 -0.1726 -0.0222
 2594W        W17725   7.310  15.678   4.115  0.2977 -0.0276 -0.0561
 2595W        W17726   5.603   1.086  11.826  0.2368  0.1156 -0.0540
 2596W        W17727  17.674  14.219  13.154  0.1912  0.1506  0.2210
 2597W        W17728  10.930  17.230  12.480  0.1222  0.4011  0.0337
 2598W        W17729   9.989  13.938   1.382  0.2753 -0.0462  0.0473
 2599W        W17730  10.839   8.326   1.830 -0.0372 -0.1551  0.1951
 2600W        W17731  13.731   3.275   4.024 -0.3577 -0.2546  0.1200
 2601W        W17732   2.031  11.077   4.797 -0.2664 -0.2434  0.0536
 2602W        W17733   6.212   3.897  11.517 -0.2364 -0.2442  0.4572
 2603W        W17734   9.650   8.725   5.363  0.0940 -0.2494 -0.0046
 2604W        W17735  16.129  11.148  15.819 -0.0992  0.1523 -0.1956
 2605W        W17736   2.149  10.995  10.268 -0.0799 -0.3865  0.2505
 2606W        W17737   9.506  17.695  10.987  0.0214 -0.1157  0.3351
 2607W        W17738   4.546   1.661  12.636 -0.2372  0.0764  0.5228
 2608W        W17739   9.012   2.457  14.644 -0.0053  0.1002 -0.0124
 2609W        W17740  14.856  13.114   0.609 -0.0646  0.2274  0.1243
 2610W        W17741   1.840  15.872  12.000 -0.3117  0.0009 -0.4473
 2611W        W17742   7.542  13.259  12.300 -0.1358 -0.5233  0.1443
 2612W        W17743   0.011  17.500  13.618 -0.3579  0.3001 -0.0331
 2613W        W17744   4.566   8.609  11.878  0.2512 -0.0144  0.3167
 2614W        W17745   3.952  11.227  11.603 -0.0286 -0.1043 -0.1403
 2615W        W17746   3.579   1.156   4.217  0.0926 -0.0235 -0.0425
 2616W        W17747  12.902   8.442  11.621  0.1133 -0.2325 -0.1291
 2617W        W17748  16.994   8.073  10.359 -0.0371  0.2063  0.0011
 2618W        W17749   3.722   2.957   3.088  0.0788 -0.1781  0.3241
 2619W        W17750   9.784   8.869   1.978 -0.1893 -0.1089  0.1329
 2620W        W17751  16.809   8.659  13.118  0.2644 -0.0013  0.0535
 2621W        W17752   2.758  10.133   0.351 -0.0874  0.0477 -0.1923
 2622W        W17753   0.148   0.956   4.827  0.2421  0.0891  0.1708
 2623W        W17754  10.779   4.207  11.458 -0.1735  0.2176 -0.0950
 2624W        W17755   1.869   3.617  16.040  0.1735 -0.0560 -0.2767
 2625W        W17756  15.340   3.739  13.187 -0.2103  0.1964 -0.0900
 2626W        W17757   9.743   8.778  15.655 -0.3321  0.0800 -0.1112
 2627W        W17758   6.189  14.738   2.119 -0.0215 -0.0229 -0.0922
 2628W        W17759  17.580   6.610   2.704 -0.2965  0.1790  0.2816
 2629W        W17760   2.968  12.568   0.893  0.1356 -0.0353  0.1271
 2630W        W17761   1.819  13.458  14.820  0.1968  0.2962  0.1580
 2631W        W17762  10.571  15.485  15.600  0.4988 -0.3536 -0.2754
 2632W        W17763   8.639   5.617  15.543  0.2214 -0.0231  0.2261
 2633W        W17764  16.366  10.653  11.622 -0.2577 -0.0456 -0.2239
 2634W        W17765  17.491   2.336  12.635 -0.1120 -0.0473 -0.2182
 2635W        W17766   9.943  15.456   0.675  0.0141 -0.1602  0.0601
 2636W        W17767  17.867   2.087  11.907 -0.1265 -0.0216  0.1400
 2637W        W17768  10.973  14.454  10.993 -0.0978 -0.0267  0.0726
 2638W        W17769   7.276   4.206  12.350  0.1746  0.1542  0.0659
 2639W        W17770  14.548  13.065   1.342  0.2940 -0.1782 -0.0549
 2640W        W17771  14.548   2.189   0.154  0.1336 -0.0709  0.2402
 2641W        W17772  13.574   3.258   2.889  0.1689  0.0957 -0.4539
 2642W        W17773   0.627  15.637  11.666  0.1752 -0.0314 -0.3079
 2643W        W17774   3.516   3.528  11.879  0.1260  0.2665  0.3226
 2644W        W17775  14.410  12.666   3.435  0.4852  0.0576  0.2144
 2645W        W17776  13.821   8.939  16.493 -0.0407 -0.2418 -0.0866
 2646W        W17777   4.301   6.095  11.636  0.0641  0.0122  0.1220
 2647W        W17778   8.512   6.977   6.077  0.0139  0.0915  0.1602
 2648W        W17779  10.689   8.956  16.141  0.1095 -0.2320  0.0544
 2649W        W17780  17.237  13.369   0.860  0.0731  0.0895 -0.4197
 2650W        W17781  15.354  11.627   1.432  0.0547 -0.0104  0.2066
 2651W        W17782   7.237   0.939  15.267  0.0364 -0.1523 -0.1742
 2652W        W17783   3.964  12.221  12.647 -0.0872 -0.0031 -0.0249
 2653W        W17784  12.522   5.072  14.858  0.1871 -0.2175 -0.0782
 2654W        W17785   8.388   4.884   3.000 -0.0030  0.1215  0.0225
 2655W        W17786  16.568  13.568  14.770 -0.1106  0.0156 -0.0348
 2656W        W17787   3.641   4.044  11.763 -0.1112 -0.2206  0.0856
 2657W        W17788  11.002   0.249   2.615 -0.1116 -0.3185 -0.1817
 2658W        W17789  17.135  11.306   4.163 -0.0559 -0.0636  0.0825
 2659W        W17790   3.277  12.545  15.206 -0.1595 -0.0633  0.0528
 2660W        W17791   9.824  10.572   3.426 -0.0191 -0.0762 -0.0951
 2661W        W17792   0.304  14.202   1.123  0.1167 -0.1418 -0.2921
 2662W        W17793  11.503   4.143   2.459 -0.2488  0.0088 -0.0132
 2663W        W17794   5.113   4.617  15.314  0.0111  0.1274  0.3747
 2664W        W17795  16.040   0.888  13.113 -0.0844  0.0865 -0.1340
 2665W        W17796   5.345  11.541  15.472  0.0348 -0.1134 -0.1215
 2666W        W17797   6.130  12.281  12.660  0.0196 -0.0969 -0.2095
 2667W        W17798  11.637   9.472   3.196 -0.0088  0.2474  0.0638
 2668W        W17799  14.560  16.172   4.439 -0.2683  0.4008  0.1255
 2669W        W17800   5.221   4.600   0.209  0.0736  0.3626  0.2340
 2670W        W17801   1.999  14.314   1.614  0.2143  0.1492  0.2166
 2671W        W17802  14.554  15.241   0.251  0.1028  0.3018 -0.3432
 2672W        W17803   4.289  16.095  11.780  0.3293  0.1448  0.1447
 2673W        W17804   2.099   4.846  11.779  0.1576 -0.1122  0.0832
 2674W        W17805   7.401  14.978   5.920  0.0186 -0.0187  0.1802
 2675W        W17806   8.802   6.051   1.483  0.3111  0.0462 -0.2083
 2676W        W17807   2.289   7.607   4.306  0.2012  0.1709  0.3198
 2677W        W17808   6.328  17.102  15.524 -0.1936 -0.0666 -0.1204
 2678W        W17809   7.612   6.685   3.418  0.0575 -0.2462 -0.2478
 2679W        W17810  13.720  15.430   0.889  0.2346  0.2518  0.1816
 2680W        W17811  14.660  11.601   4.487  0.0594 -0.2444 -0.0795
 2681W        W17812   4.472  14.058   0.066 -0.3283 -0.1545  0.1071
 2682W        W17813  15.260   3.433  14.062  0.0101 -0.0240 -0.1897
 2683W        W17814   9.369  13.386   1.263 -0.0552  0.1041  0.0942
 2684W        W17815   6.424   6.069   3.475 -0.1365  0.0939  0.0096
 2685W        W17816   6.294  16.681  11.742 -0.3410 -0.1246  0.0726
 2686W        W17817  11.366   0.667   9.863  0.1267 -0.0971  0.3163
 2687W        W17818  15.354   6.275  15.088  0.1515  0.1076 -0.1714
 2688W        W17819   7.982   7.041   1.865 -0.3430  0.0558  0.2177
 2689W        W17820  14.587  16.737   1.784 -0.0753  0.0434  0.1357
 2690W        W17821   2.818  10.727  13.106 -0.1616  0.5417  0.4711
 2691W        W17822   8.223  12.124  11.896  0.2233 -0.0777 -0.2313
 2692W        W17823   5.398  10.736   3.826 -0.3366 -0.1065 -0.1767
 2693W        W17824  16.746  10.211  12.323 -0.0299 -0.6206 -0.1752
 2694W        W17825  16.538   6.205   1.031  0.3300  0.0996  0.1743
 2695W        W17826  11.111  10.067   1.955 -0.0023 -0.0638  0.0650
 2696W        W17827   8.595  15.773  12.781  0.0583  0.0277 -0.1165
 2697W        W17828   4.364   8.456   2.483 -0.1373  0.0069  0.0262
 2698W        W17829  10.544  15.981  13.752 -0.2600  0.3535 -0.0157
 2699W        W17830  14.897  17.267   3.865 -0.0330 -0.1182  0.0961
 2700W        W17831   4.571   8.397   0.457 -0.1009  0.0046 -0.2699
 2701W        W17832   8.724  16.368   4.581 -0.0085 -0.1255 -0.0577
 2702W        W17833   7.577   4.017  12.699  0.2302  0.0789 -0.0409
 2703W        W17834   2.923   2.398  13.851 -0.1276  0.1264 -0.0881
 2704W        W17835  12.061  11.476  14.762 -0.1758  0.0840 -0.0687
 2705W        W17836  14.974  12.775  13.959  0.1271 -0.0253 -0.2400
 2706W        W17837  15.717   4.897   4.268 -0.1590  0.1447  0.1789
 2707W        W17838   8.796   4.476   3.126 -0.0647  0.0570 -0.2389
 2708W        W17839  11.389   0.469   2.331 -0.0328 -0.1689  0.0093
 2709W        W17840  14.123   3.818  15.782 -0.2285  0.0826 -0.0834
 2710W        W17841  10.176  15.016   0.467 -0.2503  0.3526 -0.2381
 2711W        W17842   1.062  10.084  12.978  0.3883  0.0313 -0.1188
 2712W        W17843  14.144   0.069  12.053 -0.0843  0.0401 -0.1000
 2713W        W17844   8.833   1.675   2.750  0.1936 -0.0562 -0.1150
 2714W        W17845  17.471  13.772   3.622 -0.0613  0.0827  0.0002
 2715W        W17846   6.839  10.945   4.645  0.0484  0.1061 -0.1036
 2716W        W17847  10.492  10.469  13.864  0.2564 -0.0142 -0.1358
 2717W        W17848  15.527  16.978   0.191 -0.2162  0.1592 -0.0628
 2718W        W17849  13.888   1.101  13.785  0.1196  0.0856  0.1782
 2719W        W17850   2.343  13.626  15.886 -0.2822 -0.4215  0.1224
 2720W        W17851  12.240  10.657   0.121  0.2169 -0.2375  0.0416
 2721W        W17852   1.060  11.949   0.797 -0.1782 -0.2166  0.1029
 2722W        W17853  15.180   4.737   1.733  0.1966 -0.0284 -0.1561
 2723W        W17854  12.672  10.989  10.699 -0.0826 -0.0552 -0.0861
 2724W        W17855   7.688  11.178   1.820 -0.1940  0.2428 -0.1399
 2725W        W17856  12.528   4.981   2.199  0.2187  0.0433 -0.0900
 2726W        W17857   9.041   6.912  15.068 -0.1623 -0.1302  0.0544
 2727W        W17858  12.325  11.394   6.550 -0.1300 -0.0999 -0.0055
 2728W        W17859   7.130   9.326   3.164  0.0554 -0.4517 -0.1438
 2729W        W17860  16.861   2.903  16.219  0.1509  0.2805  0.3616
 2730W        W17861   1.750   1.811  13.603 -0.1889  0.0112 -0.1255
 2731W        W17862   4.749  13.477   4.893 -0.1389  0.0030  0.3556
 2732W        W17863  15.500   9.465  11.797  0.0535  0.0566 -0.3261
 2733W        W17864   7.105   1.006   2.419 -0.0056 -0.3560  0.3030
 2734W        W17865  10.664   7.047  13.288 -0.1050  0.1617  0.0170
 2735W        W17866  16.042  13.613   1.852 -0.2008  0.1706 -0.1410
 2736W        W17867  14.283   1.269   2.973  0.1709  0.0291 -0.1843
 2737W        W17868   0.334  10.265  16.528  0.1052  0.2041  0.0361
 2738W        W17869   4.677  13.931   0.459 -0.0030  0.0209 -0.1192
 2739W        W17870  12.169  11.835   1.956 -0.2103  0.0836  0.2948
 2740W        W17871  10.624  12.529  15.364 -0.1496 -0.0629  0.1593
 2741W        W17872   8.825   3.515  16.599 -0.1878  0.0373  0.2406
 2742W        W17873  12.988  15.176  11.207  0.3890  0.2557 -0.1501
 2743W        W17874   8.469   8.821   4.228  0.1091  0.5511  0.0005
 2744W        W17875  14.835   2.946   2.224 -0.1455  0.0272 -0.1289
 2745W        W17876   4.204  14.411  15.937 -0.2076 -0.1694  0.0447
 2746W        W17877   7.557   9.682   2.000  0.3103  0.2689 -0.2188
 2747W        W17878   6.089   8.702   3.833  0.1390 -0.1910 -0.1349
 2748W        W17879   7.660   6.773  14.267 -0.1834  0.1035  0.0979
 2749W        W17880  12.346   1.089  16.036  0.2813 -0.0920  0.1561
 2750W        W17881  17.468   6.274  13.889  0.1377 -0.2124 -0.3161
 2751W        W17882   0.524   8.089  16.462 -0.0191  0.0362  0.0780
 2752W        W17883   6.547   7.491   4.064 -0.1511 -0.0380  0.3187
 2753W        W17884  13.869  17.072  16.579  0.0280 -0.1254 -0.1392
 2754W        W17885   3.330   4.787  16.501  0.0326 -0.0740 -0.3258
 2755W        W17886   5.830  13.477  16.489 -0.0848 -0.0902 -0.0342
 2756W        W17887   7.302   0.284  14.515 -0.2257  0.2403  0.2186
 2757W        W17888   1.945   0.021   1.283 -0.2391  0.0585 -0.3115
 2758W        W17889   9.558  10.810  12.235  0.2682  0.0137 -0.1324
 2759W        W17890  13.004   7.022  15.449 -0.1840 -0.1813  0.1099
 2760W        W17891   1.235  10.091  14.590 -0.0652  0.1212  0.0231
 2761W        W17892   8.962  16.801   5.420  0.1410  0.0722 -0.0722
 2762W        W17893   1.972   9.621  14.141 -0.2898 -0.1793 -0.0261
 2763W        W17894  13.994   5.270   2.346  0.2090 -0.0337  0.0894
 2764W        W17895  10.970  15.425  11.606  0.1757 -0.0475  0.0610
 2765W        W17896   9.513  16.997   3.531  0.0369  0.0026 -0.2575
 2766W        W17897   5.202   8.273  12.556 -0.0740  0.0102 -0.1175
 2767W        W17898  16.911   4.136  13.148 -0.0820  0.5378 -0.2413
 2768W        W17899  13.283  12.429  16.720  0.1889  0.0536  0.1241
 2769W        W17900  15.338  13.884   4.385 -0.1271 -0.3165  0.0716
 2770W        W17901   5.279  15.216   0.067  0.0764 -0.0800  0.2755
 2771W        W17902  12.193  12.016   4.718  0.2088 -0.0418  0.0455
 2772W        W17903   9.118   8.015   3.874  0.0738  0.0495  0.0766
 2773W        W17904  13.165   1.693  12.775 -0.1211 -0.0314 -0.0250
 2774W        W17905  16.214   1.140  15.091  0.0502  0.2062 -0.1351
 2775W        W17906  11.615  13.534   1.596 -0.0743  0.1279  0.0801
 2776W        W17907   9.049  11.977  13.443  0.1450 -0.1634  0.1118
 2777W        W17908   8.136   5.255   4.136  0.3447  0.0824 -0.0737
 2778W        W17909   0.214   9.851  15.375  0.1532 -0.0916 -0.1133
 2779W        W17910   4.084   3.297  15.354  0.2520 -0.0937  0.4734
 2780W        W17911  15.263   5.358  16.035 -0.2040 -0.2023 -0.2839
 2781W        W17912  16.280   6.035  14.481  0.1232  0.3031  0.2400
 2782W        W17913  16.698   0.711  13.770 -0.1798 -0.0202 -0.0228
 2783W        W17914   2.145  10.862  13.039  0.1972  0.1817 -0.2302
 2784W        W17915   3.565   3.181  14.018 -0.0657 -0.0504 -0.1433
 2785W        W17916  12.031  17.468  13.091  0.1328 -0.0636  0.0452
 2786W        W17917  11.261  11.934  16.428  0.0565  0.1521 -0.0851
 2787W        W17918  17.216  10.825   0.501  0.1239 -0.0652  0.0073
 2788W        W17919   4.176   3.724  11.343 -0.0973 -0.0041 -0.0700
 2789W        W17920   7.653  11.622  11.184 -0.1114 -0.1536  0.0572
 2790W        W17921   5.957   4.110  13.730 -0.0510 -0.0114 -0.1544
 2791W        W17922   1.300  15.874   5.448  0.3797  0.0502 -0.0537
 2792W        W17923  17.875   9.054   5.552 -0.4316  0.2732  0.1076
 2793W        W17924   5.674   2.580   5.644 -0.1961  0.1131 -0.0485
 2794W        W17925  15.145   9.842  11.339  0.0343  0.0530 -0.1409
 2795W        W17926   8.578  10.178   2.409  0.0928  0.0398  0.1082
 2796W        W17927  17.780  12.446  16.182  0.2329 -0.0932  0.0991
 2797W        W17928   0.112   7.492   3.503 -0.0834  0.2489  0.0988
 2798W        W17929   6.292  12.520   3.002  0.1687  0.1430 -0.1117
 2799W        W17930  16.301  11.732  13.267  0.2393 -0.0621  0.1854
 2800W        W17931   7.208   2.966  14.349  0.2666 -0.0873 -0.0511
 2801W        W17932   8.853  16.357   4.042 -0.4084 -0.0034 -0.1018
 2802W        W17933   7.312  12.763   1.315 -0.1849  0.0698 -0.0462
 2803W        W17934  10.162  16.853   0.905  0.4177 -0.2254 -0.0574
 2804W        W17935  10.581   8.448  16.052  0.0189 -0.0720 -0.1735
 2805W        W17936  15.753  10.309   2.685  0.0141  0.1108 -0.2675
 2806W        W17937  10.666   6.348   4.897 -0.0442 -0.0635  0.1871
 2807W        W17938   2.517   7.333  13.544 -0.2430  0.0993  0.1163
 2808W        W17939   3.699   7.249   3.443  0.0043  0.3096 -0.0336
 2809W        W17940   3.474  10.813   2.716 -0.0114 -0.1541 -0.2487
 2810W        W17941  10.746   1.273  11.866  0.4977 -0.0989  0.0339
 2811W        W17942  10.620  12.541  16.424  0.1370 -0.0110  0.4256
 2812W        W17943  11.390   0.779   3.991  0.0535  0.3069 -0.3867
 2813W        W17944   5.137  12.277  14.180 -0.5455 -0.3970  0.4785
 2814W        W17945  15.135  14.021  15.793  0.0616  0.0774 -0.3167
 2815W        W17946  12.068  15.555  13.150 -0.5053  0.1383 -0.1295
 2816W        W17947   8.966  10.458   1.452  0.2804  0.1809  0.0590
 2817W        W17948  11.548  17.296   2.746 -0.1178 -0.0675  0.0421
 2818W        W17949   6.940   8.860  14.192 -0.2131  0.0999 -0.1920
 2819W        W17950  14.536   4.604  11.885 -0.1253  0.0455  0.0386
 2820W        W17951   5.269  12.805  13.389  0.2492  0.0528 -0.0835
 2821W        W17952   7.165   0.203  15.067  0.1632  0.0271  0.3060
 2822W        W17953  14.760   9.737  12.344 -0.2383  0.0129 -0.1557
 2823W        W17954   8.874   0.710   2.728 -0.0038 -0.3447 -0.0218
 2824W        W17955  14.138   7.011   4.688 -0.0547  0.0745 -0.0249
 2825W        W17956   4.986   4.650  15.795 -0.0105 -0.0888  0.2721
 2826W        W17957  17.692   9.810  13.328 -0.2018 -0.0059  0.1067
 2827W        W17958   4.126   8.957   1.739  0.1829 -0.0216  0.0948
 2828W        W17959   6.334  12.557   5.656 -0.1493  0.0410  0.0554
 2829W        W17960  11.321  16.098   1.487  0.0317 -0.2177  0.1981
 2830W        W17961   7.799   4.675  13.996  0.1196  0.1819  0.1424
 2831W        W17962  10.200   0.854  12.237  0.0707  0.5262  0.0504
 2832W        W17963   4.645  13.703   5.318 -0.0105  0.1070  0.2420
 2833W        W17964   7.707   6.961   0.021 -0.2251  0.0140 -0.3411
 2834W        W17965  11.916   0.557  12.131 -0.0398  0.0434  0.0746
 2835W        W17966  16.898  13.017  14.197 -0.0605 -0.2653 -0.1923
 2836W        W17967   5.677   1.841   4.785 -0.1936  0.0242  0.0860
 2837W        W17968   4.078   8.230   2.811  0.3264  0.0674 -0.1350
 2838W        W17969  13.753   4.521   1.183  0.2678  0.2270 -0.1990
 2839W        W17970   0.316   7.209   4.423  0.1664  0.4934  0.0058
 2840W        W17971   4.841  16.315   4.219  0.3580 -0.0825  0.3872
 2841W        W17972   8.049  11.177  15.096 -0.0532  0.0156  0.1843
 2842W        W17973  12.525   4.984   1.671 -0.1645 -0.1946 -0.3263
 2843W        W17974   7.023  14.878   5.605 -0.0018 -0.6348 -0.1279
 2844W        W17975  17.879   4.944  12.405  0.0959 -0.3271 -0.1820
 2845W        W17976   2.989  14.535  12.272 -0.0158 -0.0942  0.0144
 2846W        W17977  15.484   3.911   3.564  0.1405  0.2258 -0.2988
 2847W        W17978   6.172  10.498   0.149  0.1511  0.1165 -0.0132
 2848W        W17979  14.545  15.536   5.176  0.1646 -0.0811  0.0494
 2849W        W17980  11.602   8.960  12.397  0.1374  0.0528 -0.0409
 2850W        W17981  12.665   2.005  12.228  0.0507  0.2240  0.0170
 2851W        W17982   7.872   0.949  14.591  0.1560 -0.3590 -0.1267
 2852W        W17983   1.111  12.431  14.449  0.0527  0.1529 -0.4648
 2853W        W17984  12.044  13.851   4.410 -0.1295 -0.0598  0.2485
 2854W        W17985  16.524   5.078  14.105 -0.3190 -0.1615  0.2464
 2855W        W17986  17.126   6.942   2.562  0.3272  0.0196  0.2083
 2856W        W17987   8.239   6.417  12.600  0.1000  0.0966  0.0286
 2857W        W17988   1.159  16.532  13.965 -0.2330 -0.2141 -0.1704
 2858W        W17989  17.519   3.514   4.990  0.0909  0.0278  0.1522
 2859W        W17990  16.067  15.616   5.257  0.1481 -0.1033  0.1428
 2860W        W17991   7.197  11.298  14.806  0.1771 -0.2447  0.2066
 2861W        W17992  10.875  16.066  13.348  0.0723  0.1152 -0.1511
 2862W        W17993   1.978   1.935  15.366  0.1074 -0.1015 -0.0205
 2863W        W17994  12.594   5.799   2.313  0.0508  0.2091  0.0032
 2864W        W17995   8.002   7.920   4.450  0.0614  0.0142  0.0606
 2865W        W17996  17.864   1.545   2.791 -0.0669  0.1582  0.3243
 2866W        W17997  10.318  16.348   1.800  0.2521 -0.2146 -0.0054
 2867W        W17998   0.854   4.279   1.961  0.0107 -0.2310  0.0015
 2868W        W17999  16.144   9.722   1.740  0.2098  0.0398 -0.1195
 2869W        W18000  17.544   9.229   4.657 -0.2581  0.4389  0.0629
 2870W        W18001   9.953   5.054   3.750 -0.2588 -0.0733 -0.2948
 2871W        W18002  16.596  14.756   0.732 -0.4060 -0.0329  0.1341
 2872W        W18003  13.176  10.665  11.593 -0.0609 -0.0945  0.0986
 2873W        W18004   8.794   5.784  11.014 -0.1853 -0.1085  0.1412
 2874W        W18005   2.613  11.580   5.581 -0.0114  0.1196 -0.0510
 2875W        W18006   4.824  17.099  16.074 -0.0207 -0.1816  0.2008
 2876W        W18007   9.828   3.999  14.747  0.0949  0.3065 -0.2625
 2877W        W18008  13.596  12.329  13.325 -0.1655 -0.1512  0.3215
 2878W        W18009  16.810   2.935   0.899 -0.1563  0.0727 -0.0567
 2879W        W18010   1.742   6.796  15.141 -0.0426 -0.1936 -0.3174
 2880W        W18011   1.252  12.206  12.492 -0.0237  0.3036 -0.3928
 2881W        W18012  10.839   4.031   1.772  0.1179 -0.1603  0.0005
 2882W        W18013   6.425   5.285  12.347  0.3622  0.0304 -0.0793
 2883W        W18014  12.024   0.573   5.115 -0.1464  0.1975 -0.0810
 2884W        W18015   6.735   0.122  15.405  0.0571  0.0497  0.1991
 2885W        W18016   0.323  12.740   1.552  0.0165 -0.1274 -0.1413
 2886W        W18017   8.883  12.028  14.402  0.0541 -0.0505 -0.1543
 2887W        W18018   6.128  14.854   1.168 -0.0102  0.1393 -0.0830
 2888W        W18019   5.275  16.570  12.472 -0.0076 -0.2573  0.0264
 2889W        W18020   9.314   1.924   2.537  0.3310  0.0820 -0.3848
 2890W        W18021  13.397   8.675  11.227  0.0247 -0.1058  0.1251
 2891W        W18022   7.691  13.053   1.406  0.1510 -0.0664 -0.0592
 2892W        W18023   2.050   0.588   0.024 -0.0723  0.0774  0.1689
 2893W        W18024   0.613   3.162   0.961  0.0894  0.1324  0.1321
 2894W        W18025  11.933   0.470  13.994  0.1741  0.1801 -0.3820
 2895W        W18026  16.389  13.493  15.634 -0.0463 -0.4574  0.3801
 2896W        W18027  14.615   6.113  15.869 -0.1577 -0.0161  0.1886
 2897W        W18028  14.848   7.106   3.986 -0.0466 -0.1558  0.1728
 2898W        W18029   0.204   6.384   0.585  0.3471  0.1223 -0.0222
 2899W        W18030  17.608  13.620  11.571  0.1579 -0.3702 -0.4414
 2900W        W18031  16.376   9.950   0.971  0.1306  0.1601 -0.0480
 2901W        W18032  12.680  11.238   0.257 -0.1005  0.0589  0.0379
 2902W        W18033   3.836  13.650  16.672  0.0792  0.2288 -0.1482
 2903W        W18034   4.925   7.627   3.010  0.1250  0.4287 -0.2792
 2904W        W18035  12.228   7.774  11.257 -0.1243 -0.0397 -0.1148
 2905W        W18036  14.127   4.018   4.592  0.2882  0.2619  0.0066
 2906W        W18037  12.276  16.301   5.254 -0.0706  0.1128 -0.1854
 2907W        W18038   7.652  14.937   1.913  0.1112  0.1266  0.2280
 2908W        W18039   0.520   2.266  14.895  0.1297  0.0476  0.0481
 2909W        W18040  14.471  16.035   1.855 -0.0653 -0.0475  0.0247
 2910W        W18041   6.951  14.278   1.106  0.0481  0.1756 -0.0696
 2911W        W18042   8.901   7.380  11.895 -0.0087  0.1580 -0.1876
 2912W        W18043   2.930  10.935   0.779 -0.1922 -0.1714  0.2924
 2913W        W18044   5.284  11.996   3.860  0.1144 -0.0268  0.0524
 2914W        W18045   2.513   9.643   3.329  0.2197 -0.0954  0.3194
 2915W        W18046  11.075  10.539   3.732 -0.0697 -0.2185 -0.2067
 2916W        W18047  11.805   7.635   0.306  0.3322  0.2826  0.0578
 2917W        W18048   1.725   0.915  14.098 -0.1365 -0.2161  0.1329
 2918W        W18049   1.281  16.121  16.198  0.2870  0.0165 -0.0338
 2919W        W18050   8.420   5.597   0.316  0.1152  0.1285 -0.1298
 2920W        W18051  12.454   8.310  15.030  0.1864 -0.1008  0.0892
 2921W        W18052   5.177  12.296   2.513  0.2193 -0.4419  0.1543
 2922W        W18053  14.176   9.239   2.862  0.3445  0.0563  0.1493
 2923W        W18054  14.501  11.842   4.018  0.0185 -0.2473 -0.0153
 2924W        W18055   6.890   0.577   2.201 -0.2725 -0.1873 -0.1011
 2925W        W18056  16.731  15.227  14.162 -0.1487  0.0052 -0.0779
 2926W        W18057  11.762  16.208  13.740 -0.0365  0.1291 -0.2317
 2927W        W18058   0.241   1.704  15.431 -0.0921 -0.0291  0.0491
 2928W        W18059  15.963   6.635  15.013 -0.1880 -0.2183  0.1274
 2929W        W18060   2.147   0.455  12.514 -0.4297  0.1490  0.0150
 2930W        W18061   5.068  11.250   2.546  0.1404 -0.1657 -0.1345
 2931W        W18062   3.945  10.326  14.813  0.1321  0.0739  0.0386
 2932W        W18063  10.951   7.932   5.075 -0.1246  0.2364 -0.1915
 2933W        W18064   6.555   7.675  16.228  0.0882  0.2561 -0.2749
 2934W        W18065   7.868  12.000  14.998 -0.0600 -0.1742  0.1543
 2935W        W18066  17.758   7.385   1.519  0.0654 -0.0719  0.0037
 2936W        W18067  15.130   1.184   1.638 -0.0708 -0.0514  0.0558
 2937W        W18068   7.657   2.080   0.427 -0.0385  0.2070 -0.1932
 2938W        W18069   4.292   3.052   5.506 -0.1577 -0.2645  0.2591
 2939W        W18070   2.040   8.747   5.203 -0.2053  0.2358  0.1285
 2940W        W18071   4.882  15.138   3.256 -0.0297 -0.0794  0.0120
 2941W        W18072   9.450   6.359  16.719 -0.2218 -0.0044  0.1068
 2942W        W18073  10.762  17.162   2.290  0.4429  0.0263  0.0877
 2943W        W18074   1.322   4.349  14.285 -0.0240  0.1239 -0.3696
 2944W        W18075  16.167  11.612  12.100  0.0187  0.1791  0.1893
 2945W        W18076   4.340   9.578   5.717 -0.1562 -0.0523 -0.1968
 2946W        W18077   8.862   6.466   1.214  0.2794  0.1695  0.0525
 2947W        W18078  16.233   4.545   0.808 -0.0027 -0.2349  0.1598
 2948W        W18079   1.262   7.863  12.612  0.1142 -0.2298 -0.0189
 2949W        W18080  11.622  14.142  14.729  0.1865 -0.0778  0.1563
 2950W        W18081  11.972   5.687  12.125 -0.0453 -0.0251  0.1582
 2951W        W18082   1.150  16.685  13.411 -0.2005 -0.1104  0.0516
 2952W        W18083  16.273  14.747  15.321  0.1840  0.2992 -0.3622
 2953W        W18084   7.680  11.566   0.671 -0.2295  0.0060 -0.2632
 2954W        W18085   0.703   1.774  12.191 -0.0648 -0.0746  0.0541
 2955W        W18086  11.696   9.234   4.903  0.1388  0.1416  0.1207
 2956W        W18087  10.221  13.030   1.513 -0.0682  0.1656  0.0275
 2957W        W18088  12.156  15.464  16.472 -0.2332  0.1589  0.0324
 2958W        W18089   7.438   2.386  10.759  0.1302 -0.0614 -0.0406
 2959W        W18090  17.475   2.819  12.396  0.0231  0.1036  0.0612
 2960W        W18091  13.273   6.313   4.774 -0.1075  0.3516 -0.2507
 2961W        W18092   7.623   9.237  13.943  0.1555  0.1141 -0.2531
 2962W        W18093   4.902  11.101   1.421 -0.1522  0.1692 -0.1207
 2963W        W18094  11.945   4.717  12.535 -0.3414  0.1471 -0.0255
 2964W        W18095   9.582  16.483  12.863  0.0272  0.0731 -0.0150
 2965W        W18096   2.794   2.234  15.463  0.1622 -0.2822  0.2351
 2966W        W18097   6.688  13.476   1.137  0.1958  0.2115  0.2325
 2967W        W18098  10.030   0.998   4.034  0.0425 -0.0640  0.3346
 2968W        W18099  10.753  17.808   3.087 -0.1232 -0.0357  0.1159
 2969W        W18100   2.003  12.060   4.583 -0.1487  0.0074  0.1143
 2970W        W18101   7.506   9.022   3.573  0.0734 -0.0279 -0.0808
 2971W        W18102   5.121   3.936   1.124 -0.0501  0.1739  0.2756
 2972W        W18103  15.220   1.464  13.433 -0.1662  0.0529 -0.0326
 2973W        W18104   4.197   5.942  13.859  0.1885 -0.2096  0.1039
 2974W        W18105   0.862   3.132   4.436  0.0212 -0.0208  0.1158
 2975W        W18106  11.511  14.540  11.011  0.0261 -0.1314  0.0616
 2976W        W18107   7.706  16.740  13.414  0.0162 -0.2143 -0.2259
 2977W        W18108  14.798  15.659   1.891  0.1424 -0.0843  0.1460
 2978W        W18109   9.859  15.717   5.046 -0.2712 -0.0154  0.2543
 2979W        W18110  11.925  13.440  14.194  0.0452  0.0804  0.1552
 2980W        W18111   7.096  12.864  14.694 -0.0170  0.0702 -0.0311
 2981W        W18112   3.646   1.833  14.902 -0.3120 -0.2562 -0.0608
 2982W        W18113   7.805  16.142  15.547 -0.0759  0.1071 -0.1043
 2983W        W18114  10.702  15.181  14.475 -0.0375  0.2963 -0.0745
 2984W        W18115  14.100  10.396  16.255 -0.1994 -0.0951  0.0415
 2985W        W18116   2.411  14.164  12.625 -0.1118 -0.1021  0.1592
 2986W        W18117  13.059   3.330  12.513 -0.2070 -0.2754 -0.2827
 2987W        W18118   4.050   1.923  11.825  0.3089 -0.2316  0.1485
 2988W        W18119  15.041  14.165  14.849 -0.1921 -0.2067  0.1322
 2989W        W18120   8.728   2.357   5.017  0.0054  0.0150  0.0225
 2990W        W18121  15.444   7.019  12.727 -0.2675  0.3384  0.0180
 2991W        W18122   4.062   8.738   2.699 -0.0296  0.0681 -0.0173
 2992W        W18123   3.905   3.292  12.196 -0.1327 -0.1943  0.0012
 2993W        W18124   2.892  11.041  15.143 -0.0591 -0.0281 -0.1231
 2994W        W18125   6.643   1.103   5.591 -0.1389 -0.2580  0.3072
 2995W        W18126  12.901  17.105  13.086 -0.1418  0.0052 -0.0734
 2996W        W18127  13.932  16.613   4.655 -0.0924  0.1128 -0.1989
 2997W        W18128   5.996   6.688   2.067  0.1127  0.2285 -0.0822
 2998W        W18129  12.835   5.783  13.647  0.0257 -0.0812  0.1735
 2999W        W18130   2.751   3.253   6.269  0.3890 -0.2215 -0.1212
 3000W        W18131  10.751  12.888  13.650 -0.0769 -0.2379 -0.2299
 3001W        W18132  16.030  14.868   2.242  0.2064 -0.0282 -0.1660
 3002W        W18133   1.153   2.413   5.168  0.2447  0.0010 -0.0329
 3003W        W18134  10.723  12.333  13.835 -0.1254  0.1309  0.0902
 3004W        W18135   0.183   5.095  16.113 -0.0631 -0.0190  0.0582
 3005W        W18136  16.942  11.909   2.052 -0.3192 -0.0488  0.1102
 3006W        W18137   0.338  16.059  13.944 -0.1287 -0.1242  0.2820
 3007W        W18138   6.612   0.181  13.492 -0.0457  0.1187  0.2690
 3008W        W18139  13.398  12.269  12.902 -0.1608  0.1713  0.1232
 3009W        W18140  12.503  12.233   1.908  0.1719 -0.1722 -0.1332
 3010W        W18141  17.879   6.414   0.007  0.1511 -0.1308 -0.1156
 3011W        W18142  10.450   5.957   0.891  0.0797 -0.2515  0.0206
 3012W        W18143   4.627   7.473  11.467  0.2020  0.2342  0.0800
 3013W        W18144  13.195   2.554   1.902 -0.1692  0.0288  0.1912
 3014W        W18145  11.054  15.502  15.763 -0.1315 -0.1523 -0.1656
 3015W        W18146   6.069  17.879  16.594 -0.2073  0.0599 -0.0761
 3016W        W18147   8.922   7.293   1.977 -0.0940 -0.2338 -0.0234
 3017W        W18148   5.681   7.005   4.124 -0.1830 -0.2334 -0.4418
 3018W        W18149  15.198   9.561   1.568  0.0718  0.0967  0.0514
 3019W        W18150  12.249   8.279  15.509 -0.4234  0.2554 -0.1338
 3020W        W18151  15.012   2.805  13.985 -0.1049  0.1649 -0.0434
 3021W        W18152  12.484  10.765   6.515 -0.2792 -0.2787 -0.1726
 3022W        W18153  17.143  12.036  14.295  0.4910  0.1138  0.0563
 3023W        W18154   3.813  17.663  12.270 -0.2234 -0.1848  0.1197
 3024W        W18155   8.457   4.233   2.852 -0.0433  0.1299 -0.4472
 3025W        W18156   6.693   9.352   2.462 -0.2196 -0.0696  0.1159
 3026W        W18157  10.908   1.537  16.600  0.1629 -0.0930  0.0095
 3027W        W18158   6.926   2.275   3.586  0.1965  0.1020 -0.2918
 3028W        W18159  17.389  13.682   4.814  0.1907  0.0093  0.0223
 3029W        W18160   5.036  13.186  11.828 -0.1558  0.0222  0.0865
 3030W        W18161   3.695   0.183  15.605 -0.0996  0.0907 -0.1044
 3031W        W18162   5.129  15.695  12.324 -0.1823 -0.3057 -0.1410
 3032W        W18163   8.753  17.104   4.993  0.0347 -0.0340 -0.4014
 3033W        W18164   3.863  10.465   4.025 -0.0708  0.1076 -0.2058
 3034W        W18165  13.541   8.820   0.169 -0.2798  0.2692  0.2603
 3035W        W18166   1.323   6.614   4.179  0.1912  0.1094  0.2359
 3036W        W18167   1.678   0.103  15.196  0.0599  0.1191  0.0244
 3037W        W18168  10.195   3.096  14.857  0.1756  0.2333 -0.4408
 3038W        W18169   1.118   6.584  12.820 -0.1207  0.4616  0.0997
 3039W        W18170  13.702   3.885  15.500 -0.0924 -0.1359 -0.2647
 3040W        W18171   3.860  17.861  12.989 -0.2890 -0.2470  0.1299
 3041W        W18172  10.246  17.806   1.309  0.1873 -0.1157  0.0750
 3042W        W18173  15.758  14.531   1.159  0.1639 -0.1168 -0.0113
 3043W        W18174   4.913   4.939   3.583 -0.2068  0.1941  0.1209
 3044W        W18175   2.329   4.625  15.256  0.2633 -0.0390 -0.3620
 3045W        W18176   8.497   0.446   4.607 -0.0382  0.2153  0.2163
 3046W        W18177   0.886  11.964   1.549  0.4034 -0.0597 -0.1339
 3047W        W18178  11.493   9.407  12.667 -0.4354  0.0588 -0.1338
 3048W        W18179  16.642  13.300   3.781 -0.0263 -0.0484  0.1897
 3049W        W18180  10.221  16.860   4.955 -0.0622  0.4466  0.2400
 3050W        W18181   9.376   9.020  12.118  0.1239  0.1345  0.2871
 3051W        W18182   8.637   0.542   4.107 -0.1825 -0.0551 -0.0082
 3052W        W18183  15.501  14.552  12.309 -0.2078  0.3478  0.1487
 3053W        W18184   5.222  14.972   2.107 -0.3558  0.3232  0.0172
 3054W        W18185   8.785   7.480   2.477 -0.1491  0.0466  0.1799
 3055W        W18186   2.492  14.030   0.805 -0.2756  0.0165 -0.0728
 3056W        W18187  14.466  15.231  11.592 -0.3582 -0.0210  0.2676
 3057W        W18188  10.080  13.812  13.790  0.1975  0.0545  0.1638
 3058W        W18189   1.327   6.677  13.390 -0.0863  0.1860  0.0690
 3059W        W18190   3.182   9.650  12.441 -0.0513 -0.1758  0.1136
 3060W        W18191   7.672  12.217   1.999  0.0440  0.1057 -0.0749
 3061W        W18192  15.958   8.014  14.414  0.4120 -0.0504 -0.1342
 3062W        W18193   8.829   1.091  10.605  0.2625 -0.1767 -0.3140
 3063W        W18194   9.480   6.068   0.785  0.0563 -0.3043  0.2883
 3064W        W18195   6.590  17.850   0.003 -0.1421  0.2619  0.4493
 3065W        W18196   7.260  16.279   4.846  0.0077 -0.3468 -0.1507
 3066W        W18197  14.292  13.842  16.102 -0.6500 -0.0868 -0.0221
 3067W        W18198   5.875  11.740  13.801 -0.2928 -0.0739 -0.0847
 3068W        W18199   4.261   5.764  11.983 -0.1527 -0.2824 -0.1206
 3069W        W18200   9.082   9.943   1.497  0.0266  0.3543  0.0540
 3070W        W18201   9.233  13.999   3.889 -0.2398  0.0735  0.2299
 3071W        W18202  10.985   8.543   5.027  0.2167  0.1181  0.0583
 3072W        W18203  11.266  12.466   5.626  0.0368  0.3484 -0.0260
 3073W        W18204  16.494  15.430   4.390  0.0079  0.2095 -0.0060
 3074W        W18205  13.258  17.713   0.326 -0.1814  0.3700 -0.0970
 3075W        W18206   6.743   4.459  13.102  0.0633 -0.0397  0.0229
 3076W        W18207   5.232   4.296   3.415 -0.0427  0.1387  0.2123
 3077W        W18208   2.401   2.477  14.653  0.1409  0.3170  0.2733
 3078W        W18209   2.698   4.272   2.375  0.0108  0.3437  0.1003
 3079W        W18210   9.104   1.165   1.459 -0.0619  0.1019 -0.1319
 3080W        W18211  14.349   0.773   3.354 -0.0509  0.0616  0.0617
 3081W        W18212  14.924   8.747  16.309  0.0442 -0.1462 -0.3075
 3082W        W18213   8.256   5.913  12.619 -0.0060  0.0139 -0.1890
 3083W        W18214   2.252  13.810  14.788  0.2354 -0.1259  0.0044
 3084W        W18215  14.598   1.377  11.743 -0.2701  0.3232  0.2345
 3085W        W18216   7.200   3.883  14.023  0.0509  0.2919 -0.1215
 3086W        W18217   1.399   7.268   2.676 -0.2085 -0.0508 -0.0852
 3087W        W18218   6.007  15.642   4.009 -0.0192  0.1219  0.0252
 3088W        W18219  11.768  11.949  16.493  0.3885  0.1622 -0.0328
 3089W        W18220   6.941   4.091   1.731 -0.0808 -0.1660 -0.1097
 3090W        W18221   8.711  10.804  14.409 -0.1400 -0.0966  0.1155
 3091W        W18222   9.216   5.395   4.413  0.3410  0.1284  0.0455
 3092W        W18223   0.675   4.066   1.530 -0.1718 -0.2042 -0.1369
 3093W        W18224   6.751   3.161   4.774 -0.0048 -0.0385 -0.2506
 3094W        W18225  15.367   5.375  11.517 -0.0238  0.0176 -0.1206
 3095W        W18226  10.149  10.326   4.121  0.1884  0.0867 -0.2945
 3096W        W18227   3.399   8.163   3.777 -0.2431 -0.1924  0.0690
 3097W        W18228  17.079  17.116   2.793 -0.1944  0.0241  0.0358
 3098W        W18229   5.225  12.477  14.719  0.0352 -0.0852  0.0051
 3099W        W18230  14.471   7.029   3.040  0.0036  0.0258  0.2445
 3100W        W18231  17.869  10.304   4.049 -0.0359  0.0230 -0.2117
 3101W        W18232   7.022   6.287  11.459  0.0999  0.1023 -0.2542
 3102W        W18233   6.733  17.715   1.446 -0.3691  0.1006 -0.2934
 3103W        W18234  10.160   2.233  12.209 -0.1535  0.1857  0.3901
 3104W        W18235   7.075   3.617  16.269 -0.3417 -0.0857 -0.4308
 3105W        W18236   3.720  14.470   0.318  0.1490 -0.0955  0.0493
 3106W        W18237  12.169   3.800   5.645  0.1794  0.0721  0.0803
 3107W        W18238  11.566   7.231   1.588  0.1694 -0.0400 -0.1838
 3108W        W18239  10.757  14.833  11.243 -0.0420 -0.2640  0.1617
 3109W        W18240  10.791  16.018   0.664  0.3280 -0.0112  0.1142
 3110W        W18241   6.090  11.928   3.861  0.3589 -0.2404 -0.0761
 3111W        W18242  10.288   4.341  11.535  0.0020  0.0452  0.2495
 3112W        W18243  13.307   9.430   5.717 -0.0070 -0.1771  0.0571
 3113W        W18244   9.805   2.946  13.654 -0.1871 -0.1204  0.0650
 3114W        W18245   2.145  17.122   0.539 -0.0375  0.0762  0.0943
 3115W        W18246   8.175  10.841   0.505 -0.1640 -0.0523  0.0955
 3116W        W18247  15.595   9.743   1.845 -0.0044  0.2523  0.0188
 3117W        W18248  17.838   8.493   3.374 -0.1545 -0.0094 -0.3845
 3118W        W18249  12.255  17.789   0.124  0.0851  0.0359 -0.4114
 3119W        W18250  14.863  14.824   5.675  0.1591 -0.1175  0.0313
 3120W        W18251   1.811  11.332   3.032  0.0997 -0.3063 -0.3256
 3121W        W18252  17.640   5.848  15.676 -0.0674 -0.3143  0.1706
 3122W        W18253   5.063   6.703  13.467 -0.0436 -0.0887  0.3225
 3123W        W18254  12.039   9.010  14.281 -0.1151 -0.1986  0.3921
 3124W        W18255   3.863   3.255   5.267 -0.0677 -0.0123  0.4538
 3125W        W18256  10.414   4.062  14.703  0.0643  0.0642 -0.0692
 3126W        W18257   8.905   3.580  12.656  0.1947  0.0251 -0.1776
 3127W        W18258   2.808   6.526   0.342 -0.0821 -0.0059  0.1824
 3128W        W18259   8.361  16.522   3.513  0.2803 -0.0563 -0.0275
 3129W        W18260   8.007   0.334   3.825  0.1312  0.3716  0.1094
 3130W        W18261   1.169  17.285  11.019  0.0681  0.1075 -0.3452
 3131W        W18262  11.445  11.962   0.584  0.1752  0.1540  0.1988
 3132W        W18263  16.268  14.724  12.877 -0.1179 -0.1040  0.1281
 3133W        W18264   1.747   8.454  15.477 -0.1253  0.0518  0.1592
 3134W        W18265   2.305  11.542   1.104 -0.0102  0.0439 -0.0103
 3135W        W18266   4.801  14.586  13.750  0.0350  0.0826 -0.2394
 3136W        W18267   0.278   3.218   5.166  0.3955  0.2910 -0.1711
 3137W        W18268   3.441   1.501  15.458 -0.0510  0.0175 -0.2600
 3138W        W18269   4.458   1.864  16.669  0.1012 -0.1134  0.1749
 3139W        W18270   1.136   6.121  14.070 -0.1467  0.0414 -0.1312
 3140W        W18271   4.561   0.647  15.562  0.2028 -0.1871 -0.1056
 3141W        W18272  14.644   1.833   0.513  0.0360 -0.0274 -0.0079
 3142W        W18273   4.335   6.988  14.138 -0.1097 -0.0734 -0.1228
 3143W        W18274   8.628  16.183   2.705  0.1285  0.0261 -0.1009
 3144W        W18275  14.016  12.754  15.505  0.0749  0.0879  0.2344
 3145W        W18276  13.020   4.719   1.514 -0.0890 -0.2990  0.0270
 3146W        W18277  17.655  12.308   3.457  0.0230 -0.2280  0.0621
 3147W        W18278   8.466  17.525   5.122  0.0140  0.0318  0.1402
 3148W        W18279   0.475  17.679   6.201  0.2144  0.3183  0.1867
 3149W        W18280   2.630  10.603   1.130  0.0510  0.0739 -0.3486
 3150W        W18281  13.174   1.183  12.686 -0.0558  0.0318  0.1205
 3151W        W18282  11.039   8.408  14.708 -0.4704  0.0013 -0.3234
 3152W        W18283   1.062   1.884  14.928 -0.0291  0.0250 -0.0408
 3153W        W18284   6.790  16.877   1.449  0.2527  0.4653 -0.0363
 3154W        W18285  14.640  15.333   4.625 -0.0395  0.1420 -0.1469
 3155W        W18286   8.771   7.343  15.819 -0.1416  0.1040  0.1519
 3156W        W18287  12.783   5.671  12.802 -0.0063 -0.0731 -0.4962
 3157W        W18288  10.695  13.823  16.177  0.1838  0.1348 -0.1900
 3158W        W18289   7.846   7.594   1.832  0.1380 -0.0089  0.3315
 3159W        W18290   2.539  16.433  14.407  0.0701 -0.0716 -0.2196
 3160W        W18291   9.894   5.233   0.843 -0.1613 -0.0255 -0.1233
 3161W        W18292  12.845  14.153   0.983  0.3753  0.1997  0.0536
 3162W        W18293   0.530   9.919  11.982 -0.1136 -0.2655 -0.1223
 3163W        W18294  17.559  16.935  13.025  0.0610 -0.0150  0.0432
 3164W        W18295   0.038  15.336   6.489  0.0565 -0.1315 -0.0651
 3165W        W18296  11.356  14.131  11.273 -0.1484 -0.0385  0.0622
 3166W        W18297   3.386   6.027  14.822 -0.2592  0.4791  0.2620
 3167W        W18298   3.532   0.263  10.522  0.2541  0.4970  0.3144
 3168W        W18299   5.958   8.069   1.589  0.0144  0.0308 -0.2045
 3169W        W18300   4.634   4.370   2.875 -0.4129  0.0553  0.2744
 3170W        W18301   2.508  14.496  13.259 -0.3344  0.0050  0.0020
 3171W        W18302   5.326   5.491   6.264  0.1433 -0.3776 -0.1162
 3172W        W18303   0.442  17.431   2.104  0.0961  0.4729  0.0752
 3173W        W18304   6.840   4.931   2.043 -0.1763 -0.0023  0.3063
 3174W        W18305  10.098   0.577   4.896  0.2656  0.1057  0.0436
 3175W        W18306   6.922  10.755  12.951 -0.0829 -0.2065  0.3610
 3176W        W18307   8.441  15.810  11.647  0.2371  0.0873  0.0993
 3177W        W18308  11.788   6.484   1.133 -0.1973 -0.0888  0.0154
 3178W        W18309  12.743  17.170   1.785  0.0978 -0.6464 -0.0277
 3179W        W18310   8.999   1.637  11.494  0.1810  0.0561 -0.3443
 3180W        W18311   6.999  14.537  14.264  0.2980  0.1338  0.2262
 3181W        W18312  11.510   7.520  12.316  0.2908 -0.0949  0.1661
 3182W        W18313   8.168  12.703  14.258  0.0228 -0.2466 -0.2140
 3183W        W18314   4.703  12.102  14.069  0.0967 -0.1400 -0.1477
 3184W        W18315   7.776  14.075   3.049  0.0781  0.0269  0.1963
 3185W        W18316  16.829  13.013   0.291  0.2583  0.0185  0.2026
 3186W        W18317   8.824  14.840  15.918 -0.0627  0.0880 -0.0355
 3187W        W18318  17.521  16.163   3.767  0.0327 -0.2072  0.1665
 3188W        W18319  13.179  12.923  11.096  0.2257  0.1316 -0.2669
 3189W        W18320  13.702  10.730  13.330  0.1555 -0.4944 -0.0388
 3190W        W18321  17.796   3.081   2.183  0.0292 -0.0574  0.2643
 3191W        W18322   1.625   4.229  12.539 -0.0361 -0.1061  0.1171
 3192W        W18323   7.705  11.742   4.966  0.0852  0.1005 -0.3687
 3193W        W18324   2.780  12.075   1.748 -0.3267 -0.2690  0.1415
 3194W        W18325   1.660   3.278  15.681 -0.1302  0.0824 -0.0734
 3195W        W18326  15.796  12.783   0.546  0.3557 -0.0660  0.1840
 3196W        W18327  11.842   5.965   5.343  0.0713 -0.1240  0.1130
 3197W        W18328  14.324   3.093   0.578 -0.2148  0.0418  0.3781
 3198W        W18329   3.257  10.068  15.195 -0.0464  0.4586 -0.0509
 3199W        W18330  10.667   8.762   0.637 -0.1361 -0.0295  0.2816
 3200W        W18331   8.674   4.592  11.070  0.0370 -0.1326 -0.1460
 3201W        W18332   8.615   8.280   0.379 -0.1135 -0.0055 -0.4103
 3202W        W18333  11.991   0.994  13.914  0.2338  0.1157  0.2329
 3203W        W18334  14.708  15.454   2.654 -0.0523  0.0306  0.1556
 3204W        W18335   6.384  11.417  11.586  0.1203 -0.0136 -0.2894
 3205W        W18336   9.854   2.710   3.511 -0.2400 -0.1925  0.0656
 3206W        W18337   7.308   1.181   5.295  0.1663 -0.0356  0.3005
 3207W        W18338  16.344  14.731   4.800 -0.0526  0.1926  0.4463
 3208W        W18339  12.788  13.455   1.739  0.1562 -0.0748  0.2445
 3209W        W18340  15.690   4.117   5.400 -0.3838  0.2561  0.0189
 3210W        W18341   8.171   9.358   3.109 -0.0071 -0.0790  0.0587
 3211W        W18342  14.836   9.942   1.609  0.0391 -0.0094 -0.1139
 3212W        W18343   3.476  14.743   4.585  0.2785 -0.0985  0.1376
 3213W        W18344  13.549   3.784   4.774  0.3753 -0.3948 -0.0101
 3214W        W18345   2.420   9.710   4.375 -0.2700  0.3987 -0.1877
 3215W        W18346   7.998   0.594  10.295  0.1203  0.0572  0.0701
 3216W        W18347  16.246   1.441   4.274  0.0633 -0.2059  0.1103
 3217W        W18348   3.256   5.498   1.384  0.3054 -0.0717  0.0824
 3218W        W18349   5.366  10.798  15.496  0.1676  0.0977 -0.1994
 3219W        W18350  15.871  17.738  15.543 -0.0695  0.1147  0.2925
 3220W        W18351   0.539   3.012  15.723  0.1894  0.1171  0.1648
 3221W        W18352  16.417   1.760  11.909  0.0273 -0.0390  0.0802
 3222W        W18353  15.031  13.022   1.561  0.1333  0.0953  0.3981
 3223W        W18354   4.861  17.137   4.854  0.2609 -0.1185 -0.0319
 3224W        W18355  15.493  15.102   2.380  0.0599  0.1715  0.0632
 3225W        W18356  10.513   0.168  14.613 -0.0578  0.2424 -0.4200
 3226W        W18357  11.171   3.251  16.734 -0.1159 -0.0359  0.1838
 3227W        W18358   0.882   1.867   0.663  0.0890 -0.1935  0.1256
 3228W        W18359  12.565  14.531   6.042  0.0388  0.2322  0.0590
 3229W        W18360  16.079  13.353  11.967 -0.0268  0.0007 -0.1876
 3230W        W18361  10.633   6.849   1.607 -0.1935  0.1851  0.1689
 3231W        W18362   8.275  15.175   4.865 -0.1157  0.1340 -0.1354
 3232W        W18363  11.951  17.465  16.642 -0.0983 -0.0356 -0.3397
 3233W        W18364  12.603   1.741   1.901  0.0935 -0.0339 -0.0047
 3234W        W18365   1.580  15.990   0.130 -0.0374 -0.1260 -0.3166
 3235W        W18366  13.568  14.887   1.686 -0.0031  0.1470  0.1848
 3236W        W18367   5.682  11.665   3.843 -0.0036  0.2708 -0.1133
 3237W        W18368  13.548  17.146   0.292  0.0927 -0.1177  0.2852
 3238W        W18369   6.290   2.136  12.768  0.1014 -0.0716  0.0230
 3239W        W18370   4.883  11.957   1.700  0.0574  0.1305 -0.1300
 3240W        W18371   7.145   4.513   3.557  0.0421  0.0725  0.1401
 3241W        W18372  11.832  13.243   0.555  0.1353  0.2441 -0.0403
 3242W        W18373   1.509  17.779   5.996  0.0685 -0.0869 -0.0112
 3243W        W18374   1.245   8.669  10.622 -0.1745 -0.3767 -0.1452
 3244W        W18375  11.140  15.722  11.981 -0.0209  0.0083 -0.1167
 3245W        W18376  17.129   5.528   0.233  0.0890 -0.1994  0.2092
 3246W        W18377   8.261   6.581   4.701  0.5138  0.1771 -0.0561
 3247W        W18378  11.826   3.828  13.625  0.0693 -0.1551 -0.2319
 3248W        W18379   2.180  15.669   4.335 -0.0335 -0.0004 -0.0576
 3249W        W18380  13.845   8.268  15.382 -0.0112 -0.1645  0.1260
 3250W        W18381  13.303  15.131  13.736  0.0156  0.1723 -0.0465
 3251W        W18382  10.109   3.902   0.942 -0.0187  0.3110 -0.2268
 3252W        W18383  13.363   0.876   3.409 -0.0857  0.1229  0.0293
 3253W        W18384  17.764  11.927  11.827  0.2923 -0.1106  0.2270
 3254W        W18385  13.490  16.504  15.305 -0.1652  0.4250 -0.2009
 3255W        W18386   7.568   3.606   5.296  0.1386  0.1660 -0.0658
 3256W        W18387   7.787   1.145   3.961 -0.1019 -0.0142  0.3712
 3257W        W18388   2.764  17.016  13.694 -0.0332  0.3456  0.0111
 3258W        W18389   2.279   1.107  15.017  0.0152 -0.0848 -0.0282
 3259W        W18390   8.567  11.712  13.376 -0.0267 -0.0005 -0.1733
 3260W        W18391  16.610  11.430  15.945  0.0275 -0.0894 -0.0802
 3261W        W18392   2.974   7.377  13.799 -0.1496  0.0817 -0.1136
 3262W        W18393  10.453  15.767  16.526 -0.0635 -0.1670 -0.0751
 3263W        W18394  17.877  16.050   2.297 -0.0327 -0.2952 -0.0847
 3264W        W18395  15.538  14.302  12.822 -0.0426 -0.0720  0.0387
 3265W        W18396  11.592  11.680   2.972  0.0053 -0.1524 -0.0135
 3266W        W18397  14.431  10.370   0.157  0.0058  0.1351  0.0344
 3267W        W18398   1.053   2.799  15.451  0.2288  0.1473 -0.1786
 3268W        W18399   4.793   4.495   0.505 -0.2262  0.2236  0.0487
 3269W        W18400   7.930  12.587   5.495 -0.0503  0.2609  0.2396
 3270W        W18401  14.466   2.276   4.881 -0.0674 -0.3047 -0.2312
 3271W        W18402  14.610  13.973   5.767 -0.0327  0.0492  0.0907
 3272W        W18403  12.295  14.196   0.558 -0.0126 -0.2057  0.0257
 3273W        W18404  17.513   3.029   2.643  0.1264 -0.4568 -0.1441
 3274W        W18405   4.741   9.773  15.544 -0.2419  0.0622  0.2385
 3275W        W18406  16.338  10.951   1.006 -0.0657 -0.2349 -0.0105
 3276W        W18407  17.070   9.423   5.932  0.1601  0.1487  0.1295
 3277W        W18408   8.924  17.180  14.770  0.4629  0.2730 -0.0215
 3278W        W18409   5.593   9.809   1.454 -0.2302 -0.3127 -0.0122
 3279W        W18410  12.097   8.308  13.204  0.0680 -0.0130 -0.0091
 3280W        W18411  13.519   4.131   4.349 -0.0380 -0.1175 -0.0183
 3281W        W18412   4.975   2.977   0.930 -0.2165 -0.0140 -0.0247
 3282W        W18413  10.421  13.656   0.843  0.0102  0.0737  0.0422
 3283W        W18414   0.380   1.151   5.235 -0.1384  0.3777 -0.0623
 3284W        W18415  16.168  16.832  15.918  0.1015  0.0532  0.0420
 3285W        W18416  15.641  13.805   4.765 -0.3243 -0.3932 -0.1938
 3286W        W18417   1.770   1.438   1.555  0.1283 -0.1488 -0.3784
 3287W        W18418   5.535   6.305  12.566  0.0047  0.0921 -0.0914
 3288W        W18419   6.981  16.479  13.089  0.0048 -0.1616 -0.3810
 3289W        W18420  15.423   6.978   5.627 -0.1962 -0.1786 -0.2681
 3290W        W18421  14.150   8.010  14.457  0.0419  0.2742  0.0261
 3291W        W18422  10.481   3.346   5.837 -0.0565 -0.2274  0.1841
 3292W        W18423   0.927  16.322   0.763 -0.2335  0.2192  0.0143
 3293W        W18424   0.974  10.018   5.085  0.2131 -0.4280  0.1492
 3294W        W18425   1.383  10.833   4.170 -0.2162  0.0780 -0.0459
 3295W        W18426  10.780   6.872  14.999 -0.1746 -0.5474  0.0114
 3296W        W18427   9.420   0.471   1.877  0.1249 -0.1260 -0.0540
 3297W        W18428  11.253  15.013   3.692  0.1783  0.1234  0.1805
 3298W        W18429   5.719  11.330   2.615 -0.0181 -0.1678  0.1921
 3299W        W18430  11.111   2.302  13.169 -0.0162  0.1716 -0.1968
 3300W        W18431   9.235   7.601  11.527 -0.1136 -0.0111  0.0714
 3301W        W18432   3.573   2.814  13.103 -0.2330  0.2288  0.2099
 3302W        W18433   4.488  15.545  16.457  0.0507  0.2054  0.3398
 3303W        W18434  13.523   6.789   2.866  0.2735 -0.0905  0.0860
 3304W        W18435  12.492   7.701   2.981  0.2563 -0.2370  0.0941
 3305W        W18436   9.857   0.728   0.903  0.0859 -0.2064  0.1642
 3306W        W18437  10.521   2.891  11.593  0.2332  0.0832  0.0232
 3307W        W18438   9.762  12.427   0.853 -0.1217  0.0050 -0.2676
 3308W        W18439  14.596   5.968   0.129 -0.1469  0.2418 -0.1246
 3309W        W18440  11.836   1.888  13.373  0.1452  0.1161 -0.3226
 3310W        W18441   1.635  15.756   1.017  0.1450  0.1321 -0.1529
 3311W        W18442  11.289  10.414   0.829 -0.1818  0.1369 -0.1518
 3312W        W18443  13.208  13.168   1.643  0.0809  0.0904  0.0299
 3313W        W18444  17.755   1.543  13.257  0.0875  0.0500 -0.1958
 3314W        W18445   6.542   3.430   4.296  0.0153  0.2415 -0.1176
 3315W        W18446  17.021   9.201  15.409  0.0874  0.0178  0.2585
 3316W        W18447   1.316   3.796   5.488  0.0608  0.2355  0.1288
 3317W        W18448   4.105  17.427   1.440 -0.1278  0.0242 -0.3056
 3318W        W18449   4.981  17.250   2.130  0.3060  0.0534  0.3315
 3319W        W18450   6.121   8.467   5.296  0.0630  0.1379  0.0006
 3320W        W18451   6.356  15.238   1.999 -0.1253  0.0056  0.0083
 3321W        W18452   8.612  15.571   3.886  0.2251 -0.1291  0.1344
 3322W        W18453   1.072  16.654   2.560  0.1418  0.0364 -0.0404
 3323W        W18454   0.989   6.384   5.583 -0.2162  0.0760 -0.1442
 3324W        W18455   6.426   0.584  15.596 -0.3428  0.1569  0.2873
 3325W        W18456   5.273  10.056  15.425 -0.0284  0.0720 -0.2486
 3326W        W18457   3.344   1.517   5.360 -0.1319  0.0441  0.2077
 3327W        W18458  12.698   2.256   2.769 -0.0848  0.0148 -0.0377
 3328W        W18459   3.346  10.084  16.334  0.0262 -0.1052 -0.1702
 3329W        W18460  13.236   6.071  13.535  0.1995 -0.1591 -0.1494
 3330W        W18461  10.080   1.443  13.537  0.0208  0.1469  0.0101
 3331W        W18462  14.637  10.032  15.045 -0.0190 -0.0667 -0.1843
 3332W        W18463   5.415   3.006  10.103 -0.0522  0.1154 -0.0596
 3333W        W18464   1.590   9.690   4.759 -0.2008 -0.2517  0.2653
 3334W        W18465   3.972  14.957  12.075  0.0496  0.1999 -0.1581
 3335W        W18466  12.403   3.510  14.952  0.0130 -0.0271 -0.3252
 3336W        W18467  15.185   3.958   5.447  0.0453  0.1296 -0.0965
 3337W        W18468   7.259   7.758   0.873  0.0207 -0.0578 -0.2482
 3338W        W18469  17.412  10.102   2.746 -0.0064  0.1820  0.0255
 3339W        W18470  12.347  12.355  16.241 -0.3265  0.3764  0.0402
 3340W        W18471  17.432  17.144   2.385  0.0457 -0.0174  0.0123
 3341W        W18472   2.893   8.338   1.102 -0.0442  0.1408 -0.0458
 3342W        W18473   8.825  14.701  12.916 -0.2507 -0.0143  0.0426
 3343W        W18474   5.715  12.344  13.006  0.0756  0.0662 -0.0786
 3344W        W18475   0.354   6.067   0.198  0.0054  0.0813  0.2293
 3345W        W18476   3.733  16.528   3.568  0.1227  0.0416  0.1946
 3346W        W18477   2.750   4.718   0.812  0.2628 -0.1639 -0.1038
 3347W        W18478   6.382   5.597   4.053  0.2989 -0.0940  0.0475
 3348W        W18479  17.038  13.674  11.246 -0.3588 -0.0822  0.1881
 3349W        W18480   9.584   9.572  14.384 -0.1146 -0.0852 -0.1332
 3350W        W18481  17.421   8.234  16.547  0.3187 -0.0782 -0.0043
 3351W        W18482  14.947   1.881  13.285 -0.0975  0.1782  0.1996
 3352W        W18483   1.890   3.173   3.429 -0.1764 -0.1017  0.3144
 3353W        W18484  16.081   5.188  13.122 -0.2569  0.1151 -0.1563
 3354W        W18485   1.989  17.619  14.753  0.1899 -0.1864 -0.0532
 3355W        W18486  15.832  11.879   4.692 -0.0229 -0.1111  0.3419
 3356W        W18487   9.837  15.619   4.578  0.3432 -0.3332  0.0044
 3357W        W18488  10.549  13.983   2.498 -0.0228 -0.0984  0.2757
 3358W        W18489   4.660  16.094   5.936  0.0582  0.1792 -0.1337
 3359W        W18490   4.546   4.940   5.175  0.1836  0.2655  0.0889
 3360W        W18491   2.721  12.947  14.863  0.0572 -0.0035  0.0102
 3361W        W18492   9.773   3.834   2.756 -0.1060 -0.0995  0.3144
 3362W        W18493  15.175   6.934   4.405  0.1078 -0.2908  0.1284
 3363W        W18494   7.729   6.628   0.414  0.0089 -0.0622 -0.0903
 3364W        W18495  16.377   7.213  13.795 -0.0960  0.0378  0.1083
 3365W        W18496  11.461  14.292  15.137  0.0589  0.0931  0.3254
 3366W        W18497   5.358   9.491   2.407  0.1048 -0.0698 -0.0600
 3367W        W18498  15.278  14.876  13.710  0.2044 -0.6003  0.1657
 3368W        W18499  13.044  12.510  14.463 -0.0459 -0.3168  0.2609
 3369W        W18500   6.265   1.559   1.635  0.0866  0.2102  0.0357
 3370W        W18501  10.970  11.182   1.624  0.0858 -0.2829  0.3312
 3371W        W18502   3.914   7.607   2.153  0.1389 -0.1346 -0.1274
 3372W        W18503  15.523  10.846   5.399  0.1964  0.2715  0.0553
 3373W        W18504  12.405   5.212   0.781 -0.2098  0.1888 -0.2737
 3374W        W18505  12.193  16.623  11.911  0.0527  0.0618 -0.2719
 3375W        W18506   7.226   0.624   4.029  0.0463  0.1600 -0.0117
 3376W        W18507  13.270   2.230  13.684  0.1738 -0.0294  0.1573
 3377W        W18508   6.687  10.799   5.596  0.0242 -0.3195  0.3545
 3378W        W18509   5.237   1.356   0.843 -0.0740  0.0677 -0.1326
 3379W        W18510  11.691   1.328  14.272 -0.3381 -0.1475 -0.0052
 3380W        W18511   4.304   7.023   2.937 -0.1859  0.0458 -0.2000
 3381W        W18512  12.687   0.768  15.223  0.0098  0.4223 -0.1346
 3382W        W18513  16.674   8.975   3.774  0.2403  0.0763  0.0759
 3383W        W18514   5.520   2.512   2.980 -0.1295  0.3073 -0.0231
 3384W        W18515  17.791  16.568   5.815 -0.1252 -0.1374 -0.0137
 3385W        W18516  13.372   1.969  14.834 -0.4822 -0.1329 -0.1188
 3386W        W18517  11.694  17.599   1.820  0.0824 -0.0233 -0.0529
 3387W        W18518  11.037   5.275   5.717 -0.0375  0.3381  0.3073
 3388W        W18519   0.574  13.004   5.310  0.0462 -0.1099  0.1349
 3389W        W18520   5.444  14.072  11.715  0.0120  0.3694  0.1940
 3390W        W18521   3.411  12.805   0.967  0.0345  0.2619 -0.0095
 3391W        W18522   6.877  10.740   3.574  0.0613 -0.3373  0.0911
 3392W        W18523  13.225  10.741  16.748  0.2058 -0.1365 -0.1783
 3393W        W18524   7.496  14.987   3.390  0.2332 -0.2188 -0.0679
 3394W        W18525   5.829   3.280   4.911 -0.0062  0.0524 -0.0977
 3395W        W18526   2.180   7.293   0.643 -0.1444  0.1502  0.3480
 3396W        W18527   3.712  13.083   4.664  0.0490 -0.0698 -0.2702
 3397W        W18528   0.513  10.140   0.353  0.1205 -0.1527 -0.0277
 3398W        W18529   0.420  10.765  13.969 -0.0571 -0.1706  0.2885
 3399W        W18530  10.949   5.888   3.639 -0.0014  0.0876 -0.0218
 3400W        W18531  13.784  10.697   2.227 -0.1631  0.2685  0.5402
 3401W        W18532   7.485  10.637  14.196 -0.0766  0.1112 -0.0650
 3402W        W18533   0.302   9.450  16.689  0.3228 -0.0037  0.0208
 3403W        W18534  14.272  13.618   2.962  0.1902  0.3393 -0.1790
 3404W        W18535  16.593  15.707  14.330 -0.0217  0.2401 -0.0214
 3405W        W18536   7.043   0.095  12.678  0.2883 -0.1966 -0.0422
 3406W        W18537   6.518   0.837  13.984 -0.6295 -0.0504  0.0620
 3407W        W18538  15.625  15.268  16.244 -0.1384 -0.1577 -0.2136
 3408W        W18539   3.175  12.635   2.765 -0.0108  0.1204  0.0860
 3409W        W18540  14.819   6.119   6.509  0.2831  0.0945 -0.1499
 3410W        W18541  10.671   3.909  12.297 -0.1102  0.1783 -0.0030
 3411W        W18542   0.525  12.629  14.471 -0.0462 -0.2228 -0.1137
 3412W        W18543   1.030   4.209   5.112  0.0199  0.3385  0.1878
 3413W        W18544   2.073   1.815  12.403 -0.1209  0.0418  0.0991
 3414W        W18545  13.983   2.849   5.327  0.0427  0.0928 -0.0412
 3415W        W18546   6.299  13.341  13.393 -0.1381  0.0858 -0.2237
 3416W        W18547  16.617   4.380   1.093 -0.0813 -0.2655 -0.1599
 3417W        W18548   8.660   7.890   4.117 -0.0484  0.0610 -0.2162
 3418W        W18549   4.533   9.967   4.802 -0.2323  0.0944 -0.1346
 3419W        W18550   1.663   0.410   2.143  0.0646 -0.1668 -0.2134
 3420W        W18551   2.593  11.619  13.588 -0.0553  0.0289  0.1842
 3421W        W18552   1.781  10.307   0.565  0.0559  0.2929  0.1390
 3422W        W18553   5.649   8.032   4.203  0.0032  0.0072  0.0377
 3423W        W18554  15.365  11.951   4.553 -0.0284 -0.2674  0.2237
 3424W        W18555  17.647   9.163  12.796 -0.1475  0.1809  0.1872
 3425W        W18556   4.386   8.949  12.312 -0.1905  0.2515 -0.1113
 3426W        W18557   6.262  14.102  16.235 -0.0330 -0.1112 -0.1829
 3427W        W18558  13.982  14.663  16.372  0.2296  0.0851  0.1925
 3428W        W18559   1.689  17.341   3.128  0.1381 -0.1935 -0.1218
 3429W        W18560  15.561  14.372  14.151  0.0434  0.0992 -0.2063
 3430W        W18561   5.659  12.479  11.941 -0.2940  0.0626 -0.3461
 3431W        W18562  17.367  10.773  14.865 -0.0469  0.0900 -0.2918
 3432W        W18563  16.750  16.157  15.913  0.1369 -0.0709 -0.3160
 3433W        W18564   5.902  11.291  11.763  0.0621  0.2678  0.0167
 3434W        W18565  11.616   5.245   4.967  0.1575  0.1375  0.0969
 3435W        W18566  11.864  10.256  11.217  0.1791 -0.0171 -0.0299
 3436W        W18567   0.195   5.570   1.118  0.2644 -0.0804  0.0635
 3437W        W18568   3.374   6.507  16.415  0.2688  0.0356 -0.2693
 3438W        W18569   9.709   3.740  14.338 -0.1310 -0.1565  0.1496
 3439W        W18570  10.045   2.585  15.053  0.1679  0.1755  0.1412
 3440W        W18571   8.367   4.350  10.529 -0.0989  0.0779 -0.1669
 3441W        W18572   4.428   7.399   5.911 -0.3602  0.5854 -0.3106
 3442W        W18573   0.501   2.277  12.228  0.2490  0.3809 -0.1902
 3443W        W18574   4.435  16.970  12.038 -0.0292  0.0669  0.0052
 3444W        W18575  14.137  17.129   3.143  0.0264  0.1485 -0.0020
 3445W        W18576  15.263   6.603   2.004 -0.2752  0.2979 -0.2814
 3446W        W18577  15.021  16.760  15.042 -0.1448  0.3920 -0.4032
 3447W        W18578  11.181   7.714  13.514  0.1633 -0.0454  0.0568
 3448W        W18579   1.085   0.752   4.458  0.0950  0.0160  0.0109
 3449W        W18580   3.866   2.552  13.446  0.1254 -0.0846  0.1815
 3450W        W18581   0.398  15.188   3.203 -0.0850 -0.1163 -0.0935
 3451W        W18582   0.142   4.489   3.262  0.3093  0.1044  0.2545
 3452W        W18583   6.491   4.920  13.062 -0.4834 -0.2109 -0.1344
 3453W        W18584   7.163  12.127   0.117 -0.0013 -0.0495 -0.0697
 3454W        W18585   4.588   6.508   2.207 -0.2074  0.1171 -0.2718
 3455W        W18586   7.142  14.696  15.493 -0.2696  0.0223  0.2755
 3456W        W18587   9.954   8.449  16.682  0.0750  0.2734  0.0473
 3457W        W18588   1.720  11.413   0.118  0.1742  0.1796  0.2295
 3458W        W18589   2.453   2.781   4.492  0.0040  0.0119  0.0655
 3459W        W18590   6.932  16.506   0.278 -0.1902  0.0377  0.0206
 3460W        W18591  10.246  12.357  14.107  0.1485 -0.0012  0.0353
 3461W        W18592   2.114  17.266  11.872 -0.0394 -0.1763  0.0171
 3462W        W18593  15.459  15.778   4.411  0.0926  0.0441  0.1467
 3463W        W18594   7.215   5.469  15.535  0.2284  0.2944 -0.2204
 3464W        W18595   3.633   7.042  14.603  0.0531 -0.0913 -0.2502
 3465W        W18596   6.935  14.486  16.765 -0.0445 -0.0355 -0.1690
 3466W        W18597  10.025  14.130  15.712  0.1268  0.0614 -0.0811
 3467W        W18598   2.687  17.033   5.146  0.2186  0.4222  0.2037
 3468W        W18599   4.966   0.213  14.800  0.1927  0.0781  0.1594
 3469W        W18600  11.198  10.890  12.886 -0.1163  0.1906  0.0414
 3470W        W18601  11.735  11.368   4.939 -0.4054  0.4062 -0.2304
 3471W        W18602   2.840  13.723   1.635  0.1060  0.0834  0.0224
 3472W        W18603   4.055   2.840  12.997 -0.1421  0.0869  0.0418
 3473W        W18604  12.803  16.008   5.926 -0.1590  0.0692 -0.3682
 3474W        W18605  17.265  10.024  12.499 -0.1286  0.1026  0.0369
 3475W        W18606   2.038   9.823   5.222 -0.2278  0.1789  0.1673
 3476W        W18607   8.593  13.689  12.968  0.0610 -0.0214  0.1511
 3477W        W18608  13.969   3.662   4.270  0.3440  0.0360  0.0509
 3478W        W18609   6.364   1.182   4.394  0.0027 -0.1631 -0.0301
 3479W        W18610  11.723   6.273   1.775  0.1033  0.2911  0.0633
 3480W        W18611  16.361  16.255   3.374 -0.1445 -0.1972  0.1949
 3481W        W18612   2.195  11.450   2.713  0.1889 -0.0835  0.0361
 3482W        W18613   7.420   8.123  13.380 -0.1342 -0.0018 -0.2470
 3483W        W18614   4.821   9.702  12.423  0.2421 -0.0211  0.0527
 3484W        W18615  17.856   5.026  16.599 -0.2097  0.2372  0.0507
 3485W        W18616   3.714  13.388  15.615 -0.0157  0.2500 -0.4159
 3486W        W18617   4.134  14.035  15.114  0.3643  0.2032  0.0406
 3487W        W18618  13.383  11.425   4.359  0.0373 -0.3602  0.1507
 3488W        W18619  11.291   9.500   1.116  0.1112  0.2470  0.4099
 3489W        W18620   7.354  17.043  13.685  0.0748 -0.1602  0.1092
 3490W        W18621  10.101   6.014  14.019  0.1385  0.2090 -0.0669
 3491W        W18622   4.909  16.414  16.240  0.1564  0.1781  0.3299
 3492W        W18623   3.425   4.913  13.762  0.0060 -0.3048  0.1090
 3493W        W18624  12.113  13.639   2.418  0.0332  0.0695  0.0137
 3494W        W18625   9.703  12.786  16.383 -0.1694  0.0842  0.1417
 3495W        W18626  16.824  13.220  12.568  0.1362  0.0562 -0.1656
 3496W        W18627  15.635   7.888   3.112 -0.1463 -0.0948 -0.2141
 3497W        W18628   4.995   5.294   5.352 -0.2714 -0.0145 -0.0783
 3498W        W18629  11.392   0.368   0.092 -0.2591  0.2087  0.0177
 3499W        W18630   5.997   9.959   3.935 -0.0206 -0.1285  0.1670
 3500W        W18631   1.036  10.923  14.718  0.1076 -0.0191 -0.0910
 3501W        W18632   0.303   6.120   5.264 -0.0622 -0.1232 -0.1760
 3502W        W18633   5.788   5.705   6.057  0.1197  0.4228 -0.0038
 3503W        W18634   6.301  17.199   3.090  0.0568  0.1579 -0.0492
 3504W        W18635   1.683   0.828  15.418 -0.2340  0.0700 -0.1558
 3505W        W18636   9.134   2.882  11.800  0.0513  0.4819 -0.1469
 3506W        W18637  10.964   8.290   4.179 -0.1475 -0.0390 -0.0860
 3507W        W18638  16.223   6.418  12.108  0.0369  0.0819 -0.0223
 3508W        W18639  12.866   4.895   1.023 -0.1393  0.1069  0.3328
 3509W        W18640  17.786  14.784  16.031 -0.0632  0.0643  0.0757
 3510W        W18641   1.136  11.570   2.524  0.0937 -0.0078 -0.2055
 3511W        W18642   2.584  15.819   3.692  0.2608  0.1447 -0.0763
 3512W        W18643   3.356   9.153  14.265  0.3703  0.1413 -0.0519
 3513W        W18644   1.122   0.386   2.200 -0.0771 -0.2703 -0.0417
 3514W        W18645   8.024   0.302  12.577  0.1720  0.2071  0.0200
 3515W        W18646   1.330   6.850  14.864  0.0175 -0.0088 -0.1559
 3516W        W18647  15.429   4.330   0.445 -0.1057 -0.1627  0.0901
 3517W        W18648   5.388  12.998  14.751  0.1999 -0.0877  0.0087
 3518W        W18649   0.692  11.722   1.001 -0.1531  0.1019 -0.2823
 3519W        W18650  12.102  17.865   0.753  0.0582 -0.1539 -0.2702
 3520W        W18651  15.477  14.789  16.621  0.1623 -0.0959 -0.3421
 3521W        W18652   1.154   5.558   4.479  0.0954 -0.1903 -0.1462
 3522W        W18653   2.976   3.655  12.899  0.2049  0.1518 -0.0416
 3523W        W18654  14.131  17.678   4.525  0.2083 -0.1418  0.1332
 3524W        W18655   8.309  10.908  14.105  0.1166 -0.0581 -0.0932
 3525W        W18656   2.505   8.480   4.114  0.1920 -0.0298  0.2547
 3526W        W18657   4.794   0.484   5.677 -0.0366  0.0973  0.0168
 3527W        W18658   3.188  10.982   5.077  0.1054  0.1027  0.0170
 3528W        W18659   8.071   1.542  12.013  0.3417  0.1602 -0.1772
 3529W        W18660   8.559  11.720  11.935 -0.1330 -0.0872 -0.0181
 3530W        W18661   2.471  11.477   2.231 -0.1592  0.3500 -0.2853
 3531W        W18662  10.699   4.650   2.961  0.0195 -0.0441 -0.0433
 3532W        W18663  17.104  13.600   6.832 -0.2504 -0.0934 -0.0687
 3533W        W18664   2.052   0.868  13.739 -0.3864  0.2842  0.0007
 3534W        W18665   8.821   6.919   0.208 -0.0127 -0.0857 -0.2171
 3535W        W18666  10.870  15.906   5.455 -0.1391  0.1418  0.0028
 3536W        W18667   4.745  13.214   5.397  0.2471  0.0990 -0.2084
 3537W        W18668  10.918  13.175   3.141 -0.2223 -0.1940 -0.1532
 3538W        W18669   6.919  11.890   4.145 -0.0679  0.4221 -0.2520
 3539W        W18670   0.713   0.068   0.727 -0.0357 -0.0217 -0.0027
 3540W        W18671   6.479  15.629   1.119 -0.0398  0.0270 -0.1358
 3541W        W18672   6.917   9.112  12.355 -0.0837  0.1410  0.1219
 3542W        W18673   1.260   4.231  15.051  0.0254  0.1330  0.0546
 3543W        W18674   8.028  15.882   2.917 -0.0635  0.1391  0.1007
 3544W        W18675  14.396  17.531   5.815  0.3232  0.0471 -0.0818
 3545W        W18676   3.704  11.110   5.782 -0.2915 -0.0481 -0.1610
 3546W        W18677   3.311   8.746   0.690 -0.1306 -0.3889  0.0857
 3547W        W18678  15.780   1.633   6.126 -0.1010 -0.3661 -0.3096
 3548W        W18679  16.554  13.979   2.783 -0.1001  0.0828 -0.1198
 3549W        W18680   3.387  17.416   4.853  0.1409 -0.1170  0.1936
 3550W        W18681  16.286   0.958   4.293 -0.2881  0.2125 -0.0604
 3551W        W18682  11.970  14.413  14.365 -0.1330 -0.1938 -0.0936
 3552W        W18683   3.339  14.179  14.475 -0.1091 -0.3426 -0.1623
 3553W        W18684   1.154   6.001   1.188 -0.0681  0.3520  0.3383
 3554W        W18685  16.544  14.812   2.054  0.4226 -0.2526  0.1095
 3555W        W18686   9.712   2.973  14.937  0.3153  0.1206  0.1759
 3556W        W18687   3.418  14.945   3.174 -0.4382 -0.4578  0.0330
 3557W        W18688  13.701   5.874  12.814 -0.0088 -0.2281  0.0505
 3558W        W18689   4.478   9.349  15.630  0.0478 -0.0394 -0.1303
 3559W        W18690   9.757   7.609  13.997 -0.0461 -0.2021 -0.0829
 3560W        W18691  13.126   9.817  14.898 -0.1849 -0.1361 -0.2639
 3561W        W18692  17.229   8.655  16.260  0.2359  0.0065  0.0430
 3562W        W18693   7.959   9.068   2.631 -0.1867 -0.3481 -0.0829
 3563W        W18694  16.667  15.388  11.726 -0.2142  0.3666 -0.0848
 3564W        W18695  15.152   2.476   2.992 -0.1885 -0.3011 -0.0041
 3565W        W18696  14.768   2.604   1.883 -0.1658 -0.1868  0.0662
 3566W        W18697  17.321  16.406   1.179 -0.0489 -0.0446 -0.2069
 3567W        W18698   1.437  13.718   3.547 -0.1249 -0.1396  0.0210
 3568W        W18699  16.962   1.267  10.743  0.2722 -0.2421  0.2821
 3569W        W18700   2.298   1.488   5.223 -0.1931  0.0017  0.3526
 3570W        W18701   1.638   4.324   1.627 -0.2632 -0.0683  0.2539
 3571W        W18702   9.599   0.227   0.802  0.0560 -0.2360 -0.1645
 3572W        W18703   7.676   3.929  16.241 -0.1581 -0.3559 -0.3228
 3573W        W18704  15.406  12.464   0.661 -0.2903  0.2075  0.0015
 3574W        W18705   3.909   5.135  12.930 -0.2537  0.0104 -0.0727
 3575W        W18706   0.404  11.056  12.596 -0.0678  0.2459  0.2827
 3576W        W18707   4.969   1.907   0.042 -0.2298 -0.3286  0.2711
 3577W        W18708   2.206  14.839  13.094 -0.0327  0.0388  0.0303
 3578W        W18709   4.907  17.625   4.385  0.3441  0.0471  0.0484
 3579W        W18710  16.730  13.252  15.143  0.1570  0.1919 -0.3950
 3580W        W18711   4.752   2.264   4.559  0.1821 -0.1789 -0.2989
 3581W        W18712  13.443   6.247   4.300 -0.2655  0.1943  0.1457
 3582W        W18713   4.410  15.081   5.219  0.0155 -0.1103 -0.1963
 3583W        W18714  11.578   7.699  15.772  0.3388 -0.1015  0.1983
 3584W        W18715   8.415   4.756   0.570  0.0975  0.1951 -0.1474
 3585W        W18716   9.242  15.815   1.324  0.1469 -0.0418 -0.1454
 3586W        W18717   1.464   0.564   1.713  0.4610 -0.2906  0.1702
 3587W        W18718   7.640   1.359   2.348  0.1111 -0.1605 -0.0927
 3588W        W18719   2.391   6.654  16.386 -0.0008  0.4882 -0.0289
 3589W        W18720   5.017   3.664   1.629  0.1116  0.1675 -0.0840
 3590W        W18721   6.919   6.309   4.898 -0.1221 -0.2802  0.0702
 3591W        W18722  10.474  10.218  13.380 -0.0820 -0.2305  0.0641
 3592W        W18723   7.541  15.535  14.331 -0.0981 -0.2597  0.1659
 3593W        W18724   7.135  11.994   1.427 -0.2836  0.2460  0.1918
 3594W        W18725  11.236   7.125   2.049 -0.0218  0.0689 -0.2148
 3595W        W18726   6.228   6.072  14.769 -0.1291 -0.1277 -0.4196
 3596W        W18727   8.619  15.546   5.072  0.0681 -0.1459  0.1629
 3597W        W18728  15.894   8.990   5.399  0.0568 -0.0566  0.2281
 3598W        W18729  17.757  13.563   1.595 -0.0479 -0.0409 -0.2086
 3599W        W18730   4.028  10.016  12.902  0.0878 -0.2079 -0.0086
 3600W        W18731   8.535   4.081  15.167 -0.1555 -0.0713  0.2426
 3601W        W18732  15.470   3.057   3.757  0.2709 -0.0455  0.0391
 3602W        W18733   0.388   1.552  10.510 -0.2996  0.1057 -0.1114
 3603W        W18734  12.800  13.444   0.298 -0.2018 -0.1417 -0.0509
 3604W        W18735  15.139   0.177   4.302 -0.4489  0.3862 -0.0976
 3605W        W18736   8.938   4.549  14.573  0.1200 -0.0813 -0.4240
 3606W        W18737   3.754   8.292   0.126 -0.2678  0.0635  0.0751
 3607W        W18738  15.770   4.509  11.878 -0.0855  0.0384 -0.1989
 3608W        W18739  12.556  10.115   5.815  0.0976  0.1238 -0.1014
 3609W        W18740  12.062   7.248   3.497  0.0193  0.0180 -0.0016
 3610W        W18741  11.703  14.566  16.609  0.2439  0.0892 -0.0647
 3611W        W18742   0.567  16.442   2.832  0.1007 -0.0987  0.0200
 3612W        W18743  13.808  10.416   4.879 -0.2393 -0.1457  0.1837
 3613W        W18744  14.788   9.464   1.812  0.2295 -0.0190  0.2441
 3614W        W18745   0.693   9.124   4.800  0.3885 -0.1904  0.3343
 3615W        W18746  13.121   6.055  15.011 -0.2535 -0.0809 -0.0805
 3616W        W18747   3.564  17.226   0.617  0.1148  0.1509 -0.1768
 3617W        W18748  15.597  14.748   5.407 -0.0012  0.2302  0.2005
 3618W        W18749   4.318   9.570  13.481 -0.0243  0.1610 -0.0634
 3619W        W18750   7.109  12.553  16.625 -0.2830  0.0213 -0.0632
 3620W        W18751  12.814   7.244   2.815 -0.0321  0.3611 -0.2803
 3621W        W18752   6.084  13.075  16.243 -0.1764 -0.0972  0.0843
 3622W        W18753   3.031   5.467   1.844  0.0629  0.0127  0.1547
 3623W        W18754   7.009  14.413  12.223 -0.1304 -0.0914 -0.1517
 3624W        W18755   8.275   7.270   1.034 -0.2013  0.0459  0.1125
 3625W        W18756  11.928  10.374   4.035  0.2361 -0.0937  0.1180
 3626W        W18757   2.096   1.239  12.606  0.0697 -0.0419 -0.1020
 3627W        W18758   3.654  10.663   5.003  0.3085  0.1037  0.0109
 3628W        W18759   7.569  17.271  16.239  0.3359  0.3188  0.0122
 3629W        W18760   5.988  11.728   3.393  0.0594 -0.0896  0.1673
 3630W        W18761   9.274   5.210   5.467 -0.1740  0.0932  0.0446
 3631W        W18762   1.361   9.916   5.785  0.1902  0.0167 -0.3540
 3632W        W18763   1.021   4.392  12.474  0.1148  0.0331 -0.2466
 3633W        W18764   6.863  10.095   5.507  0.1011 -0.0142  0.0750
 3634W        W18765  12.060   0.943   2.257 -0.0250  0.3089 -0.0211
 3635W        W18766   9.462   3.231   4.851 -0.1492 -0.0887  0.0592
 3636W        W18767   0.049  13.294   4.250 -0.0245 -0.0063  0.1515
 3637W        W18768   0.780   7.154  15.166 -0.1305 -0.1324 -0.0011
 3638W        W18769   7.995  11.316  15.613  0.1481 -0.1126  0.1782
 3639W        W18770  10.927  16.478   5.686  0.1335 -0.1286  0.1148
 3640W        W18771  10.737   9.538   1.808  0.4451 -0.0973  0.2907
 3641W        W18772   6.001   4.024   0.065 -0.0624 -0.1114  0.1383
 3642W        W18773   9.030  13.350  16.259  0.0556  0.0341 -0.4514
 3643W        W18774   4.350   2.111  15.553  0.0212 -0.0961 -0.2324
 3644W        W18775   3.350  17.295   5.384  0.0754  0.1323 -0.2191
 3645W        W18776   5.474   2.045  12.301 -0.0931  0.0461 -0.0184
 3646W        W18777  12.199  10.453   4.679 -0.0507  0.1402 -0.2440
 3647W        W18778   5.969   2.231   5.351  0.0565 -0.2095 -0.0182
 3648W        W18779   6.724  12.271   0.076  0.2152 -0.1269 -0.0990
 3649W        W18780   0.769   2.959   3.970 -0.1892 -0.0094 -0.0677
 3650W        W18781  13.996  11.035   2.554 -0.2961 -0.2308 -0.1774
 3651W        W18782   2.604   5.837  15.760 -0.0282 -0.2760  0.1842
 3652W        W18783   4.040  16.325   2.947 -0.0608  0.1190  0.0604
 3653W        W18784   8.927   9.839   4.122 -0.2960 -0.1677  0.2972
 3654W        W18785  11.148  16.426   2.936 -0.1780  0.2495  0.1300
 3655W        W18786  16.909  12.137   2.554  0.0131  0.3574 -0.0292
 3656W        W18787  17.754   5.784  11.093 -0.0614 -0.1270  0.0774
 3657W        W18788  12.297   3.532  16.109 -0.1472  0.0074 -0.0073
 3658W        W18789   9.959   5.395   2.061  0.1391 -0.0197 -0.1923
 3659W        W18790   7.569   4.984  15.826 -0.0995 -0.1855 -0.1588
 3660W        W18791   3.207   7.604   1.509 -0.2386 -0.1561  0.0871
 3661W        W18792   5.802   4.567  14.062 -0.3110  0.2314  0.1360
 3662W        W18793   3.967   6.390  15.811 -0.0768 -0.1447 -0.2321
 3663W        W18794   5.397  11.435  11.841  0.3285 -0.0529  0.1640
 3664W        W18795   9.347  15.234  15.267 -0.1043  0.0071 -0.0271
 3665W        W18796  17.180  16.857   4.620  0.0262 -0.0066  0.2498
 3666W        W18797   9.388  16.532   5.343 -0.0770 -0.0156  0.1648
 3667W        W18798  16.806  16.106   5.257 -0.2532 -0.2266 -0.1193
 3668W        W18799   7.426  13.703   2.709  0.2787  0.1559 -0.0178
 3669W        W18800   8.374  10.945  15.546 -0.3698  0.2033  0.1183
 3670W        W18801  15.225   2.305   3.464 -0.1141 -0.1049  0.1113
 3671W        W18802   8.769  15.718   1.770  0.3279 -0.2471 -0.0643
 3672W        W18803  12.892   4.172  11.675 -0.2788 -0.2083  0.0116
 3673W        W18804  13.864   6.425   2.865  0.2767  0.2268  0.0252
 3674W        W18805   6.355   8.500  12.051 -0.1305 -0.1488  0.1643
 3675W        W18806  17.069  10.051  13.319  0.1398 -0.2495  0.1699
 3676W        W18807  11.341  16.933  12.421  0.2863  0.0469  0.0682
 3677W        W18808   4.264   7.052   4.351  0.1328  0.1703  0.0693
 3678W        W18809  16.831  14.191  16.559  0.1006  0.0088 -0.3525
 3679W        W18810  14.415  14.823   9.995  0.1131 -0.0228 -0.0175
 3680W        W18811   5.607  11.129  13.496  0.2620  0.2838 -0.0030
 3681W        W18812   1.304  13.220   0.696  0.2086 -0.0866 -0.0381
 3682W        W18813   6.295  11.521  14.573  0.0601  0.0338 -0.2142
 3683W        W18814   0.163   0.090   3.839 -0.1439 -0.1079  0.0096
 3684W        W18815   7.442  12.550  11.971 -0.0462 -0.1163  0.2534
 3685W        W18816  10.403   4.322  11.023  0.1566  0.1089 -0.0207
 3686W        W18817   5.617  10.208   1.794  0.4652  0.1087 -0.0584
 3687W        W18818   6.808   4.331   2.759  0.1273  0.0989 -0.0174
 3688W        W18819   7.377  13.129   5.147  0.3681  0.3262 -0.0530
 3689W        W18820   5.651  15.839   2.283  0.1368  0.2430  0.2649
 3690W        W18821   1.596  10.514   1.649  0.3280  0.0789  0.2395
 3691W        W18822  12.807  14.834   0.063 -0.3602  0.0978  0.0286
 3692W        W18823   3.959  11.815  16.212  0.1070 -0.2809 -0.2743
 3693W        W18824   2.180  14.742  14.595  0.1441  0.1427  0.1483
 3694W        W18825   3.296   7.866   5.080 -0.1575  0.0910 -0.2302
 3695W        W18826   0.470  17.491  13.824  0.0156  0.1607 -0.0761
 3696W        W18827  14.627  10.143   4.777  0.3195  0.2475 -0.0552
 3697W        W18828   5.283  10.287  13.117  0.0106  0.2881  0.2246
 3698W        W18829  10.510  16.359  12.503  0.0568 -0.0926 -0.1480
 3699W        W18830   6.059  15.209   5.182  0.0639  0.0885 -0.1895
 3700W        W18831   7.565  17.036   0.419 -0.0312  0.2628  0.0877
 3701W        W18832  14.360  13.050  12.086 -0.5253 -0.0243  0.4174
 3702W        W18833  17.111  16.562   2.648 -0.4714 -0.0129 -0.1943
 3703W        W18834  17.265  17.373  12.604 -0.1413  0.0162  0.1358
 3704W        W18835  15.626   3.849  14.087 -0.1157 -0.1026 -0.0397
 3705W        W18836   8.788  10.631   2.945  0.1738 -0.0519 -0.1785
 3706W        W18837  14.490   8.885   3.440  0.0279  0.1220  0.0523
 3707W        W18838  12.073   6.283   3.099 -0.0871 -0.0851  0.0361
 3708W        W18839   4.155  16.259   1.467  0.2317 -0.1703 -0.1479
 3709W        W18840   8.885  10.774   2.468  0.1365 -0.0113 -0.1606
 3710W        W18841  16.645   6.706  15.683  0.1119 -0.0363  0.0097
 3711W        W18842   4.546  16.313   4.606 -0.1988  0.0949  0.0875
 3712W        W18843   7.050   5.629  11.143 -0.0639  0.1800 -0.2035
 3713W        W18844  11.802   2.425  15.719  0.1999  0.2137  0.0245
 3714W        W18845   9.832  17.620  15.222 -0.2996  0.1160  0.3273
 3715W        W18846   6.669   8.817   2.126  0.0553  0.0217  0.1564
 3716W        W18847   8.731  13.789  12.444 -0.2825 -0.2365  0.0556
 3717W        W18848   8.867   8.166   3.035 -0.2770  0.2618 -0.0812
 3718W        W18849  17.079  15.239  15.427  0.3119 -0.3926  0.3441
 3719W        W18850   4.781  13.903  15.930 -0.1551  0.1307 -0.0543
 3720W        W18851  12.415  11.075  16.600 -0.3103 -0.1349 -0.1894
 3721W        W18852  11.319   0.277   3.785  0.1435  0.3637 -0.0325
 3722W        W18853   7.298  11.424  16.112  0.2096 -0.2369 -0.0974
 3723W        W18854   1.837  17.083  13.308 -0.0182 -0.2061 -0.4040
 3724W        W18855  10.122   7.501   2.563 -0.0279  0.4359  0.5491
 3725W        W18856   1.922  13.937   0.717 -0.1617 -0.1256 -0.2541
 3726W        W18857   2.339  10.730   4.146 -0.5528  0.2475  0.0758
 3727W        W18858  15.692  11.285   1.239 -0.2627 -0.0173 -0.2296
 3728W        W18859   9.093  12.397   0.716 -0.0083  0.0955 -0.2771
 3729W        W18860   3.855   2.103  12.317 -0.0441 -0.4245  0.2807
 3730W        W18861   1.962   2.223  13.772 -0.0307 -0.2237 -0.1655
 3731W        W18862  11.345   3.691   4.018  0.0873  0.2714  0.1708
 3732W        W18863  12.557   8.422   6.268 -0.3118  0.3062  0.2594
 3733W        W18864   6.178  12.385  14.564 -0.2871 -0.0488  0.4282
 3734W        W18865  13.940   0.776  14.585 -0.0704  0.1026  0.1754
 3735W        W18866  11.286  17.296   2.068 -0.0767  0.1210 -0.0643
 3736W        W18867   7.821   0.031  14.242 -0.0332 -0.0939 -0.1994
 3737W        W18868   8.746  10.856   5.520  0.0444  0.2666  0.0872
 3738W        W18869  11.245  14.945  14.414  0.2160  0.1756 -0.0404
 3739W        W18870  16.773   5.859  14.218 -0.1276 -0.0661  0.1689
 3740W        W18871  13.738   5.305   0.014  0.1183  0.2416 -0.3324
 3741W        W18872   3.832  14.454  15.136 -0.0918  0.0223  0.1622
 3742W        W18873   3.047  13.130   0.927  0.0597  0.3843 -0.0177
 3743W        W18874   9.099   0.002   3.150 -0.2293  0.0457  0.0773
 3744W        W18875   6.429   8.357  16.744 -0.1662 -0.0817  0.1475
 3745W        W18876   0.588   3.399   4.053  0.1569  0.2738  0.0450
 3746W        W18877   7.357  17.282   4.205 -0.1112 -0.1036  0.1537
 3747W        W18878   2.907  17.249   3.576 -0.0296  0.3240  0.1895
 3748W        W18879  15.437  11.680  12.642 -0.0760  0.0346 -0.5365
 3749W        W18880  17.368   4.804  15.083  0.0002 -0.1572 -0.1424
 3750W        W18881  13.503  11.878  16.609  0.1545 -0.2027  0.0044
 3751W        W18882   4.658  17.457  10.818  0.0972  0.3241 -0.3332
 3752W        W18883  10.777   1.379   3.939  0.0066  0.1798  0.1016
 3753W        W18884   7.735  12.589   3.102  0.0817 -0.2646  0.0953
 3754W        W18885  10.239   1.616   5.338  0.2799 -0.0376  0.0470
 3755W        W18886   0.265   2.602  16.504  0.0102 -0.2401  0.3787
 3756W        W18887  16.139   9.303   2.401 -0.0326  0.1760  0.0069
 3757W        W18888   8.720   8.081  11.145 -0.1030  0.1618  0.2159
 3758W        W18889  16.254   7.776  11.548  0.2243  0.2635  0.2116
 3759W        W18890   3.408   3.509  16.125  0.0779  0.2887 -0.0600
 3760W        W18891  14.924  11.279  13.191 -0.1065  0.2592 -0.1344
 3761W        W18892   5.142   6.791  11.786  0.1327 -0.1062  0.3204
 3762W        W18893   5.532   6.079   3.944  0.0458  0.0164 -0.1960
 3763W        W18894   4.028   6.376   2.597  0.1386 -0.3456 -0.1148
 3764W        W18895   9.540   0.040   4.284  0.3681 -0.0281 -0.4750
 3765W        W18896   1.087   5.045  14.067  0.2357 -0.1440  0.0062
 3766W        W18897  16.853  10.144   4.798  0.0491  0.3692 -0.2764
 3767W        W18898  17.487   6.375   4.695  0.1241 -0.1044  0.1903
 3768W        W18899   2.436   4.138   4.879  0.0157  0.0641  0.0332
 3769W        W18900  11.736  10.583  15.704  0.1199 -0.2320 -0.2091
 3770W        W18901  11.676  10.867   3.377 -0.1058 -0.2526 -0.0221
 3771W        W18902  17.872  14.539  12.828 -0.2150  0.0029 -0.0809
 3772W        W18903   0.565  11.442   4.998 -0.0979  0.0470 -0.0943
 3773W        W18904  10.775   8.334  12.212 -0.0048 -0.1972  0.2188
 3774W        W18905   5.112   9.272  12.787 -0.0462 -0.2148  0.0400
 3775W        W18906  17.322  13.913   5.548  0.0206 -0.1227 -0.0894
 3776W        W18907  17.643  17.853   4.682  0.0051  0.0793  0.0242
 3777W        W18908   5.366   7.674   2.788 -0.0260 -0.1623  0.0055
 3778W        W18909   0.884   4.992   2.034 -0.0868  0.0340  0.1832
 3779W        W18910  15.261   7.091  11.496 -0.3527 -0.0463  0.0369
 3780W        W18911   7.668   8.314  12.939 -0.1509  0.1684 -0.1632
 3781W        W18912   7.266   6.439  12.345  0.1417  0.4421 -0.0741
 3782W        W18913   9.579   6.265   4.171  0.0478 -0.3531 -0.0439
 3783W        W18914  12.705  12.410   3.258  0.1662  0.2744 -0.0626
 3784W        W18915  13.618   0.823   4.334  0.0843  0.2061 -0.3282
 3785W        W18916   0.202  16.531  13.494  0.0743 -0.2523  0.2649
 3786W        W18917   7.123   0.109  14.095 -0.0287  0.0681 -0.0763
 3787W        W18918   9.986  11.780   4.485 -0.2379 -0.1358  0.0038
 3788W        W18919  14.432  11.692  15.716 -0.3348  0.0577  0.0824
 3789W        W18920  15.286  12.535   1.162 -0.2013  0.2175 -0.2768
 3790W        W18921  14.270   6.606   3.923 -0.0968  0.0586 -0.1810
 3791W        W18922   6.229   9.238   0.022  0.2983 -0.1023 -0.2250
 3792W        W18923  15.537  10.013   2.250  0.0797  0.1497  0.1056
 3793W        W18924  15.403   2.672  16.538 -0.0265 -0.2201 -0.0014
 3794W        W18925   1.612  14.202  11.308  0.1690  0.4363  0.1105
 3795W        W18926  10.706  11.662  14.339 -0.1186 -0.1363 -0.2340
 3796W        W18927  12.854  15.014   3.968  0.0248 -0.0869 -0.0736
 3797W        W18928  16.816   2.108  11.846 -0.3038  0.0987  0.1567
 3798W        W18929   0.328   9.003   5.162  0.0124  0.1795  0.2097
 3799W        W18930  12.260   5.488   2.122 -0.0462  0.1575 -0.3518
 3800W        W18931  14.510  15.075  10.410 -0.2785 -0.1889  0.0999
 3801W        W18932   6.438   2.113  11.234 -0.0308  0.1624 -0.0593
 3802W        W18933  17.613  10.430   0.450  0.1843 -0.2244  0.1906
 3803W        W18934   8.090  13.826  11.815 -0.0353 -0.1126 -0.1608
 3804W        W18935   4.760  12.440   2.762 -0.1662  0.1367  0.1486
 3805W        W18936   7.120   9.485  16.744  0.0095  0.0265 -0.0745
 3806W        W18937  17.619  10.209  14.142 -0.0255  0.2136 -0.1669
 3807W        W18938   3.956  15.968   2.033  0.4149 -0.0132  0.0429
 3808W        W18939  16.800   7.642   4.392 -0.1785 -0.4278  0.2106
 3809W        W18940  11.094  15.055  16.664 -0.1844  0.2595  0.0477
 3810W        W18941   9.863   7.586   2.137 -0.0015  0.2115  0.0939
 3811W        W18942   1.665  10.725  13.118 -0.1177 -0.3925 -0.2067
 3812W        W18943  11.420  11.531  15.496 -0.0958 -0.1039  0.1763
 3813W        W18944   9.158   0.487   3.048 -0.0015 -0.0538 -0.1428
 3814W        W18945   1.382  15.360   5.536  0.1586  0.0966 -0.0813
 3815W        W18946  15.916  16.954  15.346  0.2939 -0.0994 -0.0080
 3816W        W18947   3.010   9.589   2.049  0.0876 -0.0243 -0.3439
 3817W        W18948  17.814   0.684  12.071  0.0302  0.0291  0.0373
 3818W        W18949   0.434   6.321   2.879 -0.0618 -0.3312 -0.0947
 3819W        W18950  11.708   3.933   5.287  0.2138  0.0338  0.1448
 3820W        W18951   3.236   0.214   1.816  0.0973  0.0919  0.2174
 3821W        W18952   2.613  11.263  15.530  0.2761  0.3139 -0.2838
 3822W        W18953  10.850   4.574   3.463  0.1241 -0.2323  0.1852
 3823W        W18954   4.315   4.084   3.214 -0.0839  0.0294  0.2603
 3824W        W18955  10.449   7.786  12.653  0.0215  0.1120  0.1121
 3825W        W18956  13.475   6.100   2.102 -0.0973  0.0535  0.0507
 3826W        W18957   9.824  10.806  11.765  0.1537  0.1981  0.3525
 3827W        W18958   4.982  16.319  14.653 -0.1287  0.0436  0.2049
 3828W        W18959   5.294   4.543   0.714 -0.1768  0.3129  0.0197
 3829W        W18960  12.727  13.434  11.613 -0.1244  0.2507  0.1429
 3830W        W18961  13.615  12.715   3.704 -0.0250  0.0314 -0.3506
 3831W        W18962  17.296  11.580  11.263  0.0498  0.1101 -0.4988
 3832W        W18963   6.868   7.720   1.235 -0.2628 -0.2043 -0.1423
 3833W        W18964  15.039   3.309  13.164 -0.0822 -0.0444 -0.0843
 3834W        W18965  14.913   1.083   4.422 -0.1070  0.2025 -0.0896
 3835W        W18966   7.424   8.501   3.190  0.0789  0.2433  0.4058
 3836W        W18967   6.167  17.354   4.704  0.2135 -0.0298  0.0630
 3837W        W18968   3.663  17.860   4.954 -0.1452 -0.3389 -0.1296
 3838W        W18969  13.206   4.514   2.326  0.1469 -0.2339 -0.0068
 3839W        W18970   2.552  16.365   2.955 -0.0962 -0.0441 -0.2133
 3840W        W18971   5.696   5.062  16.319  0.0097 -0.2416 -0.1437
 3841W        W18972   9.614  15.161  16.252 -0.1911  0.2171 -0.2058
 3842W        W18973   5.977  16.591   3.563 -0.0876 -0.3798 -0.0489
 3843W        W18974   0.282   8.924   3.276 -0.1334 -0.1951  0.2480
 3844W        W18975   4.380  12.329   4.061 -0.0537  0.0174  0.0456
 3845W        W18976   5.356  15.833  13.595  0.0553 -0.0960 -0.3589
 3846W        W18977   0.913  16.992  13.819  0.0061  0.2180  0.1379
 3847W        W18978  10.299  15.499  16.139  0.1331 -0.0905 -0.1870
 3848W        W18979   8.394   8.367   2.179  0.0347 -0.0578 -0.0972
 3849W        W18980   8.227  13.734  13.364  0.2068 -0.0354 -0.0626
 3850W        W18981   0.538  12.132  16.296 -0.2516  0.0860 -0.0799
 3851W        W18982   7.094   7.809  14.043 -0.0891 -0.0890 -0.3101
 3852W        W18983  16.692   3.672  14.391  0.0790 -0.0847  0.0267
 3853W        W18984   4.677  15.989   5.474  0.0377  0.1476  0.1814
 3854W        W18985  15.828   3.076  13.611  0.0335 -0.1054 -0.0422
 3855W        W18986  16.852   4.051  11.339 -0.0529 -0.1138  0.0622
 3856W        W18987  12.394  17.297  11.359  0.0712 -0.1069  0.2411
 3857W        W18988  10.283   4.224   0.014 -0.1492 -0.1027 -0.2411
 3858W        W18989   4.810  10.867  11.446  0.0382  0.2759 -0.2263
 3859W        W18990   5.613   4.534  10.859  0.2302 -0.1500 -0.2062
 3860W        W18991   8.212   0.618  14.703  0.1336 -0.3975  0.2765
 3861W        W18992   2.876  11.147  15.937 -0.0814  0.2613 -0.1920
 3862W        W18993  11.639  15.760  12.188 -0.0536 -0.1530 -0.1114
 3863W        W18994  15.374  17.083   2.616  0.4942  0.0313  0.1365
 3864W        W18995   8.763   3.972   0.357 -0.0283  0.0073  0.1056
 3865W        W18996  13.950   2.222   3.867 -0.1530 -0.1722  0.0706
 3866W        W18997  13.517  11.222   5.826  0.0903 -0.1012 -0.0517
 3867W        W18998   2.859   1.923  12.707  0.0257  0.0855  0.2249
 3868W        W18999  16.309   0.173   0.381 -0.1319 -0.1352  0.0649
 3869W        W19000   5.513   6.851   5.486  0.0605 -0.1234 -0.1245
 3870W        W19001  10.204   3.787   2.432  0.0998 -0.0528  0.0414
 3871W        W19002  10.017   6.280   1.819 -0.1854  0.0024  0.1471
 3872W        W19003  10.872   5.151   4.834 -0.2978 -0.0779  0.0311
 3873W        W19004   0.922   6.512   3.362  0.1842 -0.1212  0.2848
 3874W        W19005  13.808   9.575   2.134  0.1328  0.0439  0.0808
 3875W        W19006  13.187   3.726  15.939  0.2546  0.1840 -0.2575
 3876W        W19007   9.454  12.073   2.198  0.1144 -0.0743  0.0468
 3877W        W19008   5.056  12.681  16.117  0.0434  0.0913 -0.2134
 3878W        W19009   0.284  11.760  12.101  0.0263  0.0889  0.0489
 3879W        W19010  17.044  15.283   1.180 -0.0114 -0.0730  0.1213
 3880W        W19011  13.700   5.816   0.698  0.0716 -0.0132  0.0289
 3881W        W19012  11.303   0.976  12.354 -0.1966  0.0936 -0.2001
 3882W        W19013   6.577  11.315  12.558 -0.2915 -0.0828 -0.0744
 3883W        W19014   3.590  10.167  10.962 -0.1506 -0.1242 -0.0249
 3884W        W19015   8.046  16.061   0.667 -0.0117 -0.1802 -0.1299
 3885W        W19016  13.586  14.629  13.956  0.0805  0.3353 -0.0558
 3886W        W19017  14.114   8.154  16.352 -0.1750 -0.1982  0.0130
 3887W        W19018  12.844   8.640   3.887 -0.2132  0.0270 -0.1680
 3888W        W19019   7.549   6.077  14.169  0.3762 -0.2604  0.1223
 3889W        W19020   4.017  11.638   5.128  0.1845 -0.1234 -0.2257
 3890W        W19021  13.571   3.427  15.742  0.0887 -0.0881 -0.1764
 3891W        W19022  13.716  17.001   4.826  0.0772  0.0758  0.1506
 3892W        W19023  13.958  16.125  10.947 -0.2715  0.0547  0.0252
 3893W        W19024   0.842   1.378   5.245 -0.1461  0.0571 -0.1977
 3894W        W19025   8.805   5.835   4.418 -0.0664 -0.1683  0.3925
 3895W        W19026  17.700   6.653   0.764  0.0376 -0.1496 -0.0878
 3896W        W19027  13.397   3.770  14.498 -0.0038  0.0197 -0.2749
 3897W        W19028  11.899   8.516  16.221 -0.4619 -0.0313 -0.1995
 3898W        W19029  13.127  15.247   4.841 -0.0051 -0.1975 -0.1908
 3899W        W19030   2.233   5.638  13.380 -0.2514  0.1351  0.0415
 3900W        W19031  14.852   9.579   4.886  0.1811  0.3105 -0.0620
 3901W        W19032   6.426   5.047   2.392 -0.1579 -0.1140 -0.1612
 3902W        W19033  11.884   2.775   3.744 -0.0722 -0.0571 -0.2688
 3903W        W19034   4.246  14.535  14.755  0.1822  0.0735 -0.1981
 3904W        W19035  16.422   2.385   4.330 -0.0356 -0.1055 -0.0325
 3905W        W19036   3.216  13.757   2.448 -0.0681  0.2054 -0.1938
 3906W        W19037  16.979   4.812  16.273  0.2752 -0.2884  0.1358
 3907W        W19038  14.569  17.313   4.537  0.1081 -0.0317 -0.1427
 3908W        W19039   3.444  15.505   1.216 -0.0043 -0.0606 -0.2054
 3909W        W19040  12.807  10.353  13.860 -0.0870  0.1316 -0.2802
 3910W        W19041  14.324   3.193   5.405  0.0119  0.0932 -0.0294
 3911W        W19042   3.883   7.357  13.928 -0.4509 -0.0749  0.0712
 3912W        W19043   2.766   7.855  13.793  0.0009  0.2231  0.1240
 3913W        W19044  16.818  11.876   3.879 -0.0802  0.0322 -0.2395
 3914W        W19045   7.794   9.201  15.869  0.0213  0.1515 -0.0572
 3915W        W19046  14.619  17.717  12.274  0.2726 -0.1788  0.0493
 3916W        W19047  16.358   3.619   2.862 -0.2770 -0.0174 -0.1987
 3917W        W19048  10.649  15.041   1.230  0.1322  0.0451  0.0953
 3918W        W19049  17.363  15.492  12.749 -0.1282  0.0956 -0.4565
 3919W        W19050  14.921   8.732   3.242 -0.3227  0.1462  0.2101
 3920W        W19051   5.067  15.717   5.362  0.0888  0.1963 -0.0954
 3921W        W19052  10.859   3.498  11.937 -0.0882  0.0327 -0.0504
 3922W        W19053   7.189  10.189  12.166  0.0016  0.1477  0.0829
 3923W        W19054  17.242   7.105  12.418  0.0533 -0.0224 -0.1424
 3924W        W19055   8.096   8.193   6.249 -0.0269 -0.3888 -0.0125
 3925W        W19056   3.681  11.367  16.194  0.4425 -0.0666 -0.1331
 3926W        W19057   9.895  11.106   2.752 -0.0539 -0.0663  0.0048
 3927W        W19058   3.426   6.671   4.369  0.2162 -0.1018 -0.0084
 3928W        W19059   5.240   0.054   5.234  0.0719  0.2644  0.1061
 3929W        W19060   3.706   8.517   5.424  0.1641  0.0172 -0.3330
 3930W        W19061   6.814  11.303  14.469  0.0987 -0.0289 -0.1835
 3931W        W19062   4.812   1.597   1.161 -0.0940 -0.0205  0.0423
 3932W        W19063   3.187   2.137   2.085 -0.1532 -0.1727 -0.0519
 3933W        W19064  10.662  14.128  13.064 -0.0381  0.0155  0.1640
 3934W        W19065   5.596  10.546  15.843 -0.2825 -0.0705 -0.4144
 3935W        W19066   5.466  11.778  15.057 -0.1018 -0.1271 -0.4405
 3936W        W19067   2.744  12.558  11.412  0.0795 -0.3157  0.1302
 3937W        W19068  10.596   8.793   5.299  0.1031  0.1092 -0.1261
 3938W        W19069   5.123  13.797   2.111 -0.0840  0.0228  0.0160
 3939W        W19070  14.391  12.100  11.122  0.0395 -0.1106  0.0408
 3940W        W19071   0.634   4.660  15.506  0.1185 -0.1108 -0.0596
 3941W        W19072  11.196  14.020   2.262  0.1521 -0.2906  0.3203
 3942W        W19073  13.371  16.224   4.061 -0.0535 -0.0186 -0.2572
 3943W        W19074  10.298   8.036   0.916 -0.1261  0.2050  0.0393
 3944W        W19075  16.987   5.822   1.671  0.1866 -0.2630  0.0950
 3945W        W19076   2.692   2.899   0.573  0.2730  0.1517  0.2474
 3946W        W19077  16.624   5.371   1.201 -0.1123 -0.0121 -0.0497
 3947W        W19078   0.087  14.499  14.355 -0.0505  0.3058 -0.1585
 3948W        W19079  17.500   8.076  12.790  0.4171 -0.2121 -0.0567
 3949W        W19080  11.437   0.424  12.295 -0.0791  0.2131 -0.0107
 3950W        W19081   3.846  10.145  16.619  0.4567  0.0034  0.1812
 3951W        W19082   0.871   8.827   3.855  0.3610  0.1782 -0.0106
 3952W        W19083   9.004   5.708   0.588  0.0563  0.3082  0.1763
 3953W        W19084   8.305   8.554   5.274  0.2821 -0.0246 -0.1229
 3954W        W19085  11.872   7.609  10.684 -0.0358  0.0836  0.1901
 3955W        W19086  10.315  11.866   0.147  0.0293 -0.2876 -0.0457
 3956W        W19087  15.683  16.157   3.600 -0.1382  0.0955 -0.1745
 3957W        W19088  17.000   3.011  13.840  0.2214 -0.1657 -0.2255
 3958W        W19089   9.315   6.775   0.140 -0.1708  0.0354  0.1669
 3959W        W19090  11.946   0.306  15.818  0.0407 -0.0293  0.1566
 3960W        W19091  11.847  11.115  16.535 -0.2194 -0.2401 -0.2422
 3961W        W19092  15.108   3.758  10.821  0.1744 -0.1766 -0.0809
 3962W        W19093   9.065   7.816   3.400  0.0592 -0.0329 -0.0416
 3963W        W19094  11.144   3.857   4.533  0.0337 -0.2436 -0.4709
 3964W        W19095  11.378  13.128   3.027 -0.1024 -0.0677 -0.0211
 3965W        W19096  12.179  13.285  12.460 -0.1851  0.0120 -0.1693
 3966W        W19097   6.148  16.490  14.657  0.1301  0.2774 -0.3439
 3967W        W19098  16.469   3.523   3.932 -0.0500  0.1783  0.3146
 3968W        W19099   5.743  15.112   1.273  0.1059 -0.1119 -0.0878
 3969W        W19100  13.559  13.749  12.201 -0.1601  0.2197  0.0185
 3970W        W19101   3.568   6.324  12.504  0.0113 -0.0327 -0.2745
 3971W        W19102   6.072   3.567   2.619 -0.3811  0.2598  0.1347
 3972W        W19103   1.693  14.435   4.292  0.1198 -0.1537 -0.2363
 3973W        W19104  17.478  14.161   0.789 -0.0818  0.1320  0.3521
 3974W        W19105  13.689   8.329   4.314  0.0584  0.0602  0.3032
 3975W        W19106   5.730  14.697   4.040  0.0663 -0.1229  0.2003
 3976W        W19107   6.028  13.784   3.017  0.0225  0.1058 -0.0140
 3977W        W19108  10.008  17.224   4.187 -0.1774  0.1202  0.2330
 3978W        W19109   0.425  17.358  11.749  0.0408 -0.0398 -0.0918
 3979W        W19110   1.720  10.024   3.327 -0.1174 -0.1471 -0.0293
 3980W        W19111   0.063  10.525   1.262 -0.0378 -0.1588 -0.1530
 3981W        W19112   7.581  13.565  15.751  0.0750  0.0609  0.0716
 3982W        W19113   1.208   6.762   1.214  0.2480 -0.0226  0.1266
 3983W        W19114   4.699  13.492  11.570 -0.0039  0.1651  0.1954
 3984W        W19115   4.514  17.037  11.031 -0.0961  0.0468 -0.2503
 3985W        W19116  13.649  16.717   0.619 -0.3098  0.5803  0.2081
 3986W        W19117   2.810   7.046  15.161  0.2495 -0.2004 -0.0703
 3987W        W19118   1.256   4.188  12.851 -0.2597 -0.1850 -0.1842
 3988W        W19119   3.207  13.947   4.246  0.1858 -0.0313 -0.0900
 3989W        W19120   9.658   7.097   1.452  0.0881 -0.1095  0.0466
 3990W        W19121   2.004   5.403   5.099 -0.1891  0.0773 -0.0069
 3991W        W19122   5.527   1.614  14.007  0.1128 -0.0247 -0.0564
 3992W        W19123   6.088  16.757   5.023  0.1348 -0.0568 -0.1485
 3993W        W19124   5.641   5.567  13.777  0.1831  0.0199  0.1890
 3994W        W19125  10.089   5.479  14.314  0.0716 -0.1594  0.0037
 3995W        W19126  15.311   3.162   1.016  0.0037  0.0785 -0.0755
 3996W        W19127   2.298  13.097  15.750  0.0241  0.1544 -0.3218
 3997W        W19128  13.770   3.456  14.299 -0.1923  0.0687  0.1693
 3998W        W19129  14.445  15.966   2.426  0.0781  0.3023  0.2133
 3999W        W19130  13.389  13.666  16.570 -0.0491 -0.2951  0.1234
 4000W        W19131   9.492   5.404   5.871 -0.0074  0.0474 -0.1279
 4001W        W19132   5.029   9.447   6.237 -0.2020 -0.1535  0.1230
 4002W        W19133  13.421  17.460  10.504  0.1285 -0.2311 -0.4507
 4003W        W19134   2.042   4.169  15.298  0.0181  0.2978 -0.1367
 4004W        W19135  17.731   3.973   0.762 -0.0350 -0.2856 -0.0494
 4005W        W19136  13.015   4.146   4.456 -0.0126  0.2450 -0.4170
 4006W        W19137   1.493  12.913  14.644 -0.4851 -0.0012 -0.2686
 4007W        W19138   7.685  13.443   4.164  0.1068  0.0991 -0.0786
 4008W        W19139  11.233  17.711   1.715  0.0107 -0.1872 -0.2360
 4009W        W19140  14.770   1.588   4.694 -0.1090  0.0286 -0.3827
 4010W        W19141   6.546  10.499   0.500  0.0986  0.0838 -0.0262
 4011W        W19142   9.295   4.459   3.059  0.1425  0.4173  0.0698
 4012W        W19143   5.824   7.617  12.776 -0.2914  0.0325 -0.1917
 4013W        W19144  12.646  11.283  11.172  0.2055  0.0459  0.3026
 4014W        W19145  11.191   2.795   2.993 -0.3380 -0.0432  0.0925
 4015W        W19146  17.519  16.712   5.417  0.4369 -0.0188 -0.0063
 4016W        W19147   1.664   4.607  11.920  0.0036 -0.0051 -0.0073
 4017W        W19148   1.581  16.189   3.327  0.0968  0.2055 -0.2374
 4018W        W19149  14.392   5.224  12.956  0.1077  0.1936  0.2325
 4019W        W19150   1.973   2.642   0.832  0.0369  0.0604 -0.0392
 4020W        W19151  10.527   2.214  15.686  0.2411  0.0307  0.1651
 4021W        W19152   1.385  11.785  15.934 -0.0385 -0.3924  0.1098
 4022W        W19153   3.614  14.291   3.559  0.0648  0.0913  0.1177
 4023W        W19154   2.034  15.690  14.553  0.0888 -0.1050 -0.1507
 4024W        W19155  11.417   1.299   1.141 -0.3140  0.2757 -0.0748
 4025W        W19156  10.645   6.403   6.545 -0.0610 -0.2358 -0.0434
 4026W        W19157   1.628   7.946   3.703 -0.4189  0.1480 -0.0460
 4027W        W19158  15.601   1.398  11.968  0.1025  0.2209  0.1106
 4028W        W19159   9.197   9.166   3.569 -0.2054 -0.2359  0.3756
 4029W        W19160   9.362  13.400   0.541  0.2079 -0.2832  0.1097
 4030W        W19161  14.773  13.882  14.492 -0.2762  0.0338  0.3585
 4031W        W19162   3.155  13.058  15.031  0.0019 -0.0120 -0.1597
 4032W        W19163  13.417  15.202  15.668  0.1525  0.2441 -0.2491
 4033W        W19164  15.043  14.344   4.414 -0.0325 -0.2563 -0.0589
 4034W        W19165  14.120  16.946   1.688 -0.2183 -0.1684 -0.2874
 4035W        W19166   6.704   6.618  16.026  0.0764 -0.1401  0.1358
 4036W        W19167   2.728  17.466   5.376 -0.1890 -0.2550 -0.1809
 4037W        W19168  12.704   6.501   0.781 -0.0617 -0.0178  0.0690
 4038W        W19169   9.812   6.220  10.592 -0.1558 -0.1973 -0.1688
 4039W        W19170  10.232   3.878  11.276 -0.1025 -0.4775  0.0407
 4040W        W19171   8.320   5.649   3.863  0.3137 -0.0345 -0.1582
 4041W        W19172  14.329  11.199  15.260  0.3002 -0.2376 -0.0407
 4042W        W19173  17.267   1.788   1.884  0.1947 -0.0764  0.0737
 4043W        W19174  13.552  15.715   3.045  0.1951 -0.4199  0.0199
 4044W        W19175  11.883   4.825   2.365 -0.2156  0.1910 -0.1233
 4045W        W19176   7.169  17.491  14.825  0.0884 -0.1703  0.2490
 4046W        W19177   0.913  17.187   3.419  0.0213  0.0306  0.2048
 4047W        W19178   0.102   2.699   2.605 -0.1950 -0.0474  0.0321
 4048W        W19179  14.437   2.580  10.837 -0.0965 -0.0807 -0.2000
 4049W        W19180   2.933  16.161   3.858 -0.0312  0.3306 -0.0260
 4050W        W19181  17.616   8.148   0.541  0.2136  0.1476  0.1896
 4051W        W19182  11.923  14.310  13.534  0.2684 -0.2253  0.1860
 4052W        W19183   2.536   3.147   2.312 -0.3040  0.2864  0.0660
 4053W        W19184  11.155   8.640  12.448 -0.0290  0.5087  0.1126
 4054W        W19185  13.581   4.917   4.585 -0.3831 -0.5097 -0.0668
 4055W        W19186  14.559   8.954  11.126  0.0863 -0.0599  0.0582
 4056W        W19187  17.312  13.960   2.380  0.0288 -0.1378 -0.1646
 4057W        W19188  11.568   1.449  15.462  0.0261 -0.1026 -0.4604
 4058W        W19189  11.198   5.578   2.038  0.0577 -0.0384  0.1169
 4059W        W19190  10.954  11.629  11.507  0.0804  0.3099  0.0675
 4060W        W19191   6.212   7.604  13.638 -0.1208 -0.1218  0.1123
 4061W        W19192   3.716   2.411  15.765  0.0045  0.0087  0.0283
 4062W        W19193  17.627  12.336   2.880  0.0725  0.1734 -0.1406
 4063W        W19194  16.670  17.472   1.521  0.0640 -0.1303 -0.2168
 4064W        W19195   2.371  16.322  15.393  0.1121  0.1976 -0.2062
 4065W        W19196  16.538  17.718   3.714 -0.0861 -0.1281 -0.0920
 4066W        W19197   6.836  15.562  15.504 -0.2822  0.0100 -0.1384
 4067W        W19198   0.486   2.374   0.183 -0.2988 -0.0105  0.0678
 4068W        W19199  10.642   3.640   1.498 -0.2170 -0.1497  0.4290
 4069W        W19200  13.769  14.910  15.947  0.0150  0.2078  0.1131
 4070W        W19201   2.878  10.166   2.046  0.0562 -0.0360 -0.2531
 4071W        W19202   4.452   7.156  13.700  0.1075  0.2431  0.0609
 4072W        W19203   8.698  13.272  11.822  0.1305 -0.2033 -0.0026
 4073W        W19204  13.765  14.155  13.140  0.3051 -0.1305 -0.2109
 4074W        W19205   1.615   8.969   3.143 -0.0275  0.1161 -0.0494
 4075W        W19206  13.693  11.159   5.330 -0.0227  0.3201 -0.0083
 4076W        W19207  14.542  13.322  13.268  0.0618 -0.0930  0.0438
 4077W        W19208  13.380   4.696   1.875 -0.1048 -0.2503 -0.1713
 4078W        W19209   4.177   4.600   3.306 -0.0165 -0.1799 -0.1901
 4079W        W19210  16.796   1.753   3.958 -0.0711 -0.1796  0.0683
 4080W        W19211  13.557  10.245  13.460 -0.1371  0.3009  0.3419
 4081W        W19212  10.023  12.355   5.091  0.0735  0.0211 -0.2194
 4082W        W19213   9.529   8.554  15.128 -0.4643  0.0614 -0.1671
 4083W        W19214  15.084   1.996   0.971  0.2480 -0.1242 -0.1157
 4084W        W19215   7.557   3.352  11.920  0.1156 -0.0306 -0.0895
 4085W        W19216   9.155  17.491  11.989 -0.1410  0.1390 -0.1521
 4086W        W19217  16.624   1.899  10.922 -0.0569  0.1454 -0.0663
 4087W        W19218  15.793  14.329   1.669  0.0013  0.0487 -0.0495
 4088W        W19219  15.922  16.478  15.707 -0.0217 -0.2929 -0.1236
 4089W        W19220  11.878  11.134  13.322 -0.2779  0.0696 -0.1361
 4090W        W19221   3.759  10.128  15.620  0.1266  0.2432 -0.0417
 4091W        W19222   3.111   7.259  14.482  0.0540  0.0403  0.1886
 4092W        W19223  12.122  14.687   3.603  0.0397 -0.3836  0.2210
 4093W        W19224   5.479   0.578  14.089  0.0707  0.1424 -0.2699
 4094W        W19225   7.477  17.724   3.225  0.2127 -0.2281 -0.0838
 4095W        W19226   3.320   5.388   5.993 -0.1049  0.0394 -0.0346
 4096W        W19227   5.062   8.747  16.185  0.0249  0.1397 -0.0262
 4097W        W19228   4.127  12.129   0.514  0.0668 -0.1544  0.1844
 4098W        W19229  12.147   1.708  13.016 -0.1270  0.0128  0.0347
 4099W        W19230   4.759   8.840  14.459  0.0792 -0.1307  0.2571
 4100W        W19231   2.922   7.651   3.430 -0.0077 -0.0043  0.1011
 4101W        W19232   8.747  16.485   0.012  0.0769 -0.4432  0.0645
 4102W        W19233  10.782   1.717  11.034 -0.0136  0.2006  0.1401
 4103W        W19234  12.664   5.271  12.252 -0.1922  0.1173 -0.1812
 4104W        W19235   4.587   0.465  12.456  0.2309  0.0874  0.0678
 4105W        W19236  12.631   8.739   1.334  0.2508 -0.0292 -0.1873
 4106W        W19237  16.740  11.605  15.293  0.3957  0.0463  0.1160
 4107W        W19238  13.041  14.183  11.027  0.1959 -0.4126 -0.1232
 4108W        W19239  12.852   9.602   5.495  0.0684  0.0569  0.0216
 4109W        W19240  12.511  11.487   1.844 -0.3932 -0.1362  0.0866
 4110W        W19241  11.737   5.370  15.030  0.0825  0.0532  0.1875
 4111W        W19242  14.875   9.701   1.125 -0.0565  0.0097  0.4039
 4112W        W19243   5.166   2.325  16.562 -0.0543  0.2935  0.2248
 4113W        W19244   4.744   0.153   1.746 -0.0260 -0.2564 -0.0447
 4114W        W19245   6.213   7.142   1.180  0.2033  0.0066  0.1467
 4115W        W19246  11.859   4.365  11.790 -0.0962  0.2357  0.1523
 4116W        W19247   5.917  17.834   1.468  0.1052 -0.0932 -0.0873
 4117W        W19248   9.555   4.921   0.854  0.2736  0.0540 -0.4698
 4118W        W19249   0.982  10.695  11.699  0.0165  0.1658  0.0488
 4119W        W19250   0.687   5.771  13.136  0.1560 -0.2017  0.0847
 4120W        W19251   2.055  16.597  14.436 -0.0254  0.1216  0.1175
 4121W        W19252  11.848  16.982   4.060 -0.1075  0.1689 -0.1497
 4122W        W19253   5.608   1.754   0.997  0.0548  0.0694  0.2085
 4123W        W19254  13.268  13.275  16.137  0.0683 -0.0492 -0.1559
 4124W        W19255   2.183   4.406   2.210 -0.3346  0.0003  0.1970
 4125W        W19256   4.828   3.626  14.345  0.0933 -0.1562  0.2387
 4126W        W19257   2.292  12.570  14.115  0.2339  0.0600 -0.0458
 4127W        W19258  17.687   1.818   3.605  0.4279  0.3233 -0.0723
 4128W        W19259  15.725   0.142  16.209 -0.0144  0.0784  0.0020
 4129W        W19260   1.168   7.684   5.063 -0.4657 -0.2117  0.0400
 4130W        W19261   5.678  17.580   0.388 -0.0954  0.1564  0.0062
 4131W        W19262   3.810   1.647   5.184 -0.0799  0.1814  0.0792
 4132W        W19263  10.094  17.298  15.518 -0.1600 -0.2062 -0.1022
 4133W        W19264   5.130  13.751   4.575 -0.1631  0.0389  0.2038
 4134W        W19265   2.005  11.329   3.485  0.0263  0.2566 -0.0093
 4135W        W19266   0.473  10.385  15.314 -0.1553  0.3914  0.1047
 4136W        W19267   6.619  13.175   2.030 -0.3915  0.0755 -0.1857
 4137W        W19268  12.900   7.547   1.847 -0.3275 -0.1360 -0.1904
 4138W        W19269   3.809  15.548  12.703 -0.1233  0.0001 -0.0164
 4139W        W19270   7.499  15.081  16.697 -0.1841 -0.1573 -0.0074
 4140W        W19271   3.288  14.684  14.475 -0.2819 -0.1988 -0.3945
 4141W        W19272   5.974   0.473  16.653 -0.0541 -0.1029 -0.0592
 4142W        W19273   7.927  14.631  15.798 -0.2018  0.1855  0.0076
 4143W        W19274  13.906   5.776  11.720  0.2526  0.1112 -0.1694
 4144W        W19275   9.891  17.594  11.322 -0.0992 -0.2993  0.0772
 4145W        W19276   0.512   1.006   1.520 -0.2593  0.0378 -0.0118
 4146W        W19277   1.284   8.195  10.350  0.4201 -0.1716 -0.2277
 4147W        W19278   3.906  14.136  16.739  0.1737 -0.1516 -0.0368
 4148W        W19279  16.234  10.743  15.082  0.2980  0.5070  0.0870
 4149W        W19280  11.392  13.141   0.225  0.1466  0.1650 -0.2778
 4150W        W19281   6.266   9.362   5.913 -0.0183 -0.0549  0.0648
 4151W        W19282  13.507   3.828   2.090 -0.2408  0.1469 -0.1481
 4152W        W19283   1.351   6.878  11.936  0.1832  0.1587  0.1208
 4153W        W19284   4.744   3.064  13.431 -0.4842 -0.0941  0.3035
 4154W        W19285  13.128   7.173   3.606  0.2199  0.2355 -0.0318
 4155W        W19286   5.912   1.775   2.457 -0.0696  0.0057 -0.0233
 4156W        W19287  10.817   3.223   1.274 -0.2991 -0.1694  0.2773
 4157W        W19288  16.847  13.071   3.387  0.1681 -0.1452 -0.0871
 4158W        W19289   4.938   4.044  13.309  0.0361  0.0472 -0.2486
 4159W        W19290  14.571   7.285   2.618 -0.4561 -0.1453 -0.1150
 4160W        W19291   5.922  16.308   2.164 -0.1457  0.0191  0.0534
 4161W        W19292   0.109   6.720   2.149  0.0005  0.2370  0.3066
 4162W        W19293   2.506  12.337   2.110 -0.3840 -0.2657  0.3290
 4163W        W19294   9.776  11.939  13.743  0.3377  0.0697  0.0931
 4164W        W19295   2.986  11.074  16.579 -0.0852 -0.0631 -0.2169
 4165W        W19296   5.318  14.391   5.794  0.0620  0.1466 -0.1829
 4166W        W19297   5.995   4.105  14.254  0.0481  0.0596 -0.1599
 4167W        W19298   4.300   1.875   4.354 -0.3064  0.1148 -0.0225
 4168W        W19299   3.002  17.290   2.078 -0.0009  0.1020 -0.1623
 4169W        W19300   1.791   7.786   1.395  0.0537 -0.2106  0.0683
 4170W        W19301   0.414  11.386  13.175  0.0765 -0.1887 -0.3732
 4171W        W19302  13.227   8.617  13.011 -0.0484 -0.0748  0.0241
 4172W        W19303   8.396  14.763  15.577  0.0690  0.2851 -0.0342
 4173W        W19304   6.794   6.865  13.021 -0.1201 -0.1375  0.2757
 4174W        W19305   9.041   8.753  16.411  0.1676  0.0987  0.1579
 4175W        W19306   8.830   1.501   3.730 -0.0758  0.0458  0.0675
 4176W        W19307  17.687   2.095  14.113  0.3135 -0.1701 -0.0024
 4177W        W19308  15.718   8.088   5.657  0.1431  0.1653 -0.0357
 4178W        W19309   4.113   8.489  16.151 -0.0004 -0.3222  0.0339
 4179W        W19310   1.278  11.469  14.191 -0.2475  0.0945 -0.1501
 4180W        W19311   0.570   3.642   3.384 -0.1335  0.0254  0.2172
 4181W        W19312   1.031   6.294   3.862  0.1221  0.1786 -0.2719
 4182W        W19313   2.621  11.099  13.430  0.0062 -0.0735  0.1993
 4183W        W19314   0.780   5.685  13.589  0.0214  0.0422 -0.1220
 4184W        W19315  15.029  15.225   0.511 -0.0146  0.2022  0.1173
 4185W        W19316  11.323  14.485   1.450  0.1509 -0.1976  0.0636
 4186W        W19317   4.757  15.531   3.593 -0.2175  0.1238  0.0272
 4187W        W19318   9.385  10.578  11.792 -0.0537  0.2311 -0.1110
 4188W        W19319   4.713  11.020  14.996  0.1203 -0.3124  0.3286
 4189W        W19320   9.494   6.683  16.046  0.0580  0.0072  0.0236
 4190W        W19321   1.369  17.187  13.750 -0.0464  0.1704 -0.1290
 4191W        W19322   7.294  10.626   6.314 -0.2603 -0.2809 -0.2787
 4192W        W19323   3.170  11.480  14.123  0.0754  0.0992 -0.2273
 4193W        W19324   0.189   6.178   3.443  0.0220  0.0145 -0.3215
 4194W        W19325   7.413  10.438  15.688  0.0080 -0.1112 -0.1031
 4195W        W19326   3.555   6.442   5.474  0.0390 -0.2071  0.0696
 4196W        W19327  14.556  14.164   6.329  0.2618 -0.2528 -0.0057
 4197W        W19328   4.236   9.114  15.236  0.0779  0.4343 -0.0056
 4198W        W19329   9.473  10.454  13.904 -0.1566  0.1399 -0.0769
 4199W        W19330  13.463   7.248   3.243  0.0291 -0.0723 -0.0095
 4200W        W19331   4.336   9.566   0.059 -0.0293  0.0449  0.1183
 4201W        W19332  12.554   7.699   0.394  0.1273 -0.0016  0.0075
 4202W        W19333   2.981   0.648  16.151  0.0728  0.0543  0.1833
 4203W        W19334   2.969  14.831   2.391  0.1771 -0.1813  0.0678
 4204W        W19335   4.404  13.848  13.199 -0.3243 -0.1833  0.1814
 4205W        W19336   8.177  12.543   3.994  0.0974  0.0581  0.4085
 4206W        W19337   8.205   4.084  15.969  0.0198 -0.1259 -0.1333
 4207W        W19338   2.461  14.408   0.088 -0.1272  0.1376  0.1046
 4208W        W19339  17.709  13.228   1.024 -0.0511 -0.2282 -0.2212
 4209W        W19340   3.781  15.274   5.991 -0.0300  0.1468 -0.1682
 4210W        W19341  16.058   9.001  14.915  0.0400  0.3675 -0.0256
 4211W        W19342  16.059   4.732   1.587  0.0485  0.2140  0.1466
 4212W        W19343  17.409   9.404  13.140  0.1021  0.0133  0.1542
 4213W        W19344   7.390   3.466   2.074  0.0289 -0.4941  0.2413
 4214W        W19345  10.294  14.979   5.306 -0.1251  0.0922  0.1260
 4215W        W19346   8.741  14.189   2.475  0.1371 -0.2083  0.2137
 4216W        W19347  15.308   6.831  13.173 -0.0639 -0.0821  0.1392
 4217W        W19348  11.639  11.694   1.597 -0.1013 -0.1387  0.1360
 4218W        W19349  14.638   1.802  14.123  0.1933  0.1677  0.0140
 4219W        W19350  16.090   2.632  15.853  0.0309 -0.0654 -0.1585
 4220W        W19351  11.809  15.093  15.088  0.2612 -0.0178  0.2848
 4221W        W19352  15.480   1.596  12.981  0.1222 -0.0912  0.2552
 4222W        W19353   0.463   2.003  12.691  0.0371  0.1484  0.0370
 4223W        W19354   0.058   1.380   5.758 -0.0394  0.0446 -0.1892
 4224W        W19355  16.450   6.269  15.674  0.1973  0.1925  0.2210
 4225W        W19356   8.064  17.683   4.579 -0.1389  0.0066  0.0925
 4226W        W19357  13.053  17.866   2.209 -0.3638  0.2940  0.0628
 4227W        W19358   6.267  16.722   2.734  0.0250  0.0310  0.2883
 4228W        W19359  13.798  11.169  14.608 -0.0069  0.3497 -0.0314
 4229W        W19360  16.335   1.075  15.686 -0.1434  0.3449 -0.1531
 4230W        W19361   9.336   0.970   2.879 -0.1151 -0.0293 -0.0440
 4231W        W19362  11.278   7.384   5.268  0.0674 -0.2095 -0.2132
 4232W        W19363  13.188  13.260   1.107 -0.3751  0.0476  0.2505
 4233W        W19364   9.820   1.238  15.392  0.0774 -0.0422  0.0010
 4234W        W19365   6.709   7.231  11.438 -0.2871  0.0725  0.0383
 4235W        W19366   7.652  12.713  13.341 -0.0169  0.0089 -0.4331
 4236W        W19367  12.041   3.232   3.968 -0.0705 -0.1530  0.0905
 4237W        W19368  11.907  12.181  12.794  0.2079  0.2468 -0.0771
 4238W        W19369  10.301  11.429   2.969 -0.0747  0.0797 -0.0968
 4239W        W19370  16.572  12.011   4.858 -0.1369 -0.0803 -0.1046
 4240W        W19371   0.400  16.950   3.854  0.3127 -0.0629 -0.0741
 4241W        W19372  10.531   3.505  16.175  0.1929  0.2292  0.1569
 4242W        W19373   0.257   4.833  13.500 -0.1590  0.0246  0.0321
 4243W        W19374   4.646   4.126  14.380 -0.1220 -0.1646 -0.0348
 4244W        W19375   7.387  12.054   3.994 -0.3436  0.1151  0.2013
 4245W        W19376   5.437  10.152   4.491  0.0100 -0.2915  0.0191
 4246W        W19377   5.829  12.821   1.160 -0.1943  0.2062  0.2998
 4247W        W19378   5.474   7.863  13.050  0.1010 -0.2859 -0.0256
 4248W        W19379  10.474   2.596  12.068  0.2034 -0.1275  0.2737
 4249W        W19380   2.048   7.560  11.790  0.3059  0.1790  0.0414
 4250W        W19381  17.052   8.544   4.403 -0.0298 -0.1030  0.1533
 4251W        W19382   6.228   0.501   2.940  0.0813  0.3964 -0.0705
 4252W        W19383  12.151  17.808   4.492 -0.1319  0.1428 -0.1479
 4253W        W19384   9.025  12.512  14.131 -0.1882  0.0638  0.2517
 4254W        W19385  10.975  17.343   4.004 -0.0107 -0.0242 -0.1736
 4255W        W19386  12.247  17.321   0.304 -0.0261  0.1519 -0.1234
 4256W        W19387  15.475   1.776   0.100  0.0411  0.0741  0.2258
 4257W        W19388   4.070   6.105  13.375  0.0330  0.1873  0.0983
 4258W        W19389   7.825   7.521  14.510  0.0261 -0.1235 -0.0364
 4259W        W19390  16.293   8.387   2.630  0.0508 -0.2358  0.2201
 4260W        W19391   2.905  13.530   4.242  0.2750 -0.0707  0.0421
 4261W        W19392  15.668  11.790   4.197 -0.2322  0.0188 -0.0405
 4262W        W19393  12.685   1.828   2.468 -0.0664  0.0567  0.0728
 4263W        W19394   0.130  11.119  13.563  0.1854 -0.0931  0.2998
 4264W        W19395  15.136  10.236  13.194 -0.0405  0.3671 -0.0314
 4265W        W19396   8.857  12.548   3.020  0.2529  0.0803 -0.0317
 4266W        W19397   9.578  10.110   5.263  0.1439 -0.0160 -0.1370
 4267W        W19398   0.571   7.709   0.008  0.3600 -0.2744 -0.4301
 4268W        W19399   6.508  15.854  14.697  0.0801 -0.3176 -0.1672
 4269W        W19400  17.350  14.481  13.697  0.2532 -0.0846 -0.2777
 4270W        W19401   3.499  12.176  15.557  0.1975 -0.0948 -0.2986
 4271W        W19402  16.348   6.364   5.509  0.0200 -0.1003  0.1980
 4272W        W19403   5.908  13.049   0.737 -0.1175  0.0713 -0.2378
 4273W        W19404  13.154  12.984  12.249  0.0734 -0.2460 -0.0040
 4274W        W19405   6.629  13.295  14.681 -0.1663  0.0868 -0.3311
 4275W        W19406  10.288  10.533   5.058  0.1275 -0.0574  0.2266
 4276W        W19407  17.257  10.735  11.121 -0.0884  0.1297 -0.0459
 4277W        W19408   5.798   1.659  11.144  0.0660  0.2072  0.0209
 4278W        W19409   8.713  12.759   5.202 -0.0246  0.0938  0.0676
 4279W        W19410   3.523  14.963   5.038 -0.1226 -0.0043 -0.1872
 4280W        W19411   8.439  14.584  13.855  0.0126  0.0200 -0.1364
 4281W        W19412   3.957  15.093   2.339 -0.1542  0.0682 -0.0515
 4282W        W19413  10.536  13.406  11.360 -0.1542  0.1306 -0.0666
 4283W        W19414   1.899   2.620   2.170  0.4698 -0.1112  0.0154
 4284W        W19415  16.576  13.491  14.306  0.4069 -0.1162  0.3905
 4285W        W19416   7.651   5.398   3.811  0.1326 -0.1337  0.0354
 4286W        W19417  16.100   2.992  15.356  0.0087  0.0700 -0.0143
 4287W        W19418   2.767   5.392   0.285 -0.0011 -0.2130  0.2054
 4288W        W19419  10.925   8.692   1.291  0.3516 -0.0154 -0.2185
 4289W        W19420   2.674  15.624   4.434  0.1194 -0.3705  0.2105
 4290W        W19421   4.996   3.535  11.335 -0.0664 -0.1608 -0.0614
 4291W        W19422  12.115   3.539  11.383 -0.0162  0.0952  0.3704
 4292W        W19423  13.552  16.083   2.464  0.1108 -0.2474  0.0171
 4293W        W19424   0.209   5.973  16.486 -0.4320 -0.2082 -0.1396
 4294W        W19425   7.089   8.191  11.588 -0.0542 -0.0620 -0.0118
 4295W        W19426   4.870   0.698   4.622 -0.1225  0.0233  0.0374
 4296W        W19427  13.078   2.755   3.398  0.2036 -0.1069  0.0775
 4297W        W19428  17.846   3.751  15.550  0.0047  0.2057  0.1562
 4298W        W19429  14.512   8.379  16.143 -0.0579 -0.2416 -0.0708
 4299W        W19430   8.941   8.761  11.514  0.1306 -0.0723  0.2947
 4300W        W19431   9.236   6.799   1.330  0.1216 -0.0248 -0.1803
 4301W        W19432   1.846  10.132  15.351 -0.3437 -0.1691 -0.0845
 4302W        W19433  15.265  12.575  15.934  0.1336  0.0829 -0.0414
 4303W        W19434  17.091   8.531   2.703 -0.0539  0.0510  0.0113
 4304W        W19435  15.915  13.658  12.396 -0.0623 -0.1467 -0.0063
 4305W        W19436   8.255  15.274   2.488 -0.3774 -0.0843  0.2347
 4306W        W19437   4.310  15.812  14.278 -0.4402 -0.0410  0.2350
 4307W        W19438  13.772  17.561  12.780 -0.0815  0.1019  0.1953
 4308W        W19439  12.136  10.628  16.437 -0.4052 -0.1297  0.2302
 4309W        W19440   7.484   2.278  12.686 -0.4148  0.1346 -0.2362
 4310W        W19441  12.265  11.840  11.514  0.1925  0.0046  0.2263
 4311W        W19442  12.687  14.873  11.465  0.2235  0.0084  0.0812
 4312W        W19443   6.954   2.215   1.594  0.0444 -0.1605  0.1833
 4313W        W19444   0.934   3.743  14.311 -0.2045 -0.1433  0.2594
 4314W        W19445  13.898  13.774  15.574  0.1898  0.0472 -0.5278
 4315W        W19446  12.195  14.112  11.421  0.2214 -0.0568 -0.0245
 4316W        W19447  12.571  11.991   0.698 -0.1165  0.0634 -0.2344
 4317W        W19448   1.236   7.981  16.557  0.1592 -0.1516 -0.0304
 4318W        W19449  17.863   3.616   0.080  0.0837 -0.0950 -0.0734
 4319W        W19450   7.948   4.480  15.872 -0.2411 -0.0201  0.2576
 4320W        W19451  12.322   1.977   5.639 -0.1245 -0.0537  0.1486
 4321W        W19452   2.060   3.313  12.963  0.1991 -0.0773 -0.1679
 4322W        W19453  17.081   6.765   1.927  0.0467 -0.2374  0.1098
 4323W        W19454  13.133  16.105   4.914 -0.3784  0.0552 -0.1029
 4324W        W19455  17.414  14.421  16.089  0.1493  0.1151 -0.1351
 4325W        W19456  16.486  15.687  10.719  0.0999 -0.1951  0.0546
 4326W        W19457   4.455  15.372   1.116  0.0901 -0.1584 -0.0210
 4327W        W19458   6.653  12.898   2.515 -0.1791 -0.0347 -0.2150
 4328W        W19459   7.960   7.948  12.659  0.2174 -0.0291  0.1877
 4329W        W19460  13.689   9.819   3.996  0.1008 -0.1182  0.3658
 4330W        W19461   4.611  13.804  15.483 -0.2475  0.0485 -0.0273
 4331W        W19462   4.796   0.295  15.249  0.2052  0.1924  0.0497
 4332W        W19463  14.510   1.736  13.169  0.0096  0.4934  0.2037
 4333W        W19464   4.167   8.705  11.573  0.2135 -0.2192 -0.0994
 4334W        W19465   2.896   9.360   2.958 -0.1490 -0.2008  0.0920
 4335W        W19466   2.508   7.045  12.989  0.3475  0.1690 -0.1696
 4336W        W19467   9.351   3.331   2.969  0.1040  0.0957 -0.0242
 4337W        W19468   6.158   0.252  13.687  0.3135 -0.0268 -0.2796
 4338W        W19469  16.137   8.045  15.394 -0.0849 -0.0339 -0.2462
 4339W        W19470   3.292   1.594   3.539 -0.3773 -0.1113  0.2747
 4340W        W19471  16.555  15.691   4.800  0.0386 -0.0278  0.0016
 4341W        W19472  14.553   6.769   0.312 -0.0507  0.1209  0.5477
 4342W        W19473  12.752  14.533  15.700 -0.1896  0.1936 -0.0925
 4343W        W19474  12.713   6.281  16.346 -0.2173 -0.0769  0.1111
 4344W        W19475  16.020  11.249  12.913  0.1616  0.1362 -0.0500
 4345W        W19476  10.228   5.930  11.608 -0.1452 -0.3309 -0.0424
 4346W        W19477   9.291   9.977   3.180 -0.0706 -0.1229  0.0876
 4347W        W19478  15.475   1.756  12.441  0.2793 -0.1375 -0.0877
 4348W        W19479  14.737   2.205   3.327  0.0547 -0.2367  0.0500
 4349W        W19480   9.069  13.174   5.170  0.2319 -0.1659  0.1185
 4350W        W19481   8.546  13.162  13.565 -0.3201  0.1279 -0.1305
 4351W        W19482   9.130  10.928   2.045  0.2304 -0.1466  0.0344
 4352W        W19483   0.958  15.265   5.235  0.0088  0.0974 -0.1288
 4353W        W19484  11.988  16.563   2.165 -0.1262  0.3066 -0.0826
 4354W        W19485  12.194  15.825   4.307 -0.2673  0.1596 -0.0272
 4355W        W19486  16.901   9.090   5.476 -0.0244 -0.0376  0.3838
 4356W        W19487   4.984   9.083  14.025  0.4647  0.1886 -0.2023
 4357W        W19488  15.368   7.718   2.246 -0.0556  0.1640  0.0663
 4358W        W19489  17.437   5.260  11.684  0.0223  0.2147 -0.1184
 4359W        W19490   9.964   8.467   1.729 -0.1195 -0.2564  0.0531
 4360W        W19491   7.280  15.190  16.235 -0.0443 -0.1682  0.0327
 4361W        W19492  17.241  10.767  16.344  0.1097  0.1826 -0.1024
 4362W        W19493   3.193   2.845  11.962 -0.0322  0.0906 -0.0200
 4363W        W19494   1.857   7.522  14.438  0.3627 -0.0264  0.1629
 4364W        W19495   7.091   5.377   4.460  0.1349 -0.3435 -0.0642
 4365W        W19496  13.248   9.561   4.052 -0.1256 -0.0632  0.0140
 4366W        W19497   9.909   7.491   1.638 -0.1146 -0.0696  0.2094
 4367W        W19498   9.683  12.041  12.529  0.1773 -0.4001  0.5871
 4368W        W19499  15.155   6.414  16.053  0.0465  0.0671  0.2800
 4369W        W19500   7.204  17.387   1.429  0.2342  0.0597  0.1521
 4370W        W19501  12.014   6.383  12.344 -0.1445  0.1285  0.1581
 4371W        W19502   2.915   0.819  13.600 -0.1918  0.1459 -0.0502
 4372W        W19503   4.942   8.108  16.187  0.4637 -0.1272  0.0049
 4373W        W19504  11.414  14.965  12.994  0.0263 -0.2730 -0.0036
 4374W        W19505   4.852   7.182  14.011 -0.1493  0.1646 -0.2741
 4375W        W19506   9.383   6.238  16.247  0.2694 -0.2170  0.0113
 4376W        W19507   9.842  11.100  13.374  0.0239 -0.1873  0.1954
 4377W        W19508  17.071   5.659  16.534  0.1324 -0.4178  0.1293
 4378W        W19509  11.318  16.227  12.956  0.1632 -0.0331 -0.0458
 4379W        W19510  13.617   6.172  11.735 -0.1832 -0.2071 -0.1063
 4380W        W19511   5.500   7.638  11.962 -0.0557 -0.1438 -0.0613
 4381W        W19512   0.010   8.729   2.898 -0.0286  0.1352  0.2508
 4382W        W19513   9.756   4.677  14.208  0.0764  0.0800 -0.3383
 4383W        W19514   2.851   8.533   0.654 -0.0129  0.0146  0.1587
 4384W        W19515   0.121   0.444   1.407  0.3439 -0.0334  0.2617
 4385W        W19516  11.431  10.398  11.939 -0.0494  0.1102  0.4460
 4386W        W19517  13.593  17.584   2.781 -0.1595  0.2090  0.1322
 4387W        W19518  11.788  14.352   3.472 -0.0605  0.1236 -0.1914
 4388W        W19519   4.990   0.476  14.321  0.2528  0.0470  0.2335
 4389W        W19520  14.035  15.435   1.296 -0.1223  0.0017 -0.0933
 4390W        W19521  14.773  11.735   1.512 -0.1091 -0.1121  0.0607
 4391W        W19522  12.973   6.276  13.907  0.1346  0.1496 -0.0011
 4392W        W19523  15.330  13.321  16.510 -0.0579  0.1484 -0.0043
 4393W        W19524   4.069  14.130   3.996  0.1622 -0.4414  0.2515
 4394W        W19525  16.912   4.080  12.041  0.0091 -0.1273 -0.0466
 4395W        W19526   1.363  13.531   1.734 -0.0818 -0.1898  0.0464
 4396W        W19527  11.818   1.393   6.216 -0.0800  0.0723 -0.0265
 4397W        W19528  15.926  15.680  12.901 -0.0262 -0.0416 -0.1180
 4398W        W19529  13.158   6.251  11.438 -0.2959 -0.0806  0.2169
 4399W        W19530  14.302   0.188  15.192  0.2025  0.5291  0.0902
 4400W        W19531  14.816   0.590  16.473  0.1382  0.4308 -0.1893
 4401W        W19532   1.982   9.311   3.056 -0.1104  0.2172  0.0018
 4402W        W19533  17.614   7.416  12.978 -0.1789  0.2693  0.1673
 4403W        W19534   5.894  12.214  15.024  0.1732 -0.0577 -0.0232
 4404W        W19535  11.782   9.789  16.246 -0.0076 -0.0462  0.0891
 4405W        W19536   2.982  14.153  10.987  0.3526  0.0874  0.1258
 4406W        W19537  12.960   4.001   1.481  0.1273 -0.0272  0.0488
 4407W        W19538   4.600  16.780  14.748  0.0201 -0.1647  0.1671
 4408W        W19539   1.800  11.653   3.839 -0.2065  0.0039  0.2057
 4409W        W19540   7.965   9.592  16.462  0.2346  0.4450 -0.0318
 4410W        W19541  16.611   6.780   5.201 -0.1260 -0.0683  0.0428
 4411W        W19542  12.736   4.412  14.863  0.2154  0.2762 -0.1580
 4412W        W19543   4.574  12.043  11.614  0.2014  0.2261 -0.1576
 4413W        W19544  10.895   9.634  11.758  0.2373  0.0861 -0.1578
 4414W        W19545  10.367   1.547  16.714 -0.0102  0.2613 -0.0621
 4415W        W19546   0.175  14.584  15.644  0.0661  0.3020 -0.1645
 4416W        W19547   8.536  14.074   0.524  0.0074  0.2184  0.1074
 4417W        W19548  13.764  15.922  12.826  0.3928  0.0235 -0.3321
 4418W        W19549   8.667   3.096  13.503 -0.0883  0.3819  0.0272
 4419W        W19550   1.468   4.887  15.613 -0.1006 -0.1937 -0.1224
 4420W        W19551  12.510   0.410  11.432  0.0069  0.0480 -0.3825
 4421W        W19552  14.376   7.584   6.097  0.2170 -0.2862 -0.0871
 4422W        W19553  10.698  10.538   0.037  0.2527  0.1121  0.0654
 4423W        W19554  15.667  13.709  11.906  0.0001 -0.1963 -0.2158
 4424W        W19555   2.893   2.820   1.234 -0.2765 -0.1432 -0.0590
 4425W        W19556   2.439  12.006  11.876  0.0162  0.0599 -0.0855
 4426W        W19557   5.422   3.637  14.514  0.0736  0.1587 -0.2728
 4427W        W19558   1.944   0.853  15.942  0.2768  0.0410 -0.0216
 4428W        W19559   2.710   7.889  15.026 -0.0832  0.1785  0.2739
 4429W        W19560   3.887   2.205   0.540 -0.2106 -0.0182  0.4236
 4430W        W19561   1.556   7.837  16.172  0.0742  0.0992  0.1302
 4431W        W19562  14.354   3.034   2.613  0.0719  0.3750 -0.0114
 4432W        W19563  16.429   6.750  12.420 -0.1455  0.1791 -0.1600
 4433W        W19564  16.381  14.927   2.673 -0.0809 -0.3629  0.0524
 4434W        W19565  11.872   5.992   4.489 -0.2230  0.1351  0.0261
 4435W        W19566  11.741   7.315  14.595  0.0718  0.3168 -0.0401
 4436W        W19567  14.818  17.447  11.889  0.0978 -0.0015  0.1778
 4437W        W19568  17.476   0.910   3.137  0.1214  0.0512  0.2550
 4438W        W19569  15.356  11.899  10.243 -0.2069  0.0552 -0.1841
 4439W        W19570  13.628   3.695  12.697  0.3557 -0.2668  0.0973
 4440W        W19571   8.346   5.873  14.647 -0.0525  0.0887 -0.2421
 4441W        W19572  16.589  13.615  11.697  0.0890 -0.3006 -0.1633
 4442W        W19573  10.789   7.947   5.932  0.1984 -0.1991  0.3550
 4443W        W19574  13.438   7.265   0.622  0.3568 -0.0375  0.0570
 4444W        W19575   5.041  17.105   3.974  0.0752  0.0310 -0.0132
 4445W        W19576   9.439   2.800  14.001 -0.1049 -0.6123 -0.1460
 4446W        W19577  13.513  11.592  14.823 -0.1953 -0.0194  0.4026
 4447W        W19578  16.506   5.282  12.865 -0.3525  0.2231 -0.1821
 4448W        W19579   8.799  14.284  13.893 -0.2541  0.3198  0.0570
 4449W        W19580   3.468  11.402   4.907  0.2420 -0.0548 -0.0068
 4450W        W19581  13.903  13.001   2.341  0.4961 -0.0441  0.1229
 4451W        W19582   6.108  17.189  14.205  0.0283 -0.1160  0.0918
 4452W        W19583  11.142  16.778  15.074  0.2298 -0.1328  0.0697
 4453W        W19584   5.075   5.780   4.420 -0.1117 -0.0178  0.1317
 4454W        W19585  17.319   3.116   0.760 -0.0636  0.1362 -0.0441
 4455W        W19586  14.919   9.281   0.394  0.2666 -0.1277 -0.3411
 4456W        W19587   8.904   3.829  14.768 -0.4520 -0.1071  0.0141
 4457W        W19588  10.550  16.732   5.313 -0.3031 -0.2485  0.2193
 4458W        W19589   1.944   3.019   1.173  0.0429  0.0786 -0.0004
 4459W        W19590   6.260  13.020  15.291  0.0709 -0.1323 -0.2074
 4460W        W19591   6.408   9.043   3.422 -0.0544  0.0428 -0.1906
 4461W        W19592  13.021   4.990  13.316 -0.1760  0.1083  0.2621
 4462W        W19593   4.972  16.802   4.412  0.0118 -0.1625 -0.0234
 4463W        W19594  13.490   7.820   4.411 -0.0025 -0.2013  0.0927
 4464W        W19595   1.791   5.965   5.140  0.1912 -0.0153  0.1948
 4465W        W19596  12.560  16.672   5.354 -0.0139  0.1216  0.1886
 4466W        W19597   5.582  16.963   4.873 -0.2525  0.2266  0.3618
 4467W        W19598  17.475  15.271   3.770  0.2787  0.0332  0.1276
 4468W        W19599  15.118  16.448  12.712  0.0636 -0.1352 -0.0084
 4469W        W19600  14.545   1.767  15.726  0.1078 -0.1681 -0.1414
 4470W        W19601   8.477   9.395   5.218  0.3453 -0.0743  0.0720
 4471W        W19602  17.303   9.453  14.916 -0.1452 -0.2989 -0.2064
 4472W        W19603  11.862   3.121   0.025 -0.1908 -0.2019  0.0577
 4473W        W19604  12.019   2.176  15.317  0.1385  0.2563  0.0731
 4474W        W19605   7.024   6.128   5.998 -0.1797  0.3774 -0.0510
 4475W        W19606   7.447  12.064  12.036  0.3242  0.2127  0.1272
 4476W        W19607   7.336  10.263  16.217 -0.1534  0.2060 -0.2537
 4477W        W19608  15.825   6.286  14.691  0.1145 -0.4245  0.3367
 4478W        W19609   1.654   9.139   5.036  0.3190  0.2635  0.0684
 4479W        W19610   8.797   5.747  14.926 -0.2646  0.0708  0.0621
 4480W        W19611  11.899   1.924  11.602 -0.0262  0.0735  0.0538
 4481W        W19612   3.401   9.869   2.181  0.2477 -0.0360  0.0862
 4482W        W19613  17.245   7.024  14.924  0.2140  0.1357  0.0156
 4483W        W19614   5.492   4.507  11.520 -0.1171 -0.0213 -0.0992
 4484W        W19615   5.890  14.318   2.944  0.2329  0.2054 -0.1930
 4485W        W19616  16.760  15.931   1.936 -0.1812 -0.1433 -0.0125
 4486W        W19617  14.945  13.744  12.271  0.0006  0.2469 -0.0575
 4487W        W19618   5.962   6.126   3.554 -0.0743  0.0803 -0.0329
 4488W        W19619   6.752  11.638  11.973  0.2951  0.2158 -0.1931
 4489W        W19620  17.162  10.092  11.986 -0.4734  0.1662 -0.2029
 4490W        W19621   3.566  16.271  15.349 -0.1238  0.0898 -0.0358
 4491W        W19622   1.440  11.865   0.024 -0.0406  0.1807  0.0575
 4492W        W19623  11.895   2.990  15.675  0.5330  0.1917 -0.2005
 4493W        W19624   8.266   4.485  15.243 -0.2128  0.1271  0.0762
 4494W        W19625  16.562   8.496   3.415 -0.0882 -0.1528  0.1134
 4495W        W19626  14.364   6.344   0.427  0.0087 -0.1322  0.0222
 4496W        W19627   5.075  14.278  15.844 -0.2251 -0.1041  0.1615
 4497W        W19628  11.869   4.840   4.653 -0.1036  0.3869  0.0885
 4498W        W19629  12.671  10.557  16.402  0.0006  0.1377 -0.2088
 4499W        W19630   8.000   6.514  15.867  0.0354  0.0202 -0.1400
 4500W        W19631   1.756  13.065   4.892 -0.1057 -0.2054  0.1426
 4501W        W19632  10.864  12.257   2.455  0.3128 -0.1608 -0.0353
 4502W        W19633   4.431   2.865  16.093  0.2074 -0.1277  0.0952
 4503W        W19634  16.933   1.020  12.320  0.1851 -0.0388  0.2500
 4504W        W19635  17.812   6.059   4.913  0.1712  0.3625  0.0771
 4505W        W19636   3.251  10.412   5.213 -0.0887 -0.1009  0.3973
 4506W        W19637  15.155   4.681  13.030 -0.0075  0.2557  0.0063
 4507W        W19638  17.584  16.831   4.917 -0.2853 -0.3826 -0.0846
 4508W        W19639  16.077  15.458  11.744  0.1766  0.2429 -0.1862
 4509W        W19640  14.652  16.403   1.405  0.1427 -0.0529  0.2262
 4510W        W19641  15.684   8.178  14.043  0.0210 -0.5968  0.1206
 4511W        W19642  16.854   9.667   0.202 -0.1652 -0.0519  0.2286
 4512W        W19643  17.650   9.536   3.408 -0.0745 -0.1040 -0.1754
 4513W        W19644   1.858   3.292  11.703  0.0519 -0.0264  0.0514
 4514W        W19645   4.784  12.493  12.499 -0.2886 -0.2284  0.0694
 4515W        W19646  13.506  12.369  14.237 -0.1173 -0.0591 -0.0352
 4516W        W19647   6.216  16.945  13.273 -0.1507 -0.1046  0.0948
 4517W        W19648  17.515   7.370  10.891  0.2241  0.0225  0.0795
 4518W        W19649   5.029   2.097  11.433 -0.2725 -0.0947  0.0538
 4519W        W19650   5.197  14.855   2.654  0.1024  0.0472  0.0674
 4520W        W19651   4.456  10.887  13.110  0.1934 -0.0510 -0.1185
 4521W        W19652   3.427   7.631  13.749 -0.0506  0.1611 -0.0775
 4522W        W19653  14.943  14.990  11.641  0.1434 -0.1151  0.0827
 4523W        W19654   2.916  16.290   6.607 -0.2023 -0.3205  0.1720
 4524W        W19655   0.195  14.100  15.935  0.2267 -0.0995 -0.0180
 4525W        W19656   3.709   8.617   3.618  0.1028  0.1315  0.3313
 4526W        W19657   1.900   3.638  15.362  0.0072 -0.1154  0.0021
 4527W        W19658   6.958   5.647   1.996 -0.1036 -0.3309  0.2957
 4528W        W19659   1.533  14.841   5.755  0.1920  0.1619  0.0599
 4529W        W19660   4.055   9.124   0.114  0.0027  0.0550 -0.0221
 4530W        W19661   9.178   1.742   0.677  0.2245  0.1002 -0.1259
 4531W        W19662   5.582   3.152   2.290 -0.1503  0.1312 -0.2908
 4532W        W19663  15.337   0.588   3.276  0.1868  0.0422 -0.1252
 4533W        W19664   6.388  13.487   0.737 -0.1449  0.2061 -0.0735
 4534W        W19665  15.823  17.440  11.363  0.3000 -0.3294 -0.3106
 4535W        W19666   7.005   2.778  14.783 -0.2075  0.0650 -0.2256
 4536W        W19667   5.493   1.111   1.221  0.3791 -0.1190  0.1747
 4537W        W19668   3.736   8.441  15.240  0.1034 -0.1267 -0.3490
 4538W        W19669  11.828   4.034   1.657 -0.0440 -0.0324 -0.3457
 4539W        W19670  15.029   0.851   0.421  0.0763  0.2855  0.0964
 4540W        W19671   2.915   6.375  11.623  0.1190  0.0424 -0.4490
 4541W        W19672   8.574   0.361   2.489 -0.0519 -0.1047 -0.0071
 4542W        W19673   3.607  15.749   4.351 -0.0208 -0.2677  0.2960
 4543W        W19674  16.742   2.905   1.835 -0.2268 -0.3511 -0.1018
 4544W        W19675  17.873  14.704   1.539  0.0563  0.0238  0.0973
 4545W        W19676  14.711   3.995   5.367 -0.0349  0.1386  0.0105
 4546W        W19677   3.461  14.717  12.246  0.2578  0.0944 -0.0375
 4547W        W19678  12.631  16.003  11.683  0.1890  0.4061 -0.2158
 4548W        W19679   0.262   8.081   0.152 -0.0227  0.1219  0.0180
 4549W        W19680  14.030  15.951   5.911  0.1269  0.4329 -0.0631
 4550W        W19681   9.916   6.972  12.799 -0.1310 -0.1076 -0.1450
 4551W        W19682   9.224   4.450   4.373  0.2003  0.3607  0.0145
 4552W        W19683  11.148   6.783  13.394  0.1461 -0.3021  0.2059
 4553W        W19684  12.547   9.557   1.966 -0.1059 -0.1889 -0.0370
 4554W        W19685   9.760  10.263  16.523  0.0771 -0.1584 -0.0154
 4555W        W19686   2.451   4.238  12.290 -0.1704 -0.0896  0.4051
 4556W        W19687  12.258  13.003  10.991  0.1183  0.0403  0.1851
 4557W        W19688   7.319  10.396  11.691  0.2213 -0.0935 -0.0687
 4558W        W19689   9.218   6.530   5.472 -0.2139 -0.1980  0.0513
 4559W        W19690   2.673   2.472  13.364  0.1721 -0.0100  0.1508
 4560W        W19691  16.266   7.838   0.292  0.3842  0.2095 -0.2019
 4561W        W19692   9.730  17.659  15.723  0.0057  0.3481 -0.2584
 4562W        W19693  11.139  17.669   3.563 -0.1965 -0.3472 -0.2082
 4563W        W19694  11.599   2.133  11.327  0.4978 -0.1907  0.1043
 4564W        W19695  13.505   9.831   2.913 -0.0801 -0.2268  0.0994
 4565W        W19696   5.576   3.304  16.338 -0.2958 -0.1867 -0.2241
 4566W        W19697   1.829   8.236   4.038  0.4779 -0.2454  0.1733
 4567W        W19698  16.106  17.797   3.575 -0.0202 -0.1699 -0.1970
 4568W        W19699   1.927   0.055   2.586  0.0454  0.0346  0.2032
 4569W        W19700  15.960   0.638  12.636 -0.0121 -0.0544  0.1656
 4570W        W19701  16.099  14.647  13.515  0.1494  0.3554 -0.0830
 4571W        W19702  12.625  15.379  14.097  0.0603 -0.1556  0.0751
 4572W        W19703  12.460  13.871   1.527 -0.0819 -0.0796 -0.1279
 4573W        W19704   7.129   9.217   2.183  0.0167  0.2838 -0.0422
 4574W        W19705  13.217   0.670  16.140  0.1912  0.2036 -0.4104
 4575W        W19706  13.657   4.950   4.046  0.1985  0.3771 -0.4564
 4576W        W19707  17.247   9.815  15.778  0.2303  0.3635  0.2480
 4577W        W19708  14.270  10.466   4.451  0.2213 -0.2144 -0.0052
 4578W        W19709  13.803   4.544   4.369 -0.1983  0.1395  0.1671
 4579W        W19710  16.095  13.533  11.493 -0.0548  0.0492  0.2164
 4580W        W19711   6.756  14.149  14.048 -0.2168 -0.2388 -0.0801
 4581W        W19712   3.595   8.239   3.261 -0.0136  0.0350  0.1124
 4582W        W19713   3.825  14.413   4.467 -0.4215 -0.0552 -0.1189
 4583W        W19714  16.034  15.118   3.551  0.0475 -0.1292  0.0586
 4584W        W19715   7.447   8.759   5.960  0.0802 -0.2195  0.3273
 4585W        W19716   6.725   3.591   0.845 -0.0068  0.2318  0.1588
 4586W        W19717   6.210   3.125  15.591  0.0950  0.3614 -0.0860
 4587W        W19718  17.178   9.024  13.470  0.0429  0.1645  0.1605
 4588W        W19719   7.004   9.755   5.018  0.0564 -0.0371 -0.1234
 4589W        W19720  16.203   8.789   2.244 -0.2278 -0.1516  0.0145
 4590W        W19721   3.183   6.148  13.416 -0.0445  0.0685 -0.0877
 4591W        W19722   0.223  12.257  10.878 -0.0331  0.2135  0.0757
 4592W        W19723  13.389  13.712   2.530 -0.2057 -0.1244  0.0254
 4593W        W19724   9.009   4.122   3.378  0.3322  0.0171 -0.0446
 4594W        W19725   6.315  16.961   1.780  0.0801  0.0093  0.2492
 4595W        W19726  11.117  15.379  14.683 -0.3698  0.1081  0.2174
 4596W        W19727   0.390  10.751   5.067  0.0228 -0.1206  0.1325
 4597W        W19728   8.322   7.488  16.650  0.0562 -0.2107 -0.1938
 4598W        W19729   4.393   1.899  14.834 -0.0047 -0.1010 -0.1935
 4599W        W19730  17.564   8.948   1.546  0.2261  0.1192 -0.2636
 4600W        W19731  11.974  12.784  11.377  0.0388 -0.1988  0.0689
 4601W        W19732   7.690  11.762  13.991  0.0684 -0.1188  0.0358
 4602W        W19733  14.964   6.067   0.810  0.0583  0.0216 -0.0681
 4603W        W19734  11.485  16.229   0.205  0.1253 -0.1572  0.1610
 4604W        W19735   6.055   5.406  14.001 -0.2464  0.1000  0.1611
 4605W        W19736   5.960  10.514  14.402 -0.2152 -0.1425  0.0925
 4606W        W19737  17.411   0.519  12.521  0.2010 -0.0735  0.1332
 4607W        W19738   9.505   0.003  14.964 -0.1055 -0.2761 -0.1435
 4608W        W19739   8.384   9.833  16.196 -0.0085  0.2654  0.0423
 4609W        W19740   1.398   8.023   4.231  0.3332  0.0755  0.0530
 4610W        W19741  13.736   0.806   1.159  0.0576  0.0390  0.0269
 4611W        W19742  10.243   0.338  11.839 -0.1755 -0.0838  0.1350
 4612W        W19743  17.474   2.613  14.590 -0.0338  0.0099 -0.0938
 4613W        W19744  11.678   1.402  13.169  0.1298 -0.0397 -0.2939
 4614W        W19745   5.399   8.469   3.140  0.0736  0.1738  0.2954
 4615W        W19746  10.173  10.447  13.000  0.0370 -0.2729  0.1588
 4616W        W19747  16.625   2.617  11.799  0.0218  0.0914 -0.3559
 4617W        W19748  17.298   0.223  15.669 -0.1312 -0.1952 -0.0569
 4618W        W19749   8.194  12.387   3.235  0.0324 -0.0654 -0.1820
 4619W        W19750   1.755   1.292   6.340 -0.0922  0.2442  0.0507
 4620W        W19751  12.625   0.024   0.691 -0.0076 -0.1018  0.0379
 4621W        W19752  14.538  12.975  15.555  0.3191 -0.0556 -0.2417
 4622W        W19753  15.213   6.515   1.047  0.2270 -0.0988 -0.2589
 4623W        W19754   0.319   1.608   3.960  0.0011  0.0964  0.0526
 4624W        W19755  16.894  11.826  15.699  0.1702 -0.0586 -0.1236
 4625W        W19756   8.127   4.572   2.615  0.0399 -0.3472 -0.0434
 4626W        W19757  14.432   9.333  13.309  0.2556 -0.2395  0.1264
 4627W        W19758  13.295   7.225   2.754 -0.3293  0.0677  0.2536
 4628W        W19759   7.483  14.197  16.166  0.1252 -0.2962  0.1198
 4629W        W19760   7.523  14.160   6.056  0.1120 -0.0822  0.1077
 4630W        W19761  16.286  12.941   5.661 -0.0367  0.1037  0.4276
 4631W        W19762  17.504  14.877  14.051  0.0785 -0.1085  0.2037
 4632W        W19763  14.740   9.570  15.976  0.0116  0.1281  0.4816
 4633W        W19764   9.088   9.749  14.559 -0.0377 -0.0583 -0.1030
 4634W        W19765   6.040   9.959   3.390  0.0886  0.0380 -0.2624
 4635W        W19766   8.540  10.385  13.922  0.0428  0.2753  0.1045
 4636W        W19767   0.281  15.588   6.045 -0.0399  0.1137 -0.1751
 4637W        W19768  13.107  11.163  13.726  0.2881 -0.3298 -0.2219
 4638W        W19769   9.267   9.414   1.469  0.0748 -0.1633  0.3322
 4639W        W19770   2.330  14.058  14.066 -0.1938  0.0528  0.0510
 4640W        W19771   8.864   4.259  13.303 -0.0805  0.0934  0.0247
 4641W        W19772  10.102   8.836   5.702  0.1189  0.3507 -0.1665
 4642W        W19773   0.483   0.319   4.211  0.0498  0.0280  0.1433
 4643W        W19774  14.916   4.775  11.529  0.0033 -0.3997  0.2083
 4644W        W19775  12.726  11.943   2.999 -0.1895 -0.3444 -0.0094
 4645W        W19776  17.255   5.390  13.433  0.1433  0.0816  0.1702
 4646W        W19777   9.609   7.229  16.068 -0.3613  0.2610 -0.0214
 4647W        W19778   1.303   1.434   3.844 -0.3662 -0.0372 -0.0234
 4648W        W19779   6.412  13.359   2.495 -0.4537  0.0028 -0.0700
 4649W        W19780  17.154   9.091   1.841 -0.4129  0.1232  0.0259
 4650W        W19781   2.608  15.908  15.231  0.1928  0.1492 -0.1290
 4651W        W19782   4.104   9.374   4.175  0.2223 -0.0582 -0.0554
 4652W        W19783  17.134   9.334   4.962 -0.2309 -0.1612  0.1874
 4653W        W19784  17.631  10.661  15.707  0.3037  0.1317  0.2117
 4654W        W19785   3.850   3.602  14.063 -0.1928  0.1427  0.0728
 4655W        W19786  10.169   3.135  12.860  0.2062 -0.5983 -0.1508
 4656W        W19787   6.448  10.461   3.380  0.0745 -0.4002 -0.2461
 4657W        W19788  11.147  14.581   0.112  0.0877 -0.1097 -0.0927
 4658W        W19789  15.253   2.563   4.749 -0.0878 -0.1239  0.2703
 4659W        W19790   1.806   4.162   0.169 -0.1321 -0.3359 -0.0599
 4660W        W19791  14.691   8.457   0.778 -0.2781 -0.0127  0.1093
 4661W        W19792  12.088  14.799   1.213  0.2186 -0.0450  0.1658
 4662W        W19793   1.927  10.831   2.807  0.2255  0.1600 -0.0340
 4663W        W19794  12.125  17.608  11.003 -0.0702  0.2294 -0.0971
 4664W        W19795   0.879   5.010  11.855 -0.0756 -0.1283 -0.0714
 4665W        W19796   6.599   5.460   2.827  0.1059 -0.1263  0.2614
 4666W        W19797  13.453  14.262  11.244 -0.3173 -0.0219 -0.2681
 4667W        W19798   8.428   6.212   1.196  0.1046 -0.3042 -0.2311
 4668W        W19799   8.349  10.706  14.742 -0.1170 -0.2165  0.0445
 4669W        W19800  10.737  11.709   0.717  0.0619  0.3673 -0.1969
 4670W        W19801   2.025   7.328   5.097  0.3030  0.0388  0.1097
 4671W        W19802   4.767  16.138  13.154  0.3278  0.1773 -0.0627
 4672W        W19803   4.729   5.021  15.364  0.0206  0.3844 -0.2319
 4673W        W19804  15.768  13.001  12.329 -0.0637 -0.0706 -0.2829
 4674W        W19805  17.203   3.034   3.412  0.0672 -0.1070 -0.1499
 4675W        W19806   6.794  17.547   5.025  0.0169  0.1711  0.1685
 4676W        W19807   1.734  12.397  13.089  0.1049 -0.1779 -0.1562
 4677W        W19808   4.188  11.719  11.656 -0.2012  0.0785 -0.0212
 4678W        W19809  13.295  10.783  14.715 -0.0582 -0.0609 -0.2713
 4679W        W19810   9.058   3.386  13.466  0.2008  0.0880  0.0760
 4680W        W19811   4.395  16.855   3.031 -0.0602  0.1977  0.0221
 4681W        W19812  16.888  13.443   2.394  0.1280  0.4259  0.0383
 4682W        W19813   7.695   4.265   5.931  0.1451  0.0142  0.0205
 4683W        W19814  13.927   4.259   3.593  0.1140 -0.0720 -0.2761
 4684W        W19815  11.613   8.458  12.583  0.0756 -0.2809 -0.2273
 4685W        W19816  10.115  13.130  11.744 -0.0295 -0.1410 -0.1563
 4686W        W19817  11.345  14.067   3.162 -0.0762  0.1642  0.2575
 4687W        W19818   2.332  11.112   5.613 -0.2006  0.1469  0.2712
 4688W        W19819  10.651   8.729   2.381 -0.0000 -0.0890 -0.1863
 4689W        W19820   6.861  15.385  16.041 -0.1903  0.0074  0.1339
 4690W        W19821   9.919   1.065  13.827  0.1390 -0.2617 -0.2062
 4691W        W19822   2.985   0.560  13.085  0.2419 -0.0866 -0.1628
 4692W        W19823  15.170   5.924  16.035 -0.0854  0.0913  0.0205
 4693W        W19824   6.588  10.419  15.756  0.1066 -0.0221  0.1257
 4694W        W19825  13.226   5.646   1.962  0.0279  0.1582 -0.0492
 4695W        W19826   5.708   2.811  16.333  0.1253  0.0362  0.0371
 4696W        W19827   3.802   3.468   1.413  0.0911 -0.1768 -0.1515
 4697W        W19828   0.722   4.336  15.150  0.1868 -0.1259  0.0387
 4698W        W19829   5.397  12.783  14.299 -0.0872 -0.0409  0.0621
 4699W        W19830   7.471   8.203   4.470  0.0114 -0.3742 -0.1012
 4700W        W19831   4.956   4.504  13.052 -0.3730  0.1336 -0.0308
 4701W        W19832  15.626   3.362  15.333 -0.2716 -0.0762 -0.1033
 4702W        W19833   6.838   2.247  15.194  0.0765  0.1154 -0.2938
 4703W        W19834  16.878   0.374   4.828 -0.3149  0.0592  0.1842
 4704W        W19835  11.793   0.909  11.556 -0.1724 -0.5114 -0.1589
 4705W        W19836  14.787  11.766  11.283 -0.1566 -0.1528 -0.0953
 4706W        W19837  11.012  12.613  11.242  0.1239 -0.1422 -0.4035
 4707W        W19838  10.246   6.896   0.174  0.0090 -0.0563 -0.1278
 4708W        W19839   7.700  11.981   2.487  0.0550 -0.3716 -0.1734
 4709W        W19840   1.960   7.831   5.243 -0.1084 -0.1951  0.2173
 4710W        W19841  15.182  12.364  12.306  0.1088  0.2082 -0.0522
 4711W        W19842   5.242   6.161   4.694  0.2095 -0.0776  0.0261
 4712W        W19843  15.543  12.425   2.345  0.2047 -0.2175 -0.1647
 4713W        W19844   8.620   9.114  13.513  0.2141 -0.0436  0.2708
 4714W        W19845   4.737  16.872   2.511  0.1652  0.2667 -0.0352
 4715W        W19846  15.040   2.654  14.845 -0.0368 -0.0277  0.2479
 4716W        W19847  11.372  12.947   3.703 -0.3512 -0.2603 -0.0885
 4717W        W19848   9.677   1.393   1.467  0.2274 -0.0114  0.1246
 4718W        W19849  13.835   0.655   5.587  0.0575  0.1480  0.1239
 4719W        W19850   3.480   7.650  15.129 -0.0168  0.1156 -0.0951
 4720W        W19851   9.564  12.738   3.179 -0.2282  0.0043  0.0544
 4721W        W19852  12.929   3.029   1.723  0.1726  0.2334 -0.1873
 4722W        W19853  16.903   5.791  13.540  0.2822  0.0788 -0.3386
 4723W        W19854  12.323   8.189   4.065 -0.0854 -0.2156  0.0565
 4724W        W19855   3.341   4.597   4.950 -0.1791  0.0866  0.1529
 4725W        W19856  10.402  17.217   2.689 -0.1962 -0.1465  0.0501
 4726W        W19857   4.735  14.056  11.783  0.0933  0.0686  0.2474
 4727W        W19858   2.126   2.232  14.328  0.0726  0.0165 -0.1055
 4728W        W19859   5.087   7.492   3.521 -0.2598 -0.0418 -0.4175
 4729W        W19860  12.736  10.365  15.898 -0.1159 -0.0761 -0.1602
 4730W        W19861   5.495  15.988  15.520 -0.1373 -0.1125  0.1636
 4731W        W19862   7.624  10.329  15.257 -0.2770  0.1826  0.2004
 4732W        W19863   2.641   0.470  11.022  0.1972  0.0492  0.0619
 4733W        W19864  16.554   3.920  15.967 -0.2137 -0.1064  0.1389
 4734W        W19865   9.532   8.303  14.072 -0.0877 -0.1506 -0.1709
 4735W        W19866  17.497  12.718   3.251  0.3644  0.0536  0.0590
 4736W        W19867  17.395   5.191  14.261  0.2079 -0.4924 -0.4860
 4737W        W19868  10.527   8.392   3.495 -0.0513 -0.0412  0.2055
 4738W        W19869  14.857   8.112  12.058  0.0299  0.1107 -0.0923
 4739W        W19870  17.321  16.049   5.993 -0.1484 -0.2317  0.1137
 4740W        W19871   0.856  15.504   1.086  0.3078  0.0342 -0.1735
 4741W        W19872   7.541  12.448   2.586 -0.2142 -0.0248 -0.1655
 4742W        W19873   3.231   7.871   4.089 -0.0512 -0.2234  0.1293
 4743W        W19874   0.758   0.243  13.233  0.0825 -0.0143  0.1205
 4744W        W19875   6.877   9.359  11.959  0.0500 -0.0746  0.1780
 4745W        W19876   3.439   5.183  12.042  0.2798  0.1018 -0.3859
 4746W        W19877   6.351  16.260   1.050 -0.1927 -0.0438  0.3192
 4747W        W19878  14.827   0.238   1.679  0.2777 -0.1696  0.1640
 4748W        W19879  11.948   3.339   2.264 -0.0446  0.2555 -0.3735
 4749W        W19880  10.487   5.970  15.202  0.0380  0.1456 -0.3001
 4750W        W19881   5.483   5.501   1.684 -0.1475 -0.0626 -0.0628
 4751W        W19882  11.297   9.433   0.285  0.2271  0.3604 -0.0342
 4752W        W19883  10.093  14.936  12.855  0.1315  0.1328  0.1940
 4753W        W19884   3.555  14.382   1.841 -0.0938 -0.1644  0.0586
 4754W        W19885  17.299  16.527   5.953  0.3249  0.1421  0.0370
 4755W        W19886  16.060   2.650  10.927  0.3321 -0.2508  0.0887
 4756W        W19887   9.297  16.955  13.957 -0.0335  0.1153  0.0340
 4757W        W19888   6.553   7.436   0.384 -0.1558 -0.0480 -0.2482
 4758W        W19889   0.211   3.284  14.389 -0.2984  0.0135  0.2197
 4759W        W19890   7.000  14.975   3.161  0.0897  0.0726  0.0748
 4760W        W19891  12.462   1.563   4.431  0.1547 -0.4238  0.0031
 4761W        W19892   4.175  15.763   1.563  0.2415  0.1937 -0.0093
 4762W        W19893   8.786   0.496  12.015  0.0053 -0.0273  0.2031
 4763W        W19894  10.395   1.031  12.643 -0.1534  0.0309 -0.0097
 4764W        W19895  14.434   8.512  11.129  0.1911 -0.0292  0.0201
 4765W        W19896  15.442  12.778   3.668  0.1441 -0.0938 -0.0760
 4766W        W19897   6.520  10.056  12.730 -0.1718 -0.2621  0.2592
 4767W        W19898  17.809   4.921  14.350  0.1692 -0.2782  0.0279
 4768W        W19899  13.092   2.555   2.966 -0.1597 -0.0468  0.1019
 4769W        W19900   4.001  15.425  14.273  0.3754 -0.0717  0.0902
 4770W        W19901  12.032  16.286  12.860 -0.2032 -0.4481  0.1057
 4771W        W19902  11.120   4.271  13.030 -0.3490  0.2992 -0.2006
 4772W        W19903  14.127   9.144  16.126  0.3890  0.0904  0.4536
 4773W        W19904   0.471   8.187  13.037  0.0466  0.2871  0.0097
 4774W        W19905  15.942   7.862  14.915  0.1513 -0.1631 -0.1880
 4775W        W19906   3.879  16.852   2.888  0.0795  0.0224  0.0567
 4776W        W19907   6.273   1.183   1.942  0.0162  0.0299 -0.1349
 4777W        W19908  14.851  10.870   1.943 -0.0488  0.2954 -0.1096
 4778W        W19909  10.996   8.200   1.332 -0.2376 -0.3618 -0.0316
 4779W        W19910   9.254  15.211  13.416  0.1698  0.2317 -0.0521
 4780W        W19911  13.698   4.459   0.271 -0.0093 -0.1972  0.1298
 4781W        W19912   7.329   7.823  15.648 -0.1687 -0.0729 -0.1095
 4782W        W19913   9.904  10.979   5.322  0.0532 -0.1074 -0.1753
 4783W        W19914  10.777   4.726   5.087  0.1015 -0.0360 -0.3111
 4784W        W19915   8.758  14.790   3.758 -0.0204 -0.3134  0.1582
 4785W        W19916   8.976   7.213   6.259 -0.0659 -0.1879 -0.3238
 4786W        W19917  12.007  15.247   2.834 -0.1389 -0.0448  0.0943
 4787W        W19918   2.366  12.353   4.356  0.0963 -0.2348  0.2559
 4788W        W19919   6.750  10.613   6.054 -0.1637 -0.1935 -0.2124
 4789W        W19920  17.389  13.492   2.091  0.1830 -0.2565 -0.1974
 4790W        W19921   6.116  17.134  11.690 -0.0267 -0.1524 -0.1515
 4791W        W19922   9.045  14.061   5.402 -0.1939  0.2014 -0.0151
 4792W        W19923  15.563  13.553   2.195  0.1546 -0.5213  0.3048
 4793W        W19924  13.603   2.757  13.591 -0.1272  0.1576 -0.0598
 4794W        W19925  17.277  11.341   0.436 -0.3791 -0.0901 -0.0417
 4795W        W19926   4.478  17.756  16.283  0.1656  0.3613  0.2254
 4796W        W19927  15.304   1.232  13.867  0.1393  0.2260 -0.0132
 4797W        W19928   2.929  15.404   0.988  0.0784  0.3480  0.2278
 4798W        W19929   6.284   0.679  14.938 -0.0503 -0.2596  0.0109
 4799W        W19930   4.781   9.143  16.518 -0.1824 -0.1805 -0.3184
 4800W        W19931   0.315   0.256  12.930 -0.1410 -0.4990  0.2354
 4801W        W19932  12.313  15.074   2.124  0.1040  0.1709 -0.0249
 4802W        W19933   9.938  11.994   2.248  0.1160 -0.0314 -0.0278
 4803W        W19934   6.859  13.273   4.751  0.3001 -0.0521 -0.2595
 4804W        W19935   0.426  12.742  13.200  0.1233 -0.2768  0.0196
 4805W        W19936  12.770   4.132  13.434  0.3724  0.2871 -0.1894
 4806W        W19937   0.831  11.715   4.696  0.0466 -0.0080  0.1054
 4807W        W19938  17.457   1.270  13.523 -0.1388 -0.2511  0.2623
 4808W        W19939   4.042  17.209  12.308 -0.0217 -0.0666  0.2885
 4809W        W19940   1.126  13.216   2.040 -0.0817 -0.1669 -0.0691
 4810W        W19941   2.444  16.996   3.794  0.0355  0.0493  0.0271
 4811W        W19942  14.992   1.574  15.901 -0.1698  0.2911 -0.3237
 4812W        W19943   1.623  10.026  12.255 -0.1155 -0.0355  0.1456
 4813W        W19944  15.896   6.845   2.741  0.0951  0.0197  0.0058
 4814W        W19945   2.145   3.475   3.800  0.2506  0.0153 -0.1749
 4815W        W19946   1.885   5.862  12.577 -0.1831  0.0226  0.0136
 4816W        W19947  12.930  10.829   0.576  0.1396 -0.0777  0.3378
 4817W        W19948   2.754   2.435   4.129  0.2739 -0.2395  0.1529
 4818W        W19949   3.750   0.949  16.633  0.1997  0.0094 -0.2078
 4819W        W19950   0.075  11.422   6.235  0.0428 -0.0400  0.2479
 4820W        W19951   4.711  15.453  14.182 -0.1040 -0.2040  0.0654
 4821W        W19952   9.932   2.200  10.944  0.0081  0.1585 -0.0435
 4822W        W19953  15.916  11.940  11.817 -0.3308  0.1596  0.2435
 4823W        W19954  15.859  16.514  16.238  0.0437  0.0060 -0.2027
 4824W        W19955   6.641   5.347  11.846  0.1944  0.0351 -0.1943
 4825W        W19956  12.915   6.656   3.524 -0.0616  0.0016  0.2062
 4826W        W19957   2.235   3.586   3.261  0.2533 -0.1174  0.0542
 4827W        W19958  12.504   0.818   2.204 -0.0051  0.0903 -0.2059
 4828W        W19959   9.938   6.600  13.173 -0.2303  0.1306  0.2588
 4829W        W19960  15.635  13.185  11.799 -0.0792 -0.1224  0.0986
 4830W        W19961   0.491   8.516   1.827  0.0625  0.1120 -0.2818
 4831W        W19962   6.207  16.028   1.512  0.0101  0.0562  0.0366
 4832W        W19963   7.674   7.699   2.397 -0.0618  0.0497 -0.0591
 4833W        W19964   8.053  17.113  13.369  0.0002  0.2619  0.3580
 4834W        W19965   5.478  15.943   1.079  0.1133  0.2646 -0.0056
 4835W        W19966   4.976  11.596  11.624  0.2723  0.0322  0.1709
 4836W        W19967  10.202  12.173  12.242 -0.0868 -0.1941  0.0082
 4837W        W19968   3.553   1.936  16.057  0.0604 -0.0785 -0.2154
 4838W        W19969   4.357   1.875   3.338 -0.0839 -0.1599 -0.3204
 4839W        W19970  14.807  10.594   0.451 -0.0130 -0.0703 -0.0536
 4840W        W19971  16.787   8.477   3.892 -0.0235  0.3537 -0.0228
 4841W        W19972   4.342   5.873  12.502 -0.0415  0.2450  0.4219
 4842W        W19973   7.626  12.546   0.022 -0.0807  0.5700 -0.0905
 4843W        W19974  12.680   2.745   2.070 -0.1112  0.1274  0.0657
 4844W        W19975  17.139   6.600  12.863  0.3148 -0.0320  0.0685
 4845W        W19976  10.680  14.635   5.383  0.0426  0.0039  0.1393
 4846W        W19977  11.645   4.111  11.412  0.3896 -0.1659  0.0010
 4847W        W19978  10.936  10.047   1.014 -0.0563 -0.0590  0.2278
 4848W        W19979   8.798  13.614   5.542  0.1362  0.0258  0.0208
 4849W        W19980  13.194   0.472   4.315 -0.0521  0.1324 -0.0015
 4850W        W19981  12.851  17.646  15.390  0.0713 -0.3305 -0.0883
 4851W        W19982   1.848  10.529  16.762  0.2658  0.1160 -0.0800
 4852W        W19983  11.063  10.466  15.028  0.1135 -0.3029  0.3003
 4853W        W19984  14.959   4.595  13.500 -0.1968 -0.1190  0.2221
 4854W        W19985   1.516  16.364  15.441 -0.2648 -0.0883 -0.0039
 4855W        W19986   8.665   0.416  14.460 -0.0413  0.2170  0.1694
 4856W        W19987  10.901  13.102  15.209  0.1391  0.0044  0.0430
 4857W        W19988   9.943   5.654   0.346  0.1834  0.1227 -0.2821
 4858W        W19989  15.817   7.760  12.720  0.1176  0.0647 -0.3463
 4859W        W19990  13.163   1.840   5.522  0.0374  0.1154 -0.0819
 4860W        W19991   2.350   9.207  12.025  0.1460  0.0524  0.2637
 4861W        W19992   3.397   0.842  13.003  0.1508  0.2233  0.1967
 4862W        W19993  12.661   0.834  11.219  0.0119  0.0721  0.0488
 4863W        W19994   3.641   3.705  11.406 -0.1348  0.1212  0.1390
 4864W        W19995  10.953  16.467  14.651 -0.0799  0.2752  0.0244
 4865W        W19996   0.795   6.918   0.933 -0.1753 -0.1450 -0.0172
 4866W        W19997  16.696   9.174   2.358  0.3711  0.1166 -0.0706
 4867W        W19998   8.686   7.872   0.064 -0.0440  0.1101 -0.2642
 4868W        W19999   2.546   9.204  11.555  0.2005  0.2219  0.0849
 4869W        W20000  12.933  15.455   3.791 -0.0358  0.4235  0.0678
 4870W        W20001  14.526  10.082  16.051  0.0037  0.0683 -0.1394
 4871W        W20002  16.066  16.284   4.306  0.3352  0.1022  0.0160
 4872W        W20003   7.409  11.544   4.122  0.1433 -0.1863  0.2792
 4873W        W20004   0.729  15.405   4.758  0.1577 -0.2211  0.2968
 4874W        W20005  14.874  13.406   3.497 -0.2059  0.1670 -0.0362
 4875W        W20006   4.866   6.627   3.809 -0.2343 -0.0649  0.0600
 4876W        W20007   6.192  11.112  11.192 -0.0498 -0.0755 -0.1090
 4877W        W20008   0.789  10.121  14.864 -0.1115  0.2847  0.1997
 4878W        W20009   0.401  15.565  13.101 -0.2698  0.1314 -0.0959
 4879W        W20010   6.857   5.946   3.683 -0.2025  0.1235 -0.1725
 4880W        W20011  17.000   9.085   4.424  0.1699 -0.2387 -0.0140
 4881W        W20012   5.848   7.348  13.433  0.1563  0.0880  0.0120
 4882W        W20013  11.681   1.678  11.119  0.2005  0.0352  0.1020
 4883W        W20014  13.737  17.266  15.681  0.1616 -0.3311 -0.0102
 4884W        W20015   3.825  14.732   1.652 -0.1724  0.0839 -0.3863
 4885W        W20016  13.840   1.505   3.071 -0.2893  0.2149 -0.3785
 4886W        W20017  14.192   4.251  12.179  0.2684 -0.0242 -0.2065
 4887W        W20018   3.553   3.484  13.597 -0.0209 -0.0979  0.1017
 4888W        W20019  14.975   4.500  12.454 -0.1853 -0.0293 -0.2343
 4889W        W20020  16.662   7.120   6.352 -0.1348 -0.0791  0.0662
 4890W        W20021  10.097   8.069   3.592 -0.0067 -0.0967 -0.5180
 4891W        W20022  12.375   3.168  15.818  0.0231 -0.1963 -0.2500
 4892W        W20023  10.432   6.538   3.061 -0.1285 -0.0455 -0.1047
 4893W        W20024  12.147  10.419   0.851  0.0155  0.0169 -0.1205
 4894W        W20025  10.895  10.630  16.349 -0.1955 -0.2479  0.0735
 4895W        W20026   7.803  16.972  12.974  0.0575 -0.1321 -0.0794
 4896W        W20027  11.740   9.121   1.243  0.0317 -0.0093  0.2937
 4897W        W20028   3.314  12.694   4.118 -0.0011  0.0253  0.0885
 4898W        W20029  14.954  15.840   2.343 -0.2402 -0.0745  0.0762
 4899W        W20030  11.191  11.874  15.201  0.2525 -0.0286 -0.3262
 4900W        W20031   1.082  15.674  14.452 -0.1687  0.0062 -0.3047
 4901W        W20032   7.490  17.221   5.285 -0.0385  0.0253  0.1293
 4902W        W20033   3.355  15.855   5.756 -0.1120  0.1859 -0.3228
 4903W        W20034   2.013   6.664  12.442 -0.1495 -0.1482 -0.0449
 4904W        W20035   1.061  13.076  12.676  0.0401 -0.1103  0.0564
 4905W        W20036   9.446  17.372   1.473  0.3004  0.2113 -0.1869
 4906W        W20037   6.160  15.832   2.089  0.1250 -0.1423 -0.0086
 4907W        W20038   7.931   6.718  13.039  0.0629 -0.2027 -0.2769
 4908W        W20039   7.723  15.078  14.586 -0.3546 -0.0941 -0.1035
 4909W        W20040   6.000  10.839  11.626  0.2300  0.0602 -0.2604
 4910W        W20041  10.328   0.824   0.515 -0.1380  0.3426 -0.0822
 4911W        W20042  11.884   5.570  11.566  0.2377  0.0149  0.1723
 4912W        W20043   7.113   9.341   4.728 -0.0218  0.0260  0.1478
 4913W        W20044  16.109   8.073  11.944  0.1193 -0.0601 -0.0446
 4914W        W20045   5.443  10.019   2.249  0.1335  0.2805  0.0723
 4915W        W20046  15.400   7.489  12.634 -0.2145  0.0138 -0.0053
 4916W        W20047   0.851  11.509   1.870  0.1916  0.0225 -0.2132
 4917W        W20048  17.206   0.691  12.085 -0.3499 -0.3711  0.1711
 4918W        W20049  13.062   3.629   5.897 -0.2751 -0.1608 -0.1273
 4919W        W20050   8.433  14.302   4.242  0.2323  0.0075 -0.1938
 4920W        W20051   4.155  15.261  12.422  0.3858  0.0260  0.3306
 4921W        W20052  14.161  12.972  13.438  0.0364  0.2089 -0.3582
 4922W        W20053  10.056   6.384   5.632 -0.0340  0.2034 -0.0459
 4923W        W20054   2.597   4.910  14.534  0.1291 -0.1102 -0.1504
 4924W        W20055   0.139  15.615  14.599 -0.0017  0.1296 -0.0227
 4925W        W20056   7.332   4.236   3.877 -0.3963  0.0442  0.2581
 4926W        W20057   9.757   0.931  16.701 -0.2868 -0.0088 -0.2948
 4927W        W20058  13.587  10.345  16.079 -0.1310 -0.1617  0.2371
 4928W        W20059  12.551   7.295   3.304 -0.2092  0.0731  0.0016
 4929W        W20060   4.731  14.724   5.122 -0.3309 -0.0640  0.3343
 4930W        W20061   7.666   8.680   4.087 -0.0427  0.0752 -0.0674
 4931W        W20062   6.066   4.660   1.648 -0.1009  0.2000 -0.2865
 4932W        W20063   7.606  13.268   5.976 -0.1310  0.0440 -0.0745
 4933W        W20064   7.265  15.388  15.246  0.2356  0.2988  0.0679
 4934W        W20065   1.006   1.414  13.004  0.0503  0.0512 -0.0753
 4935W        W20066  15.387   0.511   0.569 -0.0944  0.2412 -0.1872
 4936W        W20067  14.781   9.217  12.632  0.0920  0.1709  0.0581
 4937W        W20068   2.168  17.877  15.581 -0.3074 -0.3434  0.2623
 4938W        W20069   4.614  12.230   5.550  0.2663  0.0099  0.1893
 4939W        W20070   0.723   7.127   5.209 -0.1890  0.1738  0.0517
 4940W        W20071   9.762   5.843  15.721 -0.1839  0.0946  0.2687
 4941W        W20072   1.135   2.999   5.296 -0.1394 -0.0939  0.0648
 4942W        W20073   5.043  15.166  15.044 -0.0328 -0.2329 -0.0835
 4943W        W20074  17.866   4.323  14.388  0.1558 -0.2576  0.0084
 4944W        W20075  10.913  16.380   5.206 -0.1800  0.0442  0.1243
 4945W        W20076   9.162  13.104  11.989  0.1098  0.0545 -0.1334
 4946W        W20077   9.808   6.807   0.495 -0.0438 -0.3150  0.0955
 4947W        W20078  10.478   6.020   4.554 -0.3401 -0.4323  0.1244
 4948W        W20079   7.386   0.857  10.955  0.0889 -0.3235  0.1028
 4949W        W20080  17.347   3.893  11.894 -0.2060  0.0222  0.2957
 4950W        W20081  16.497  13.821   1.775 -0.2934  0.0053  0.2062
 4951W        W20082   6.381   5.040  14.419  0.0222 -0.0714 -0.0650
 4952W        W20083   5.617   4.679   5.167  0.2643 -0.4259 -0.2023
 4953W        W20084  17.287  12.952  12.593  0.1513 -0.0430 -0.0186
 4954W        W20085  16.108  16.555   0.256 -0.1065  0.1471  0.0404
 4955W        W20086   6.876   8.828   0.410 -0.1651 -0.0127 -0.0606
 4956W        W20087  12.080   9.504  15.941  0.0793  0.1270 -0.0451
 4957W        W20088   5.793   5.619   3.808  0.1940  0.0092 -0.0509
 4958W        W20089   0.285   0.085   4.748 -0.1971  0.0146 -0.0998
 4959W        W20090   9.292  13.246   6.295 -0.0860  0.1470  0.1835
 4960W        W20091  16.419   8.668   6.329 -0.1481 -0.2855  0.2107
 4961W        W20092   9.376  14.777   2.342 -0.1633 -0.1020 -0.1504
 4962W        W20093   0.011   6.342   1.844 -0.1466  0.3290 -0.0613
 4963W        W20094  14.015  11.486   3.246  0.2842  0.1655  0.0120
 4964W        W20095   5.217   5.482   0.175 -0.1245 -0.2339  0.0345
 4965W        W20096   8.705   3.610   1.295 -0.0976  0.1517 -0.1773
 4966W        W20097   8.763  12.107   0.355  0.3838  0.0044 -0.0382
 4967W        W20098  13.252   2.763  16.380  0.0067 -0.1346  0.1987
 4968W        W20099   7.370   3.200   3.930  0.0729 -0.1057 -0.1291
 4969W        W20100  11.176  10.778  11.638 -0.1606  0.2624 -0.1177
 4970W        W20101   9.629   2.762  15.374  0.2058  0.0874 -0.2198
 4971W        W20102  14.272   7.473  15.774  0.0353  0.0502  0.0355
 4972W        W20103   1.283   3.314  14.304  0.0281  0.0745 -0.2303
 4973W        W20104   7.843  11.761   1.486  0.1204 -0.0589 -0.0919
 4974W        W20105   7.055  12.665  11.746 -0.1292 -0.2352 -0.0697
 4975W        W20106  12.105   7.870   3.666  0.1784 -0.0266 -0.1444
 4976W        W20107   4.579  14.290  15.556 -0.2679 -0.2813 -0.1582
 4977W        W20108  15.400   3.199  15.920  0.2294  0.1422 -0.2084
 4978W        W20109  17.548  16.635  15.047  0.1629 -0.0755  0.0055
 4979W        W20110  12.460   5.801   1.709 -0.0325 -0.1792 -0.3721
 4980W        W20111   0.900   9.805  16.080 -0.2245 -0.0212 -0.0550
 4981W        W20112   8.443  11.003  12.840 -0.1645  0.1970 -0.1697
 4982W        W20113   2.904  17.797  12.271  0.1474  0.2484  0.1146
 4983W        W20114   7.323   1.103   1.376  0.1225 -0.1090 -0.1126
 4984W        W20115  16.435   5.180   4.683  0.1121  0.3219  0.0523
 4985W        W20116  10.169  15.501   2.330 -0.1291 -0.1470  0.1862
 4986W        W20117   8.298   8.664  13.426 -0.2001  0.0479  0.1226
 4987W        W20118   5.301   1.028  12.246  0.2132 -0.4205 -0.3432
 4988W        W20119  16.882  14.189   1.560  0.1626 -0.0639 -0.1266
 4989W        W20120  15.562   7.626   4.006 -0.2469  0.1297  0.0254
 4990W        W20121  16.919  13.362   1.880  0.0287  0.2899 -0.0697
 4991W        W20122   7.161  13.774   1.950 -0.0147 -0.0023  0.0463
 4992W        W20123  13.850  14.904  16.775  0.0398  0.0889  0.0745
 4993W        W20124  13.939   1.233  12.431 -0.0954  0.0835 -0.3056
 4994W        W20125   2.185   5.479   4.059  0.3268  0.1123  0.1862
 4995W        W20126  10.648  16.806  12.720  0.1042  0.0862  0.3737
 4996W        W20127  15.922   7.588   2.225  0.1860 -0.1743  0.1769
 4997W        W20128  14.432  13.263   5.616 -0.2292 -0.1414 -0.2107
 4998W        W20129   6.771  10.841   1.528 -0.3162  0.0308  0.3975
 4999W        W20130   6.394   0.145  11.439 -0.2531  0.2485 -0.0377
 5000W        W20131   2.544   9.659  13.299  0.2788 -0.2355 -0.0897
 5001W        W20132   2.783   1.910   0.329  0.0393 -0.1987 -0.0981
 5002W        W20133   0.658   4.978   4.426  0.0365  0.0550  0.1075
 5003W        W20134  15.390   8.992   5.260  0.0496 -0.4200 -0.0318
 5004W        W20135   3.045   1.975  14.101  0.0045 -0.0053 -0.2325
 5005W        W20136  13.981  17.302  14.213 -0.1594 -0.1007 -0.0031
 5006W        W20137   3.736   2.307   0.051  0.0772 -0.0204  0.1946
 5007W        W20138   5.251  15.014   1.064 -0.0220 -0.2109 -0.0204
 5008W        W20139   2.530   5.920  14.740 -0.1537 -0.1237 -0.2748
 5009W        W20140   6.924   6.175   2.735  0.1685 -0.4355  0.2222
 5010W        W20141   6.800  12.478   1.504 -0.2096  0.2014 -0.1091
 5011W        W20142  13.667   6.801  16.667 -0.1859  0.2820  0.0370
 5012W        W20143   8.742  13.867   0.072 -0.0479 -0.1425  0.0480
 5013W        W20144   7.124   1.495  11.369 -0.1623 -0.0415 -0.1326
 5014W        W20145  17.658  14.647  12.277  0.0911  0.0738  0.1308
 5015W        W20146   0.464  12.540  12.706 -0.1744  0.0746  0.0399
 5016W        W20147   3.252   1.872  12.933 -0.0594  0.0407  0.0331
 5017W        W20148   2.262  11.238  14.747  0.0202  0.0527 -0.1552
 5018W        W20149  16.612   8.726   4.464 -0.0410 -0.1021 -0.0705
 5019W        W20150   8.123   1.309  14.311 -0.1266 -0.1496  0.1583
 5020W        W20151   9.631   8.700   4.021 -0.0952 -0.1217  0.0910
 5021W        W20152  17.401   8.967  14.842  0.0292 -0.1818  0.0350
 5022W        W20153  15.776  10.891  15.178  0.0185  0.0245  0.1205
 5023W        W20154   2.544   7.909  11.826  0.0629 -0.0902 -0.0943
 5024W        W20155   9.697   0.226  13.527 -0.2202 -0.1706 -0.2038
 5025W        W20156   5.105  14.988   6.007 -0.1423 -0.2906 -0.1992
 5026W        W20157   5.667   2.724  13.301 -0.2603 -0.1533  0.0193
 5027W        W20158   3.963  16.989   1.854  0.0381  0.0185  0.0233
 5028W        W20159   0.798  16.263   1.804 -0.0058 -0.2612 -0.1501
 5029W        W20160   8.785  15.680  15.818 -0.1347 -0.1061 -0.1994
 5030W        W20161   9.093  10.447  16.625  0.4290  0.0799 -0.1231
 5031W        W20162   2.328   3.914  11.717  0.3812 -0.5131 -0.0364
 5032W        W20163   0.597  14.532   2.851  0.0663  0.0822 -0.3914
 5033W        W20164  16.409   9.928   4.838 -0.0096  0.0544 -0.0852
 5034W        W20165  11.069   6.441  15.964 -0.2135  0.3374  0.3405
 5035W        W20166   0.042  12.056  13.799 -0.2657  0.0191  0.0006
 5036W        W20167  12.072   6.474   5.493 -0.1618  0.1928  0.0602
 5037W        W20168   6.178  17.421  16.478 -0.0881 -0.2044 -0.1019
 5038W        W20169   9.480  13.712   1.624 -0.0130  0.1289  0.0204
 5039W        W20170   3.399   6.047   0.548  0.0348 -0.1061 -0.0416
 5040W        W20171   2.673  12.026  14.954  0.0630  0.1995  0.2922
 5041W        W20172   8.329  15.600   1.540 -0.1517 -0.0905 -0.1228
 5042W        W20173   4.328  11.813   2.722  0.2574 -0.1998  0.1588
 5043W        W20174  15.395  13.722   1.747  0.3046  0.1441 -0.0716
 5044W        W20175   4.325   3.653   0.489  0.2889 -0.1490 -0.0877
 5045W        W20176  17.018   7.066  15.917  0.1741 -0.2460 -0.2486
 5046W        W20177  12.527  10.099   0.942  0.3103 -0.1788 -0.1563
 5047W        W20178  14.070   1.894  15.548  0.1016 -0.1285  0.0905
 5048W        W20179  12.719   5.932   0.639  0.4366 -0.2585 -0.2111
 5049W        W20180   9.269   8.132  15.786 -0.0413  0.1678 -0.1760
 5050W        W20181  17.574  13.117   2.418 -0.1256  0.0568 -0.1234
 5051W        W20182   0.509   4.610   0.544  0.0405 -0.0531  0.0374
 5052W        W20183  17.204   9.861  15.212  0.1904 -0.3083  0.0481
 5053W        W20184   9.883  13.999  11.663  0.2317  0.2867  0.0016
 5054W        W20185   8.289  13.571   0.636 -0.0810  0.0996  0.3316
 5055W        W20186  12.722   4.361  15.750 -0.1638  0.3995 -0.0570
 5056W        W20187  15.373   4.650   0.931 -0.0905  0.2698 -0.0552
 5057W        W20188   0.669   6.126  13.763 -0.5334  0.1890 -0.2685
 5058W        W20189   0.968  17.547   2.605  0.0084  0.2061 -0.0044
 5059W        W20190  14.164   6.975   2.593  0.2271  0.0332  0.0627
 5060W        W20191  11.709  10.378   3.224 -0.0005 -0.3440  0.1671
 5061W        W20192   5.851   9.833   0.689 -0.2575 -0.0563 -0.0613
 5062W        W20193   2.756   3.351   1.461  0.1227 -0.2252  0.1992
 5063W        W20194  17.834   2.768  12.712  0.0366  0.1566 -0.1023
 5064W        W20195  14.922   3.028  15.768  0.1940  0.0013  0.0871
 5065W        W20196   6.446   6.270   3.970 -0.2363 -0.1545 -0.1241
 5066W        W20197  14.428  12.796  16.540  0.2165  0.0198 -0.1235
 5067W        W20198   7.091   8.750  11.163  0.0298 -0.0683 -0.1032
 5068W        W20199  16.321   0.622   3.157  0.0337 -0.0721 -0.2890
 5069W        W20200   0.082  13.736   4.794  0.2915  0.2960 -0.0193
 5070W        W20201   7.264   6.080  16.735  0.2989  0.2192 -0.0552
 5071W        W20202   5.687  12.141   3.567  0.3090 -0.1141  0.0646
 5072W        W20203   0.779  10.380  14.047 -0.3295 -0.1903 -0.0281
 5073W        W20204  11.379   2.736  13.436  0.3358  0.0503  0.1217
 5074W        W20205   9.849  11.514   3.181 -0.1217 -0.1684  0.1544
 5075W        W20206   7.622   7.167   3.696  0.1998  0.1933 -0.2150
 5076W        W20207  11.473   4.482  15.387  0.3880  0.2701  0.1986
 5077W        W20208   0.498  10.223   5.845 -0.1182  0.1093 -0.3547
 5078W        W20209   1.631  10.766   0.336  0.0112 -0.0090 -0.1694
 5079W        W20210   0.625  17.298   5.962  0.2560 -0.1925 -0.0587
 5080W        W20211   4.276   0.994   0.061  0.0736 -0.1528  0.1133
 5081W        W20212  12.126   1.173  14.791  0.0061 -0.0832 -0.1562
 5082W        W20213   9.531  12.926  10.774 -0.0588  0.3113 -0.1422
 5083W        W20214   5.473  11.441   2.158  0.2027 -0.0712 -0.3230
 5084W        W20215   4.167   0.954   5.716  0.1673  0.3715 -0.1207
 5085W        W20216   9.984  15.105  12.385  0.2157 -0.0987 -0.0882
 5086W        W20217   2.455  10.702  11.975  0.2157 -0.0704  0.0174
 5087W        W20218  15.379  15.565   0.248  0.0151  0.3853  0.4073
 5088W        W20219   4.994  16.719  16.625 -0.1627 -0.2647  0.0015
 5089W        W20220  11.856   4.543   4.246  0.1875 -0.1220  0.0565
 5090W        W20221  11.804   7.567  14.148  0.1639  0.0403  0.0561
 5091W        W20222   6.214   3.614   0.706  0.1732 -0.0880  0.0848
 5092W        W20223  17.070  15.892   1.081 -0.1192  0.0931  0.0073
 5093W        W20224   3.091   6.493   5.641 -0.2654  0.0629  0.0938
 5094W        W20225  11.853   7.650   4.620 -0.1601  0.4511 -0.0308
 5095W        W20226  13.936   3.659   2.302 -0.1178  0.0922  0.1351
 5096W        W20227   6.637   9.103  13.729 -0.1970 -0.0044 -0.1355
 5097W        W20228   7.104  16.509  16.562 -0.1724 -0.1851 -0.0727
 5098W        W20229   3.082  13.732  14.409 -0.2311  0.0287  0.1485
 5099W        W20230   1.485   5.269   4.818  0.2206 -0.1545  0.0816
 5100W        W20231  10.824   1.205   4.778 -0.0063  0.2043  0.1601
 5101W        W20232   8.365   3.316  16.464  0.0338 -0.0086  0.1261
 5102W        W20233   8.035   9.971  15.264  0.0733 -0.1093  0.1613
 5103W        W20234   2.681   7.681   1.542  0.2091  0.1357 -0.0640
 5104W        W20235   6.385   1.159  10.689 -0.2673 -0.1126 -0.0467
 5105W        W20236   5.606   4.278  15.352 -0.0668 -0.1300 -0.1455
 5106W        W20237   8.950   1.248   4.684  0.0880 -0.1261 -0.0623
 5107W        W20238   6.425   8.868   6.180  0.1312 -0.0178 -0.1660
 5108W        W20239   1.670   4.355   3.382 -0.0082  0.0962 -0.1054
 5109W        W20240   9.295   2.901   5.170  0.2703  0.0500 -0.1277
 5110W        W20241  10.356   2.962  13.669 -0.2613  0.1374 -0.0488
 5111W        W20242   8.839  16.744   3.506 -0.0932 -0.0919  0.1909
 5112W        W20243  14.575  13.158   1.830 -0.4049 -0.1132  0.0745
 5113W        W20244   0.606  13.036  16.601 -0.0757 -0.0281  0.0325
 5114W        W20245   0.037   5.532  11.580 -0.1214  0.0390 -0.2157
 5115W        W20246  17.585   4.397   1.714 -0.1168 -0.0057 -0.1373
 5116W        W20247   6.755   2.066   5.529  0.0859 -0.0865 -0.2226
 5117W        W20248  14.249  13.976   3.435  0.0496 -0.3810 -0.0557
 5118W        W20249   4.254   2.367  11.544 -0.0647  0.0233 -0.0999
 5119W        W20250  14.695   8.771   4.459 -0.1875 -0.2219 -0.0120
 5120W        W20251   7.697  17.467   2.770  0.1663 -0.2410 -0.0946
 5121W        W20252   5.481  12.342  13.418  0.4305  0.2018 -0.0711
 5122W        W20253  12.691  12.879   3.423 -0.1352 -0.3135 -0.1404
 5123W        W20254   5.843  12.606  13.877  0.1807  0.1624 -0.1380
 5124W        W20255   6.891  15.212   5.951  0.1283 -0.0617 -0.3199
 5125W        W20256  10.118   6.107  16.686  0.1584 -0.0220 -0.5362
 5126W        W20257  16.844   1.632   1.260  0.0014 -0.3490 -0.0503
 5127W        W20258   1.398  10.114   0.241 -0.0728  0.1748 -0.0707
 5128W        W20259   7.907  15.030   4.036  0.0034  0.0195  0.3051
 5129W        W20260   2.153  11.829   3.545 -0.0934 -0.2365 -0.0475
 5130W        W20261   8.974   0.664   1.803 -0.2151  0.0712 -0.0810
 5131W        W20262   2.236  11.633  15.666  0.0321  0.0257  0.1857
 5132W        W20263  12.986  10.453  14.847 -0.0493 -0.0571 -0.1665
 5133W        W20264  17.689  15.824  15.637 -0.1070  0.2748 -0.1211
 5134W        W20265  17.822   2.224   0.708  0.0845  0.1486  0.2014
 5135W        W20266  15.027   7.171   0.960  0.1228  0.1834  0.3214
 5136W        W20267   1.266   4.944   2.453  0.4269 -0.0062 -0.0561
 5137W        W20268  10.246  12.814  14.948 -0.3280  0.0532 -0.1622
 5138W        W20269  11.875  12.059  14.704  0.0198  0.1942  0.0089
 5139W        W20270   0.926   7.716  12.254  0.1236 -0.0684  0.0986
 5140W        W20271   9.062  15.180  16.226 -0.0054  0.1292 -0.0757
 5141W        W20272  15.827   0.449   1.286  0.1726  0.3295  0.1696
 5142W        W20273   4.084  16.380  12.206 -0.1245 -0.0919  0.0350
 5143W        W20274   9.986   6.432  11.703  0.0827  0.1117  0.2036
 5144W        W20275   0.703   0.986   3.766 -0.0628  0.0679 -0.1275
 5145W        W20276  15.506  10.882  13.679 -0.0517  0.2120  0.0502
 5146W        W20277   0.633   6.277   4.181 -0.1982 -0.0345 -0.0863
 5147W        W20278   8.119   2.460  10.289 -0.1861  0.0624 -0.2234
 5148W        W20279   2.736  15.817   1.811  0.0587 -0.1733 -0.0633
 5149W        W20280  15.651   0.637   6.172  0.0079  0.1644  0.1353
 5150W        W20281   7.023  11.501  16.515  0.0769 -0.1731 -0.0569
 5151W        W20282   9.691  10.006   0.776 -0.0063  0.1856  0.0747
 5152W        W20283   6.928   4.715   0.988 -0.1505 -0.0851  0.0555
 5153W        W20284  12.632  14.205  12.213 -0.1959  0.2583  0.0950
 5154W        W20285   6.348   0.834  12.278  0.2615 -0.1643  0.3284
 5155W        W20286  14.775  16.381   0.424  0.0974 -0.0977  0.0765
 5156W        W20287   8.482   8.414   0.886  0.0783 -0.0900 -0.1195
 5157W        W20288   1.469  17.860  14.676  0.1618  0.1208  0.0634
 5158W        W20289   7.117   5.375  16.261 -0.0585  0.2359  0.2675
 5159W        W20290   2.001   6.421  13.855  0.0732  0.0002  0.1707
 5160W        W20291  13.202  15.883   4.327  0.2431  0.2121 -0.4690
 5161W        W20292   5.697   9.475   3.154  0.0256 -0.2601  0.1610
 5162W        W20293  17.659  12.107   4.465 -0.4413 -0.1089  0.1291
 5163W        W20294   1.063  10.866   6.080 -0.1137 -0.0968  0.1981
 5164W        W20295  16.253   9.852   5.793  0.0106 -0.0235 -0.0008
 5165W        W20296  17.086   9.921   1.618  0.0707 -0.0987  0.1882
 5166W        W20297   4.950   6.099   6.429  0.1242 -0.2425 -0.3428
 5167W        W20298   2.911   8.383  10.588 -0.0278  0.0550  0.0242
 5168W        W20299   4.839  13.649   5.774 -0.0370 -0.0782  0.0391
 5169W        W20300  10.806   7.158   2.950  0.1511  0.1356 -0.1959
 5170W        W20301   6.784  15.925  14.075 -0.0369 -0.0695  0.1748
 5171W        W20302   6.010   6.281   4.911 -0.2607  0.0828 -0.1790
 5172W        W20303  11.639  14.983   0.051 -0.0097  0.0259  0.0292
 5173W        W20304   7.972  13.623  12.918  0.1240 -0.2841  0.2206
 5174W        W20305   1.792   9.569   5.936  0.2240  0.0924 -0.1343
 5175W        W20306   3.262   8.127  13.910  0.2432  0.1354 -0.0208
 5176W        W20307  12.994  15.229  10.309 -0.1274  0.1137 -0.0341
 5177W        W20308   6.625  17.435   2.603  0.2451  0.2059  0.0524
 5178W        W20309   2.979  13.987  11.494 -0.1168  0.2369  0.0531
 5179W        W20310   7.596  13.841   4.575 -0.0545  0.0066  0.2321
 5180W        W20311  17.297   1.027  14.619  0.1483  0.2584  0.1881
 5181W        W20312   5.030   9.315   2.090  0.0331  0.4187 -0.2116
 5182W        W20313  17.430   4.079  15.373  0.1082  0.0680  0.1455
 5183W        W20314   5.748   6.807   2.523 -0.0876 -0.4226  0.1595
 5184W        W20315   7.556  12.526   4.012  0.3596 -0.1463 -0.1960
 5185W        W20316   7.415   4.817   1.081  0.1766 -0.0531 -0.1548
 5186W        W20317  11.717   2.151  10.770  0.0444 -0.2265 -0.0732
 5187W        W20318   0.395  16.928  12.508  0.1637 -0.1218 -0.0082
 5188W        W20319  14.969   6.597  14.768  0.3046  0.0198 -0.0966
 5189W        W20320  11.804   5.082   4.104  0.3362 -0.0181  0.0337
 5190W        W20321   9.643  10.142   2.218  0.0078 -0.1640  0.1695
 5191W        W20322  11.668  16.479  14.321  0.0650 -0.0842  0.1498
 5192W        W20323   1.400  13.026   2.458 -0.2123  0.1456  0.0851
 5193W        W20324  10.177   0.543   5.605 -0.1603 -0.1655  0.3469
 5194W        W20325  15.191   4.197   1.684 -0.0382 -0.0357  0.1055
 5195W        W20326   1.287   8.110  13.373  0.0535  0.1172  0.2183
 5196W        W20327  10.615   6.548  11.998  0.1201 -0.1266  0.2888
 5197W        W20328   4.558  16.992   0.686  0.0251  0.1349  0.2863
 5198W        W20329  14.878   9.229  14.307  0.3186 -0.1172  0.0340
 5199W        W20330   2.555   4.656   2.012 -0.2676 -0.2921  0.0602
 5200W        W20331  10.755  16.037  11.677 -0.1155  0.0722 -0.1344
 5201W        W20332  17.389  17.009  15.328  0.1340  0.0219  0.0181
 5202W        W20333  15.467   1.742   5.290  0.0431 -0.1234  0.0037
 5203W        W20334   8.471  11.319   0.767 -0.3451  0.2267  0.0059
 5204W        W20335  12.583  11.412   3.673 -0.1201 -0.0339  0.2030
 5205W        W20336  11.636  16.420  15.466  0.2010  0.0115  0.4773
 5206W        W20337   1.423   2.820   1.487 -0.1055  0.0891 -0.0983
 5207W        W20338  15.226   8.250   2.054 -0.1926  0.0982 -0.1597
 5208W        W20339   3.692   7.761   1.417 -0.7283 -0.2388  0.1772
 5209W        W20340  10.640   3.514  14.231  0.1293  0.0141  0.0297
 5210W        W20341  10.950   0.568  15.612  0.2480  0.1948 -0.3148
 5211W        W20342   5.364   5.811   1.159  0.0008  0.0708  0.2405
 5212W        W20343   0.687   8.428  15.967 -0.0767 -0.1338  0.1683
 5213W        W20344   7.972   1.163  16.289 -0.3752  0.4881  0.2224
 5214W        W20345   9.419   9.477   2.775 -0.0095 -0.0769 -0.3588
 5215W        W20346   2.938   1.344  14.827 -0.0783 -0.0132  0.1804
 5216W        W20347  15.064  13.301   1.112  0.0337  0.1827  0.2993
 5217W        W20348  12.266  11.082   1.658 -0.0197 -0.0499 -0.1221
 5218W        W20349   0.472  17.589   2.544  0.0994  0.0828 -0.2221
 5219W        W20350   5.317   0.770  14.923  0.2285 -0.1172 -0.0455
 5220W        W20351   8.616   9.916  14.630 -0.2260 -0.0528  0.1423
 5221W        W20352   2.216   0.796  14.219  0.0365 -0.3268  0.1205
 5222W        W20353   2.811  16.883   0.059 -0.0124  0.0905  0.0203
 5223W        W20354   4.555  17.782   4.694  0.3031  0.2733 -0.2672
 5224W        W20355  13.171   0.563   2.468 -0.0467 -0.0535 -0.0108
 5225W        W20356   2.714   4.604   1.502 -0.1425 -0.4136 -0.0794
 5226W        W20357   7.231   6.961  12.041  0.0446  0.1605  0.2982
 5227W        W20358  10.667  16.429   2.127  0.0276 -0.1331  0.0172
 5228W        W20359   7.974  13.523  14.840 -0.0245  0.0801  0.2026
 5229W        W20360  11.320   5.841  14.332 -0.1582  0.0445 -0.1428
 5230W        W20361   0.028  16.995  15.899  0.0050 -0.1251 -0.2049
 5231W        W20362   5.720   3.493   1.648 -0.1366  0.1645  0.0229
 5232W        W20363  15.149   3.400   2.910 -0.3661 -0.1020  0.1248
 5233W        W20364   9.088  17.188  15.990  0.4027 -0.2618  0.0791
 5234W        W20365  15.126  16.718   2.352  0.1425 -0.1429  0.0864
 5235W        W20366   6.041  16.341   5.705  0.2009 -0.0538  0.1588
 5236W        W20367   9.280   3.272  14.268  0.2035 -0.0533  0.2239
 5237W        W20368   9.883   6.783   1.054  0.2129 -0.0409  0.0598
 5238W        W20369   4.353  16.966  15.844  0.1465  0.0207  0.0943
 5239W        W20370  15.005   2.532  12.904  0.0428 -0.3068  0.2922
 5240W        W20371  10.568   6.286  11.538 -0.1015 -0.1458  0.2306
 5241W        W20372   7.078  17.372  12.871 -0.1811 -0.1313  0.2076
 5242W        W20373  12.395   5.002  12.536  0.0842  0.0187  0.0061
 5243W        W20374   4.449  10.729  10.734  0.0159  0.0876 -0.0390
 5244W        W20375   4.879   9.873  14.146  0.0291  0.1305 -0.1675
 5245W        W20376   0.095   9.740   2.252  0.3633 -0.0363  0.0953
 5246W        W20377   6.977   3.741  13.584 -0.2112 -0.0869 -0.0056
 5247W        W20378  12.867  16.822   2.349 -0.0972 -0.2631  0.0802
 5248W        W20379   3.483   6.432   3.936 -0.2334 -0.1557 -0.1226
 5249W        W20380  15.753   1.786   0.573  0.2058  0.0313  0.1543
 5250W        W20381  15.020   9.426   3.764  0.0869  0.0088 -0.0960
 5251W        W20382   4.529   1.191   0.632 -0.1653 -0.2806  0.3904
 5252W        W20383   0.891   0.916  13.161 -0.0277 -0.1961 -0.3927
 5253W        W20384  11.587  15.269  14.692  0.2451  0.0455 -0.3516
 5254W        W20385   9.975  13.007   3.329 -0.0034  0.2119  0.1500
 5255W        W20386   3.633  11.098   5.288 -0.0632 -0.1688  0.3146
 5256W        W20387   9.465   5.896  13.372  0.0855  0.0780 -0.1359
 5257W        W20388  13.314   4.661   1.059 -0.0191 -0.0785  0.0649
 5258W        W20389  14.383  14.701  12.659  0.1244  0.0730  0.0815
 5259W        W20390   2.322  17.063   0.058 -0.1725 -0.2027 -0.1189
 5260W        W20391   3.429  14.691   5.968  0.0159  0.1175 -0.1219
 5261W        W20392  11.771   1.542  14.721  0.1300 -0.0565 -0.1140
 5262W        W20393   4.444  14.358  13.368 -0.2473  0.0327 -0.0715
 5263W        W20394  16.957   3.225   0.398  0.0712  0.0691 -0.0843
 5264W        W20395   4.524  16.821   3.538 -0.0482 -0.1995 -0.0761
 5265W        W20396   0.288   0.163  15.604  0.1328  0.4027  0.1882
 5266W        W20397   0.058  10.859   5.843 -0.1111 -0.1563 -0.1285
 5267W        W20398   2.475   2.654   1.557 -0.3458 -0.2750 -0.2251
 5268W        W20399  13.014   4.981   0.523  0.1764  0.0384  0.1067
 5269W        W20400   9.971   9.811   1.972  0.0921  0.0434  0.2388
 5270W        W20401  16.755   6.638   2.625 -0.2260  0.1747  0.2115
 5271W        W20402   3.378  13.450   3.996  0.0543 -0.1603 -0.0718
 5272W        W20403  16.624  16.110  13.968 -0.1401  0.0041  0.2609
 5273W        W20404   9.335  15.771  12.146 -0.2388 -0.3658 -0.3701
 5274W        W20405  15.193  12.371  14.267 -0.0533 -0.1950 -0.0628
 5275W        W20406   2.382  15.491   5.376 -0.0159 -0.1311  0.0440
 5276W        W20407   9.303   0.320  12.247  0.5246  0.1037 -0.2117
 5277W        W20408  14.121   3.902   2.957  0.1132  0.0299 -0.1558
 5278W        W20409  11.020  14.777  13.571 -0.1176  0.2661  0.0341
 5279W        W20410  10.075  10.009  14.713 -0.0369 -0.0823 -0.2622
 5280W        W20411   3.120   6.415   2.753  0.0146 -0.0743  0.1590
 5281W        W20412   8.023  10.162  13.416 -0.2337 -0.0472  0.0901
 5282W        W20413  17.225  13.484  14.357 -0.1045 -0.3133  0.1490
 5283W        W20414   2.338   6.724  15.415 -0.3424  0.0180  0.2335
 5284W        W20415   2.000  14.854  15.070 -0.1930  0.0899 -0.2417
 5285W        W20416   8.347   4.016   5.509 -0.0250 -0.1024 -0.2328
 5286W        W20417   5.587   5.453   2.204 -0.1552  0.2722 -0.0651
 5287W        W20418   1.883  11.818   0.332  0.0561 -0.1639  0.0748
 5288W        W20419   3.799  10.124   1.084  0.1010 -0.2588 -0.0256
 5289W        W20420  12.773   0.177   1.175  0.1935 -0.0080  0.2729
 5290W        W20421   6.395   2.191  14.335 -0.2228  0.0100 -0.0012
 5291W        W20422  13.687  11.286   2.246  0.3892 -0.1249 -0.1850
 5292W        W20423  15.281  12.711  15.199 -0.1050 -0.0436  0.0013
 5293W        W20424  16.584   5.525  13.828 -0.1658  0.2023 -0.1771
 5294W        W20425  10.082  15.750  14.478 -0.3031 -0.0906  0.0562
 5295W        W20426  14.458   0.331   3.063 -0.1265 -0.1400 -0.2505
 5296W        W20427   1.616  17.021   5.038 -0.0972  0.1990 -0.0685
 5297W        W20428  15.374  12.083  16.122  0.0584 -0.0869  0.1272
 5298W        W20429   9.641   0.281   2.266 -0.1305  0.1495 -0.0067
 5299W        W20430   1.347  17.660   5.545 -0.2023 -0.0796  0.1854
 5300W        W20431   2.387   4.871   0.103 -0.1292  0.1965  0.3529
 5301W        W20432  14.242  12.873   4.318 -0.1631  0.0110 -0.1165
 5302W        W20433   5.277   2.046   1.320  0.0839 -0.4076 -0.3983
 5303W        W20434  10.828   1.228  10.883  0.0486  0.0762 -0.0346
 5304W        W20435   8.490  15.341  15.510 -0.2105 -0.0329 -0.0175
 5305W        W20436   0.785   0.068  12.787 -0.0943 -0.3180  0.0997
 5306W        W20437   9.768  12.516  14.711  0.0770 -0.1185 -0.1504
 5307W        W20438  14.543  11.048  13.904  0.0694 -0.1502  0.1538
 5308W        W20439  14.409   9.631   4.527 -0.1619 -0.2770 -0.0467
 5309W        W20440   9.595   4.527   3.455 -0.2159  0.0087 -0.2483
 5310W        W20441   4.668   3.459   3.775 -0.0883 -0.2947  0.0491
 5311W        W20442   0.946  10.643  13.244 -0.1970  0.0303  0.1039
 5312W        W20443  11.936  17.421   3.429 -0.1171 -0.0011  0.2590
 5313W        W20444  13.068  11.999   1.265 -0.0951  0.0973 -0.2024
 5314W        W20445  14.972   5.845   1.378  0.0025  0.3857 -0.2263
 5315W        W20446   4.336   5.221   3.498 -0.1839  0.3088 -0.1610
 5316W        W20447   4.905   5.588   1.033  0.2020  0.0550  0.1876
 5317W        W20448   9.958  14.643   5.329 -0.1061 -0.1208  0.0001
 5318W        W20449  16.317   9.420   1.230  0.0879 -0.0840  0.0895
 5319W        W20450  15.360   0.725   2.414  0.0898  0.1941 -0.1855
 5320W        W20451   7.608   3.225  11.190  0.0092 -0.1013  0.0736
 5321W        W20452   3.388   3.295   0.688  0.2047  0.0727  0.0568
 5322W        W20453   4.391  10.094  12.497  0.0964 -0.2661  0.2652
 5323W        W20454   9.799   6.551   3.810 -0.0330 -0.2200 -0.2393
 5324W        W20455   5.454   8.610  11.030 -0.0289  0.3082 -0.1052
 5325W        W20456  17.762  16.510  12.198 -0.3130  0.1921  0.1016
 5326W        W20457   6.158   3.272  14.455 -0.0607 -0.0090 -0.4473
 5327W        W20458   6.077   4.671  10.847 -0.3782 -0.0156  0.0537
 5328W        W20459  16.814   9.666   1.023  0.1236  0.3168  0.1495
 5329W        W20460   1.910   0.816   4.691  0.1092  0.2108 -0.1156
 5330W        W20461  12.772  17.462   0.372 -0.0132  0.0022 -0.1874
 5331W        W20462   3.936   6.362  10.937 -0.0113 -0.3753 -0.0360
 5332W        W20463   5.477   9.118   5.390 -0.0843 -0.2194 -0.0730
 5333W        W20464   3.414   5.577   5.012  0.1509 -0.1151  0.0472
 5334W        W20465   3.206  12.962   1.446 -0.2533 -0.0966  0.0564
 5335W        W20466   9.352   1.330  15.197 -0.1453  0.0533 -0.1360
 5336W        W20467   4.877  10.555  13.069 -0.0283  0.1243  0.0692
 5337W        W20468  12.809  12.505  16.768 -0.1675  0.2864  0.0082
 5338W        W20469   7.203  15.553   0.460  0.1827 -0.0441 -0.0113
 5339W        W20470  12.662   9.673   2.503 -0.0831  0.0975  0.3078
 5340W        W20471   3.654   1.304  12.634 -0.0406  0.0663  0.0730
 5341W        W20472   6.589  13.101  10.898  0.0961 -0.3623 -0.1924
 5342W        W20473  13.769   8.006   2.908  0.2849 -0.1476  0.2325
 5343W        W20474  11.336   0.189  12.714 -0.1035  0.0431 -0.2282
 5344W        W20475   1.777   3.670   1.936 -0.1566  0.2716  0.2322
 5345W        W20476   8.165  15.334   5.396 -0.1355 -0.1866  0.0493
 5346W        W20477   4.737   2.580   4.175  0.2021  0.0061 -0.0861
 5347W        W20478   2.956   1.814  12.207 -0.0781  0.1201 -0.0080
 5348W        W20479  13.182   1.052   4.474 -0.0505 -0.0588  0.0168
 5349W        W20480  17.201  13.109  15.377  0.1486  0.3021  0.0396
 5350W        W20481  12.969   1.527   4.464  0.2183 -0.1327 -0.1009
 5351W        W20482  11.573  10.473   3.697 -0.0743 -0.1545 -0.1218
 5352W        W20483   9.216  17.293  12.562  0.5341 -0.2205 -0.2773
 5353W        W20484   9.688   3.489   1.370  0.3847 -0.0556 -0.2890
 5354W        W20485   5.246  10.093  14.391  0.1229  0.3178  0.0571
 5355W        W20486  13.067  12.996  15.158 -0.1765  0.1101  0.0720
 5356W        W20487  14.501  15.638   1.494  0.0477 -0.2217  0.3063
 5357W        W20488  17.712   9.255  12.290 -0.3606  0.1051  0.2264
 5358W        W20489   7.577  11.351   2.270  0.1125 -0.1384 -0.1840
 5359W        W20490   0.001  13.186   5.938 -0.2055 -0.2211 -0.2950
 5360W        W20491  15.212   0.491  15.126  0.2072  0.0004  0.0666
 5361W        W20492  12.252   4.766  12.130 -0.1782 -0.0076  0.1512
 5362W        W20493  13.049  16.000   3.733 -0.0133 -0.1208  0.1641
 5363W        W20494  14.708   2.489   1.405 -0.3508 -0.4352  0.1443
 5364W        W20495   0.796   6.857   4.784  0.1365  0.1462 -0.2367
 5365W        W20496   1.480  16.283  13.486  0.1806 -0.0065 -0.0764
 5366W        W20497   2.162   0.884   2.311  0.0133  0.2691  0.0502
 5367W        W20498  11.097  11.194   0.238  0.1075 -0.0776  0.0850
 5368W        W20499  13.911   3.160  13.258  0.1179 -0.0343  0.0724
 5369W        W20500   8.727   8.638  12.625 -0.0496 -0.0393 -0.0300
 5370W        W20501   8.179  16.710   1.987 -0.0114  0.1662 -0.1175
 5371W        W20502   0.740   6.094  14.640 -0.0496  0.0606  0.1639
 5372W        W20503  10.059  14.753   4.834 -0.2689 -0.5089 -0.2344
 5373W        W20504   7.355   0.288   4.481 -0.1273  0.0844  0.0559
 5374W        W20505  17.452  17.875   3.460  0.1902 -0.0139 -0.0656
 5375W        W20506  16.335   8.119   0.772 -0.0167  0.1852 -0.1080
 5376W        W20507  13.200  16.720   5.921  0.1969  0.0857  0.1883
 5377W        W20508  11.556   5.596  12.438  0.0576 -0.0916 -0.1669
 5378W        W20509  11.945   8.355  15.116 -0.3238  0.2317 -0.0115
 5379W        W20510   3.388   7.978   0.257 -0.2741  0.2539  0.2442
 5380W        W20511   3.135  12.670  11.715  0.0581 -0.2299 -0.1154
 5381W        W20512   3.518   0.232   2.563  0.0519 -0.1598 -0.1231
 5382W        W20513  12.301   9.056   2.624 -0.0971  0.2051 -0.1328
 5383W        W20514  14.224   6.265   1.595  0.1933  0.2045 -0.0906
 5384W        W20515   3.972  10.787  15.022 -0.3105  0.0324  0.2807
 5385W        W20516   8.469   2.185  11.538 -0.1353  0.2201 -0.2191
 5386W        W20517  16.514   0.747  12.407 -0.0898 -0.1005 -0.0101
 5387W        W20518   9.135  16.079  15.958 -0.3195 -0.0190 -0.1457
 5388W        W20519  10.983   9.539  14.871 -0.2529  0.0560  0.2460
 5389W        W20520  15.746  15.499   2.000 -0.0844 -0.1272 -0.1980
 5390W        W20521   5.278   7.940   3.235 -0.0765  0.1379 -0.0513
 5391W        W20522  13.425   7.997   4.908  0.3148  0.0724 -0.0460
 5392W        W20523   8.154   7.710  15.097  0.1804  0.2053 -0.0677
 5393W        W20524  11.259  13.613   2.645  0.1188  0.0368  0.2989
 5394W        W20525   5.491  11.712   3.433  0.4455  0.3319  0.3711
 5395W        W20526   3.778  16.476  11.646  0.0882  0.4414  0.0797
 5396W        W20527   7.644   0.747  15.046 -0.0075 -0.2956 -0.1669
 5397W        W20528   6.196  13.358  14.919  0.0007 -0.1570 -0.0134
 5398W        W20529  15.278   9.210  14.014 -0.2285  0.0723  0.0980
 5399W        W20530  17.404  16.955   0.092 -0.2206  0.1156  0.1446
 5400W        W20531  11.758   4.864   3.147  0.1890 -0.2100  0.0553
 5401W        W20532  11.414   8.910  12.910 -0.2634  0.0770  0.3102
 5402W        W20533   4.174  14.280  14.359  0.1109 -0.1344  0.1158
 5403W        W20534   5.295   0.601  16.175 -0.1820  0.3588 -0.0716
 5404W        W20535   7.242  11.273   0.690 -0.1879 -0.3739 -0.0156
 5405W        W20536  10.833   0.490   4.093 -0.1086  0.0382  0.1648
 5406W        W20537  14.416  14.917   2.300  0.1157  0.1318 -0.0377
 5407W        W20538   1.861  15.274   5.041 -0.0269  0.0943 -0.2297
 5408W        W20539  12.077   4.236   5.369 -0.1423 -0.2954  0.1189
 5409W        W20540   3.637   3.507  15.105 -0.4737 -0.2292 -0.0374
 5410W        W20541   6.018  10.948   4.595 -0.4315  0.1302 -0.1065
 5411W        W20542   2.784   9.370  13.765  0.4293 -0.2600 -0.3274
 5412W        W20543   2.051  13.515   0.381 -0.1126  0.0831 -0.0784
 5413W        W20544  17.751   2.602  10.938  0.0038  0.2160  0.2027
 5414W        W20545  10.114  13.511  14.193 -0.1420  0.1208 -0.1224
 5415W        W20546   1.408   0.884   2.620 -0.2420 -0.2271 -0.0896
 5416W        W20547   7.840  11.783  11.947  0.1142 -0.1442 -0.0310
 5417W        W20548   3.773   8.300   0.617  0.1440 -0.0648 -0.0177
 5418W        W20549  11.845   6.863   5.077 -0.0964  0.0028 -0.2609
 5419W        W20550  17.468  15.519   1.797 -0.0705 -0.0811 -0.2866
 5420W        W20551  12.972   8.982  16.705  0.1034  0.0618 -0.0178
 5421W        W20552   9.847   9.656  15.009 -0.0351  0.0315 -0.2226
 5422W        W20553   6.029   0.250  11.733 -0.2444 -0.2033 -0.0597
 5423W        W20554  12.246  11.801  15.771  0.0100  0.1327 -0.0223
 5424W        W20555   3.226   6.900  15.896  0.1644  0.1977  0.0218
 5425W        W20556  16.250  10.177  15.747  0.2715 -0.2237  0.0061
 5426W        W20557  14.521   0.888   0.599  0.0721 -0.3208 -0.0534
 5427W        W20558  10.359   9.165  12.439  0.2121  0.0613  0.2810
 5428W        W20559   0.820  15.523  13.508  0.3792 -0.1609 -0.0079
 5429W        W20560   5.811  17.759   5.152  0.0777  0.0384 -0.1298
 5430W        W20561  13.829   5.241   0.507  0.0084 -0.0884  0.0223
 5431W        W20562   6.972  16.677   3.719 -0.1979  0.0135  0.6911
 5432W        W20563   8.143   7.837   0.258 -0.2877 -0.3860 -0.2577
 5433W        W20564  17.527  13.584   5.863  0.0902 -0.0889 -0.2059
 5434W        W20565   6.139   3.205   0.432  0.0073  0.1760 -0.0385
 5435W        W20566   6.081  14.043   0.047 -0.0271 -0.0049  0.0799
 5436W        W20567   3.987   7.927   4.538  0.0178  0.0402  0.0154
 5437W        W20568   0.971  16.914   5.912 -0.0635 -0.1554 -0.0590
 5438W        W20569   6.538  14.440  10.475  0.0586  0.1336 -0.5303
 5439W        W20570   2.630   5.153   2.285  0.2243  0.3629 -0.1887
 5440W        W20571   2.740  14.634   5.367 -0.0112 -0.0891 -0.2045
 5441W        W20572  12.661  15.932   1.225  0.1025  0.0002  0.0240
 5442W        W20573  16.562   2.766  13.950  0.2371 -0.2630 -0.0110
 5443W        W20574  16.491  16.736   3.562 -0.0702 -0.2227 -0.0695
 5444W        W20575  12.524  16.374   2.068  0.0181  0.0529  0.0345
 5445W        W20576  17.245   2.683   1.517 -0.0166 -0.1814 -0.0288
 5446W        W20577  16.357  11.895   3.339 -0.1336 -0.4281  0.1300
 5447W        W20578  14.537  15.815   3.423 -0.1389  0.1722 -0.0742
 5448W        W20579   5.816   2.803   4.723  0.2594 -0.0488 -0.0652
 5449W        W20580   0.201  13.586   1.234  0.1095 -0.4342 -0.0692
 5450W        W20581  10.756  14.496   5.902  0.0499  0.0377 -0.0485
 5451W        W20582  14.632   4.336  13.921 -0.1637  0.0288 -0.2304
 5452W        W20583  10.754   2.242  16.264  0.1146  0.1080 -0.0038
 5453W        W20584  13.412  15.462   0.505  0.0372  0.2184 -0.0672
 5454W        W20585  15.795   8.178   5.092 -0.1703  0.2923  0.3114
 5455W        W20586   6.448   8.109   5.390 -0.1080 -0.2390  0.3409
 5456W        W20587   7.285  10.272   5.215  0.0120 -0.0136  0.2606
 5457W        W20588   9.935  10.136   0.265 -0.0456 -0.2563  0.1066
 5458W        W20589  11.544   4.593   2.703 -0.0415 -0.1840 -0.2371
 5459W        W20590   1.571   1.233  13.685  0.1353 -0.0786  0.0868
 5460W        W20591  17.571   8.142   4.345  0.2455 -0.1471 -0.0987
 5461W        W20592  15.185  11.021   0.883  0.3408  0.0900  0.0676
 5462W        W20593  10.188  13.627  15.655  0.2937  0.2955  0.0684
 5463W        W20594   3.917   9.871  14.564 -0.1392  0.4936 -0.0139
 5464W        W20595  13.604  11.977   2.866 -0.0666 -0.1295  0.0857
 5465W        W20596   9.064   8.229   6.182  0.0045  0.2321  0.1796
 5466W        W20597   1.915  13.090   3.929 -0.1525 -0.1359  0.0755
 5467W        W20598   4.321  15.138  14.024  0.2612  0.0646  0.0174
 5468W        W20599   9.090   0.311   3.991  0.0783 -0.1966  0.1896
 5469W        W20600  17.127  16.378   1.775 -0.0248  0.3293 -0.1091
 5470W        W20601  16.173  13.870  11.890  0.0531 -0.1760  0.1550
 5471W        W20602  16.838   2.808   3.767 -0.0452 -0.1445 -0.1469
 5472W        W20603   2.874   0.298  13.587  0.1222 -0.0323 -0.3970
 5473W        W20604   4.601  15.557  13.145 -0.0373  0.0487 -0.4048
 5474W        W20605  11.348   4.958   3.423 -0.0996 -0.1262 -0.0485
 5475W        W20606   6.926   4.367  14.069  0.0810 -0.0990  0.0826
 5476W        W20607  10.973  12.990  12.226 -0.1059  0.1532 -0.0129
 5477W        W20608  16.052  15.507  16.344 -0.1255  0.2958  0.1599
 5478W        W20609  14.823   5.222   0.496  0.1401 -0.0994  0.0187
 5479W        W20610   4.532  15.201  12.784 -0.0467  0.0167  0.0887
 5480W        W20611   3.405   5.281  14.788  0.2110  0.1595  0.0755
 5481W        W20612   8.473  11.245   1.250 -0.2139  0.2027 -0.2075
 5482W        W20613  13.361   0.408  11.098  0.3025  0.1947 -0.0385
 5483W        W20614  10.827   3.115  12.797 -0.1500 -0.1050  0.1634
 5484W        W20615  11.122  12.318   0.439  0.2222 -0.1788 -0.2538
 5485W        W20616   5.885  16.201   0.784 -0.1787 -0.2374 -0.1285
 5486W        W20617  12.929  17.132   1.116 -0.2165 -0.0519  0.0489
 5487W        W20618  10.604  13.461   3.946  0.2960  0.4363 -0.1982
 5488W        W20619   4.519  13.892   4.785  0.0032 -0.2801 -0.0111
 5489W        W20620   2.232   3.496  13.393 -0.2384 -0.1811  0.3362
 5490W        W20621  13.971  15.798   3.299 -0.1854 -0.1771 -0.3594
 5491W        W20622  16.311   3.465   2.344 -0.0599  0.0286 -0.1487
 5492W        W20623  12.985   9.770   4.895  0.2683  0.1164  0.1535
 5493W        W20624  13.860  10.424   0.323 -0.0113  0.1819 -0.2732
 5494W        W20625  12.250  17.367   4.239  0.1821  0.0853 -0.3735
 5495W        W20626  14.118   1.750   1.718 -0.0641  0.1475 -0.0339
 5496W        W20627  17.592  13.914  16.059 -0.0905  0.1324 -0.2739
 5497W        W20628   0.455   1.288  14.148 -0.0327  0.0523  0.0822
 5498W        W20629  14.942   1.739  12.322  0.0066  0.0159  0.0939
 5499W        W20630  16.087   7.324   6.366 -0.3972  0.0259 -0.2795
 5500W        W20631   0.960   7.069  13.955 -0.0205 -0.0988 -0.2968
 5501W        W20632   2.119  16.968   5.926  0.2242 -0.1592 -0.0185
 5502W        W20633  11.078   0.754   3.369 -0.1085  0.2830 -0.0736
 5503W        W20634  16.617  13.893   4.589  0.1490 -0.0826  0.0025
 5504W        W20635  12.236  13.778   5.395  0.1000 -0.0194 -0.0301
 5505W        W20636  10.686   1.001   4.293 -0.2186  0.2767 -0.1525
 5506W        W20637   6.610   8.088  15.636 -0.1259 -0.2542 -0.2685
 5507W        W20638   1.864  15.015   0.116  0.1906  0.2593 -0.0762
 5508W        W20639  13.826   2.620  12.106 -0.1154 -0.0856 -0.0489
 5509W        W20640   0.217  13.742  13.431 -0.0429  0.1029  0.3032
 5510W        W20641   6.936  16.668   4.642 -0.0318  0.0685  0.0151
 5511W        W20642  17.208  10.126  13.792  0.0923  0.0209 -0.0996
 5512W        W20643   5.387   8.105  12.111  0.1212  0.0447 -0.0501
 5513W        W20644   1.290   5.207   1.840 -0.1221 -0.1215 -0.0084
 5514W        W20645  11.825   3.598   5.924 -0.2522  0.2405 -0.0052
 5515W        W20646  11.720   0.795  12.536  0.0336  0.4322 -0.1371
 5516W        W20647   7.356   2.959  16.389  0.0324  0.1049  0.1307
 5517W        W20648   1.587  14.724   0.574  0.1698  0.0924 -0.1106
 5518W        W20649  17.357  17.675   6.070  0.0363 -0.1058  0.0176
 5519W        W20650   4.760  15.095   1.855 -0.0018 -0.1339  0.1644
 5520W        W20651  11.479  17.267   3.821 -0.0066 -0.0383  0.0668
 5521W        W20652   2.556  16.897  14.641  0.1119 -0.0725 -0.0435
 5522W        W20653   8.185   1.277   4.290  0.0660  0.1990 -0.0157
 5523W        W20654   5.790   9.097   4.111 -0.2302 -0.0838 -0.0264
 5524W        W20655   9.245   5.896   3.991 -0.1200  0.1419  0.0472
 5525W        W20656   6.213   1.580  16.726  0.5068  0.2090 -0.1774
 5526W        W20657   9.046  13.684  10.977 -0.1501  0.2029 -0.2640
 5527W        W20658   4.602  10.537  13.448  0.1903  0.1019 -0.1127
 5528W        W20659   1.258  17.067   4.085 -0.1177 -0.2529  0.1827
 5529W        W20660  17.696   8.606  12.807 -0.1417 -0.1759 -0.3370
 5530W        W20661   9.995   1.336   2.281 -0.1367  0.1545  0.3226
 5531W        W20662  13.054  13.979   5.804  0.1051 -0.0093 -0.1512
 5532W        W20663   1.192  15.990  12.620 -0.0259 -0.1909 -0.0899
 5533W        W20664   9.947  13.131  13.860  0.0551  0.0451 -0.0049
 5534W        W20665  14.586   1.268  13.289 -0.0314  0.2761 -0.2709
 5535W        W20666   6.257  12.005   2.053 -0.2306 -0.3729 -0.2546
 5536W        W20667  11.167   9.626   1.598  0.1416 -0.1462  0.0291
 5537W        W20668  14.497  13.444  12.802 -0.1553  0.1648  0.2552
 5538W        W20669   8.673   3.867  14.002 -0.0109  0.0541 -0.2115
 5539W        W20670  12.595   5.002   0.206 -0.0546 -0.2091 -0.5210
 5540W        W20671  12.509   2.078  11.699 -0.0887  0.2197  0.0271
 5541W        W20672   5.964  16.131   4.840  0.1261 -0.1190 -0.0583
 5542W        W20673   8.070  12.941   4.326 -0.1454 -0.0332 -0.0367
 5543W        W20674  13.112  11.928  13.597  0.1848  0.1265  0.0413
 5544W        W20675   2.137   8.310   2.164  0.0510 -0.1498 -0.1239
 5545W        W20676  12.885  12.369   2.776 -0.1289  0.0128 -0.0119
 5546W        W20677   5.300  11.494   0.012  0.3878 -0.2630 -0.4039
 5547W        W20678  13.368   7.820   0.557 -0.0797  0.1605  0.2612
 5548W        W20679   3.005   0.610  15.328 -0.1059  0.2299 -0.3734
 5549W        W20680   6.066  14.747  13.112 -0.0137  0.0348  0.3267
 5550W        W20681  17.235  12.264   1.885 -0.1964  0.1058 -0.1198
 5551W        W20682   4.279   8.500  12.888 -0.0168 -0.2033 -0.1175
 5552W        W20683   0.871   0.437  14.282 -0.1210 -0.0416 -0.0724
 5553W        W20684   8.216   3.597   1.024  0.1139  0.1476  0.0419
 5554W        W20685   8.507   1.339   4.894 -0.3801  0.0812  0.1884
 5555W        W20686   5.062   2.930   2.916  0.2535 -0.0892 -0.2199
 5556W        W20687  16.723  12.755  16.040 -0.1462  0.1523 -0.0760
 5557W        W20688   8.880   7.977   4.649 -0.0943  0.2665  0.0897
 5558W        W20689  13.615   7.802  16.114 -0.0201  0.0840  0.1996
 5559W        W20690  12.718   1.102  11.613 -0.0102 -0.0567  0.1179
 5560W        W20691   7.609   4.006   0.892  0.0953  0.1033  0.2709
 5561W        W20692  11.328   6.186   1.231 -0.1987 -0.4164  0.1115
 5562W        W20693  13.641  17.852  10.761 -0.3242  0.0061  0.4550
 5563W        W20694  13.143   2.793  13.795  0.3486 -0.0865  0.0596
 5564W        W20695  14.922   1.054  16.218  0.1343 -0.1007 -0.0905
 5565W        W20696  15.061   9.136  11.819 -0.1890 -0.1593 -0.2873
 5566W        W20697  14.210   0.930   1.072 -0.0186 -0.0309  0.0307
 5567W        W20698   1.265   0.798   3.095  0.0982  0.0835  0.2474
 5568W        W20699   5.585   1.470  16.778 -0.1057  0.1053  0.1242
 5569W        W20700  11.122  12.820  11.729 -0.1747  0.0415 -0.2838
 5570W        W20701  16.301   1.294   3.813  0.3618  0.0204  0.0437
 5571W        W20702   2.499   1.945   0.811 -0.0793  0.1575 -0.0286
 5572W        W20703   1.507   5.460   5.789 -0.0247 -0.1680 -0.0944
 5573W        W20704   7.293  13.012  13.229 -0.0758 -0.0272 -0.1512
 5574W        W20705   0.620  13.160   3.432 -0.0690  0.0611 -0.3386
 5575W        W20706   5.372   8.565   2.134  0.0156  0.1529  0.0469
 5576W        W20707  15.710  13.216  11.306 -0.1447  0.2569 -0.2380
 5577W        W20708  13.301   0.111   5.517 -0.0766  0.0732  0.5254
 5578W        W20709  12.208   7.225   2.937  0.0810 -0.0956 -0.0814
 5579W        W20710   7.568  14.515  12.214 -0.2674 -0.1275 -0.3318
 5580W        W20711   2.293   1.301  14.049  0.0974 -0.0905  0.1091
 5581W        W20712   5.526   8.379   0.541  0.1346  0.0153 -0.3198
 5582W        W20713  16.220   7.514  14.163  0.0186  0.3139 -0.0034
 5583W        W20714   6.013  15.570   3.506  0.1682 -0.2192  0.1268
 5584W        W20715  13.257  15.606   5.707  0.0381  0.1870  0.1338
 5585W        W20716  12.702  10.678  13.013 -0.0715  0.0033 -0.0387
 5586W        W20717  10.910  15.044   5.659  0.2247 -0.0321 -0.0022
 5587W        W20718  14.543  12.438   0.398 -0.2734 -0.2378  0.1011
 5588W        W20719  10.092   8.562  13.655 -0.1226  0.0888  0.2588
 5589W        W20720  12.625   1.611  10.045  0.2018 -0.0393  0.0024
 5590W        W20721  15.131   4.902   4.185 -0.0485  0.0758  0.2256
 5591W        W20722   7.966  17.873   2.573  0.2894  0.3435  0.0705
 5592W        W20723   0.309  17.322   5.417  0.0542  0.0784  0.0584
 5593W        W20724   8.023   2.283   1.234  0.3105 -0.1676  0.0630
 5594W        W20725   0.862   8.120   0.187  0.2607 -0.1168  0.3602
 5595W        W20726  13.801   0.626   4.768 -0.1060  0.1109  0.0911
 5596W        W20727   5.605  17.229  14.724  0.0813 -0.1136  0.4121
 5597W        W20728   1.600  16.689   1.836 -0.0043  0.0720 -0.1912
 5598W        W20729   3.191   8.447   0.285  0.0183 -0.2934  0.1920
 5599W        W20730   2.192   8.363   3.734 -0.1350  0.0694 -0.0015
 5600W        W20731   4.503  16.873   0.136 -0.1343  0.0411 -0.2273
 5601W        W20732  10.776   3.942  15.698  0.1055  0.3379 -0.0217
 5602W        W20733   9.341   3.254  12.170 -0.2414  0.0623 -0.1683
 5603W        W20734  13.979   6.409  15.372 -0.1487  0.5276  0.0366
 5604W        W20735   2.693   9.457  12.600 -0.3810 -0.1543 -0.1952
 5605W        W20736  12.771   3.093  12.858  0.2069  0.0796 -0.2002
 5606W        W20737   5.218  10.891  14.628 -0.2067  0.3334  0.2955
 5607W        W20738   9.379  14.958   1.811  0.1384  0.0647 -0.1593
 5608W        W20739  17.392  14.578  15.338 -0.1846  0.1007  0.2436
 5609W        W20740   7.547   1.861  15.448 -0.1032 -0.1697 -0.0142
 5610W        W20741  15.916   1.653  11.515 -0.2292  0.0801  0.0260
 5611W        W20742  11.275  10.555  13.789  0.2620 -0.0800  0.0628
 5612W        W20743  10.997   9.484   3.175 -0.3024  0.0793 -0.3269
 5613W        W20744  14.925  10.107   0.203 -0.1893 -0.1887 -0.1490
 5614W        W20745  13.897   1.989  14.642 -0.0808  0.2292  0.0230
 5615W        W20746  12.371  16.715   4.886  0.1322  0.0013  0.2283
 5616W        W20747   9.306  15.962  11.570 -0.0211 -0.0022 -0.1877
 5617W        W20748   3.563   8.503  13.552 -0.0219  0.0153 -0.1614
 5618W        W20749   9.817  11.657  11.638 -0.2688 -0.1356  0.0049
 5619W        W20750   8.073  17.051   2.534 -0.0179 -0.1489  0.0636
 5620W        W20751  14.230  14.163  14.389 -0.0887  0.1147 -0.1470
 5621W        W20752   4.358   8.689   4.656  0.1602 -0.2219  0.0687
 5622W        W20753   3.622  12.561  11.763 -0.2646 -0.0408 -0.2400
 5623W        W20754   5.932  15.960  14.582  0.2183  0.1735  0.1612
 5624W        W20755  15.443   7.382   0.089 -0.1010  0.0201  0.3166
 5625W        W20756  14.344  17.348  11.526  0.0557 -0.1522  0.1921
 5626W        W20757   8.045  14.309  13.334 -0.3894 -0.2015  0.3410
 5627W        W20758   9.177   9.487   5.679  0.1252 -0.3529  0.0845
 5628W        W20759   6.920   8.425   2.287 -0.2773  0.1137  0.0406
 5629W        W20760  16.348  16.694   4.465 -0.0300  0.0813  0.0976
 5630W        W20761   4.894  16.718   1.041 -0.1900  0.0903 -0.3131
 5631W        W20762   6.895  15.113  15.025 -0.1262  0.1048  0.2237
 5632W        W20763   4.066  17.162   0.871  0.2737 -0.2074 -0.2872
 5633W        W20764   4.037   8.946  13.204 -0.2864  0.1388  0.0088
 5634W        W20765  15.897   1.062  16.085  0.1052 -0.0158  0.2270
 5635W        W20766  16.388   1.111  16.220 -0.2162  0.0198  0.1473
 5636W        W20767  13.342  13.170  10.227  0.3298  0.2344 -0.0826
 5637W        W20768   1.665  11.687   5.200  0.1837  0.2170 -0.0095
 5638W        W20769  10.039   3.050  11.394 -0.3704  0.2069  0.3659
 5639W        W20770  10.564   3.115  14.545  0.0652  0.0360 -0.1059
 5640W        W20771  15.921  11.137   0.155 -0.0497 -0.0851 -0.0822
 5641W        W20772  13.195  15.816   2.633 -0.0985  0.0758  0.0361
 5642W        W20773   4.248   5.760   2.774  0.1199  0.0120  0.3701
 5643W        W20774  14.205   7.551  11.560 -0.2171  0.0492 -0.0297
 5644W        W20775   3.449  16.685  16.177 -0.0746  0.0072  0.2616
 5645W        W20776   0.281   5.311   4.333  0.1656 -0.1043 -0.2204
 5646W        W20777   2.654   9.282   1.871  0.5418 -0.2609  0.0649
 5647W        W20778   4.530   5.657  11.367  0.1779 -0.1334 -0.1629
 5648W        W20779   8.286   6.041  15.779  0.5065 -0.0985  0.1669
 5649W        W20780   6.769  17.017  13.210  0.3931 -0.0626 -0.0109
 5650W        W20781  15.235  11.815   1.959 -0.0341 -0.2106  0.2194
 5651W        W20782   8.455  13.661  11.445  0.2888 -0.0216  0.1409
 5652W        W20783   1.897   8.662  12.696  0.1091  0.2044  0.2255
 5653W        W20784  16.174  11.707  14.998  0.2721  0.1530  0.1270
 5654W        W20785  16.274   8.557   4.919  0.1055 -0.1294  0.3315
 5655W        W20786  15.715   5.846  13.481 -0.0796 -0.0303  0.2409
 5656W        W20787   4.609   2.410   1.629 -0.2402 -0.3252  0.2853
 5657W        W20788   4.113   4.528  13.519  0.0802  0.1293 -0.1347
 5658W        W20789  13.149   7.657  12.475 -0.1791  0.0889  0.3979
 5659W        W20790  13.514  10.348   2.819  0.0297  0.2237  0.1945
 5660W        W20791  10.773  16.296  16.006  0.1114  0.0906  0.0881
 5661W        W20792   0.398  17.027  13.917 -0.0704  0.1988 -0.2991
 5662W        W20793   1.841   6.264   4.174  0.0042  0.0653  0.0376
 5663W        W20794   0.144  13.461  14.311 -0.1215  0.1208 -0.0156
 5664W        W20795  15.670   7.748  12.214  0.0677 -0.0173 -0.0254
 5665W        W20796  17.858   7.951  16.546  0.2068 -0.0814  0.1728
 5666W        W20797   1.173  12.980   4.342  0.0283 -0.1422  0.4365
 5667W        W20798   0.928   9.263   2.598 -0.1228  0.1206  0.0766
 5668W        W20799   4.854   4.236  13.852 -0.0781  0.0920  0.2137
 5669W        W20800   8.560   0.779   0.935 -0.2402  0.0434 -0.3343
 5670W        W20801   5.697   9.472   4.568 -0.2336  0.0920 -0.1989
 5671W        W20802   0.068  16.846   3.408  0.1802 -0.1765 -0.2202
 5672W        W20803  14.849   2.322   2.547  0.5282 -0.1998 -0.0747
 5673W        W20804   5.091   6.260  15.099  0.1969  0.0863  0.0263
 5674W        W20805  15.143  12.429  11.726 -0.1437 -0.0000 -0.0979
 5675W        W20806   4.604   9.302  12.707 -0.1028  0.0022  0.0900
 5676W        W20807   9.717  11.975   4.867 -0.0921 -0.1029 -0.2991
 5677W        W20808  15.027   8.579   2.808  0.1700 -0.1503  0.0140
 5678W        W20809   8.861  15.430  12.374 -0.0748  0.0492 -0.1737
 5679W        W20810   6.714  13.185  15.997  0.0156  0.1552 -0.0670
 5680W        W20811  12.667   0.893  12.586  0.2153  0.0681  0.0177
 5681W        W20812   7.543   5.492  14.549 -0.2139 -0.1594  0.3385
 5682W        W20813   5.565  15.221   3.946 -0.1042  0.0546  0.1857
 5683W        W20814  11.800  10.330   1.378  0.2126  0.0122 -0.1843
 5684W        W20815  15.240  14.255   1.971  0.1177 -0.1458  0.0333
 5685W        W20816  17.530  17.803   0.600 -0.1733  0.2881  0.1767
 5686W        W20817   2.067  12.210   5.569  0.3335  0.2240 -0.1583
 5687W        W20818   0.353  16.066  16.382  0.2614  0.1178  0.0065
 5688W        W20819   1.412   2.045  16.403 -0.2782 -0.1762 -0.0503
 5689W        W20820   3.214   4.526  15.136  0.0312 -0.1062 -0.1792
 5690W        W20821  10.931   6.062   6.131  0.3050  0.1386  0.0086
 5691W        W20822  16.958   1.599   3.144  0.2199 -0.2395  0.0182
 5692W        W20823  16.001   9.823  16.449  0.1575  0.0976  0.0133
 5693W        W20824   1.066   3.026   2.375 -0.3084  0.2113 -0.0892
 5694W        W20825  12.699  12.041  11.485  0.1079 -0.0536 -0.1996
 5695W        W20826  10.593   9.853   0.629 -0.1242  0.5163  0.0595
 5696W        W20827   3.658   6.345   0.822 -0.1115  0.1839 -0.2150
 5697W        W20828   0.671  13.926   3.651  0.0376 -0.0457  0.0674
 5698W        W20829  15.664  14.027  13.222  0.0957  0.1047 -0.0820
 5699W        W20830   9.540  13.021   5.242 -0.0828  0.0599 -0.0098
 5700W        W20831  16.381   3.958   2.469 -0.1697  0.3757  0.1222
 5701W        W20832  11.668   2.168  16.410 -0.0510  0.5052  0.1604
 5702W        W20833  17.425   2.579  14.037 -0.1595 -0.1865  0.2383
 5703W        W20834   4.984   0.694   2.287  0.0938 -0.2254 -0.3151
 5704W        W20835  12.981  14.207   5.237 -0.0225  0.1350 -0.0651
 5705W        W20836   9.788   9.189   0.388  0.0641  0.2013  0.0786
 5706W        W20837   9.940  14.909  14.528 -0.0960 -0.3611  0.0814
 5707W        W20838   1.141   7.371  14.922  0.1757  0.0334  0.1415
 5708W        W20839   8.662  10.747  12.465 -0.1485 -0.2497 -0.1872
 5709W        W20840  11.279   7.403  14.812  0.1539 -0.1546  0.1439
 5710W        W20841  14.819   7.912   2.033  0.0412 -0.0030 -0.0116
 5711W        W20842  12.143  13.483   1.398 -0.1010 -0.0268  0.0785
 5712W        W20843   3.046  15.810   0.825 -0.2172  0.0248 -0.0260
 5713W        W20844   3.809  10.265   1.624  0.1523  0.2261 -0.2117
 5714W        W20845  11.185  10.405   3.257 -0.0785  0.0240  0.2799
 5715W        W20846   9.891  10.087   4.492  0.3420  0.0083 -0.3133
 5716W        W20847   6.649   6.429  14.871  0.3095  0.2225 -0.3853
 5717W        W20848  16.736   5.171   5.048  0.1642  0.1979  0.0228
 5718W        W20849  17.348  14.799   1.150  0.3252  0.0150 -0.1409
 5719W        W20850  14.668   4.361   2.913 -0.0191 -0.2061  0.1134
 5720W        W20851   2.469   1.917   4.172  0.1234 -0.0569  0.0209
 5721W        W20852   3.725  17.493   1.045  0.0796 -0.1257  0.0584
 5722W        W20853   7.482   6.816   5.652 -0.1687  0.1088 -0.1630
 5723W        W20854   1.596   0.799  11.024  0.2176 -0.1130  0.1511
 5724W        W20855   6.946   2.936   0.392 -0.0184 -0.0734  0.1909
 5725W        W20856  10.339   5.789   2.473 -0.0735  0.0151 -0.0116
 5726W        W20857   6.602  14.798   2.750 -0.1545  0.0976  0.0134
 5727W        W20858  13.013   2.237  12.515  0.4440  0.0844 -0.2370
 5728W        W20859  13.378   8.617  14.640  0.2253 -0.1759 -0.1868
 5729W        W20860  16.055  14.322   0.377  0.1119  0.2955  0.3315
 5730W        W20861   3.761  10.187   2.241  0.2475  0.2045  0.2185
 5731W        W20862   5.156   5.970   3.231 -0.0615  0.1122  0.0149
 5732W        W20863   4.130   1.433  14.082 -0.2903 -0.0557  0.0685
 5733W        W20864  11.509  17.337  15.316 -0.0157 -0.1703 -0.0366
 5734W        W20865   5.526   1.936  11.565  0.0301 -0.0793 -0.0010
 5735W        W20866   1.851   3.252  13.638  0.1504  0.1447  0.2663
 5736W        W20867  15.627   3.134  12.394  0.0326 -0.0473 -0.2484
 5737W        W20868  14.645  13.561  14.049 -0.1159 -0.1930 -0.3263
 5738W        W20869  17.828   1.240   2.267  0.0070  0.0698 -0.1786
 5739W        W20870  14.208   8.777   0.220  0.1160 -0.1981  0.0854
 5740W        W20871   4.105   5.238   1.908  0.1606  0.0300 -0.2128
 5741W        W20872   4.546   5.630  15.498 -0.2411  0.2880  0.1430
 5742W        W20873   8.205   3.786  11.999  0.0053  0.0563 -0.0542
 5743W        W20874  11.695   7.403   0.806  0.0248  0.0111 -0.3790
 5744W        W20875   9.492   5.543   0.213  0.2397  0.0364  0.0541
 5745W        W20876   1.299   4.889   3.220  0.0441 -0.0245 -0.0454
 5746W        W20877   0.184  13.860   4.290  0.1797 -0.0420  0.0641
 5747W        W20878   0.662   5.313  13.943 -0.1214  0.0278  0.1368
 5748W        W20879   9.330   6.930   3.734  0.2099  0.1077 -0.0652
 5749W        W20880  11.152   1.998  11.176 -0.2130 -0.3336  0.0512
 5750W        W20881  15.837  16.523  11.574 -0.2406 -0.2794  0.1865
 5751W        W20882  17.654   8.635   5.751  0.2398 -0.0092  0.0322
 5752W        W20883  13.430   2.748   0.998 -0.2218 -0.0701  0.1512
 5753W        W20884   7.195  12.153  13.615  0.0080 -0.0473  0.1371
 5754W        W20885   3.252   7.934  12.971 -0.2013 -0.2885  0.0120
 5755W        W20886   6.130  13.865   2.106 -0.0667 -0.1854 -0.0614
 5756W        W20887   8.257  11.815  13.782 -0.2167 -0.1261 -0.4183
 5757W        W20888  11.430  14.144  10.657 -0.0486  0.1286 -0.1351
 5758W        W20889  13.329  13.457   3.439  0.0778  0.0501 -0.3894
 5759W        W20890   8.783  14.434  14.348 -0.2052 -0.1009 -0.0090
 5760W        W20891  14.934   5.878  12.310 -0.2255  0.1404  0.1032
 5761W        W20892   0.732   3.601  15.564  0.2054  0.1300 -0.0876
 5762W        W20893  10.930   3.540  13.209  0.0311  0.0889  0.1783
 5763W        W20894   9.294   7.190   1.064  0.1005 -0.0016 -0.1172
 5764W        W20895  13.183   8.709   5.590  0.0224 -0.0731 -0.1304
 5765W        W20896  15.204  12.758  13.017 -0.0619  0.1493  0.1516
 5766W        W20897   9.151  10.770  13.565 -0.1325  0.2446  0.2032
 5767W        W20898   2.620   2.199   3.685 -0.2246 -0.1133  0.0131
 5768W        W20899  12.921  15.596   1.649  0.1055 -0.2393 -0.3113
 5769W        W20900  12.983   2.078   3.169 -0.0842  0.1610  0.1264
 5770W        W20901   5.147   0.106   0.247  0.2373 -0.0597 -0.4378
 5771W        W20902  10.479   6.389   1.453  0.3129  0.4602 -0.2866
 5772W        W20903   2.425  10.756   4.688  0.1339 -0.1546 -0.3234
 5773W        W20904  12.133   4.506   3.435  0.2026 -0.2008 -0.0777
 5774W        W20905   8.818   4.673   1.478 -0.1415  0.1840 -0.1370
 5775W        W20906   9.230   0.087  11.822  0.2764 -0.0241  0.1387
 5776W        W20907   9.642  14.314   0.428  0.0384  0.3525  0.0419
 5777W        W20908   6.029  16.629  15.594  0.2210 -0.2698 -0.3269
 5778W        W20909  13.786   9.426  10.162  0.2592 -0.3102 -0.0240
 5779W        W20910  14.068  13.322   4.664 -0.3493  0.4739 -0.0469
 5780W        W20911  13.767   5.659   2.072  0.0302 -0.1933 -0.3103
 5781W        W20912  11.186  15.413   3.998  0.1575 -0.1518 -0.2914
 5782W        W20913   1.193  17.398   5.973 -0.2453 -0.2196  0.2143
 5783W        W20914  17.546  10.687   5.517  0.0073  0.0760 -0.1596
 5784W        W20915  14.539   8.182   1.212  0.1469 -0.2088 -0.1512
 5785W        W20916  14.198  16.607   6.317 -0.1643  0.3644  0.1260
 5786W        W20917   6.997  15.791  16.283 -0.0616  0.2473  0.1430
 5787W        W20918  15.601   7.558  16.411  0.1711 -0.1341  0.0055
 5788W        W20919  10.180   6.350   4.773  0.2672  0.4288 -0.2770
 5789W        W20920  11.717   1.420   3.572 -0.1284 -0.1380  0.0313
 5790W        W20921  16.994  16.001  12.452  0.1411 -0.1580 -0.4556
 5791W        W20922   5.464  16.946   1.269  0.0038  0.0682  0.0979
 5792W        W20923   8.092   1.411  11.494 -0.2837  0.1219 -0.1103
 5793W        W20924   6.643   4.225  11.394 -0.1992 -0.2060  0.0643
 5794W        W20925   0.365  14.650  16.104 -0.2112  0.1030  0.2230
 5795W        W20926  16.466  14.957  13.269  0.1558  0.0402  0.1634
 5796W        W20927  14.195   8.924   4.557 -0.3244 -0.0426  0.0228
 5797W        W20928   5.097   1.828   0.828  0.1193  0.1454  0.0357
 5798W        W20929   6.824   7.279  12.180 -0.0297  0.3711  0.0196
 5799W        W20930   4.969   9.161   4.645 -0.1002  0.1686 -0.0856
 5800W        W20931   3.942  17.026   5.477  0.0798  0.0210 -0.2118
 5801W        W20932  13.983  14.863   3.198  0.0179  0.1203 -0.3988
 5802W        W20933   5.147  12.844   3.690  0.2765 -0.2171  0.1361
 5803W        W20934   8.508   2.206   3.548 -0.1178  0.0357 -0.3033
 5804W        W20935  10.770  11.041  16.658 -0.0491 -0.2879 -0.0203
 5805W        W20936  13.630  16.388  13.278  0.0909  0.0380  0.3415
 5806W        W20937  16.461   7.648   0.797 -0.0738  0.0762 -0.0374
 5807W        W20938   8.319  10.585   2.703  0.2054 -0.1983 -0.2782
 5808W        W20939   6.739   3.420  10.946  0.0113 -0.0773 -0.0295
 5809W        W20940   4.854  15.722  13.743 -0.1096 -0.1332  0.1029
 5810W        W20941   9.383  11.549  15.960 -0.1925 -0.1754  0.1856
 5811W        W20942   8.999   8.068   5.245 -0.2718 -0.0430  0.0357
 5812W        W20943  12.204  15.134  14.043 -0.0565  0.3310  0.1562
 5813W        W20944   1.817  16.186  14.580 -0.2233 -0.1602  0.0006
 5814W        W20945  10.181   7.087   0.678 -0.1501 -0.1183  0.2485
 5815W        W20946  10.588   2.326  13.038 -0.2611 -0.0994 -0.1425
 5816W        W20947   0.997   3.844   2.406  0.0066 -0.2669  0.2884
 5817W        W20948   2.750   5.035   2.868  0.0150 -0.0546  0.2488
 5818W        W20949  11.925   0.046   4.901  0.1698  0.0039 -0.1310
 5819W        W20950  13.194  14.528  14.620  0.2569  0.1072 -0.1590
 5820W        W20951  15.587  16.270   5.571 -0.2221 -0.1160 -0.1005
 5821W        W20952   3.679  12.576  13.549 -0.1022  0.0594  0.4846
 5822W        W20953   3.675   5.379   1.727 -0.0198  0.1366  0.1680
 5823W        W20954   5.105  15.740  13.151 -0.0134 -0.1309  0.1039
 5824W        W20955   1.175   7.869  11.283  0.0610 -0.0243  0.2632
 5825W        W20956  17.036   2.694  15.189  0.6051  0.2955  0.0943
 5826W        W20957  11.129   4.466  13.554  0.1734 -0.0200  0.1028
 5827W        W20958  13.509   2.126  10.959  0.0570 -0.0300  0.1668
 5828W        W20959   3.708   6.300   6.434 -0.0949  0.0206  0.0102
 5829W        W20960  10.130   2.215  13.166  0.0280  0.0081 -0.0653
 5830W        W20961   0.951   3.435   5.482 -0.3632  0.0013 -0.2281
 5831W        W20962   6.742   5.684   3.228  0.1118  0.1953  0.0926
 5832W        W20963  13.917   8.019   0.631  0.3397  0.1447  0.0799
 5833W        W20964   6.187  16.905  12.715 -0.3528  0.1809 -0.1899
 5834W        W20965  10.076  16.813  15.920  0.1536 -0.1728 -0.3761
 5835W        W20966   9.225   8.307   4.716  0.4881 -0.0277 -0.2717
 5836W        W20967   9.995  10.104   4.969  0.2952 -0.0270  0.0905
 5837W        W20968  10.093   3.523  15.126  0.1171 -0.1608 -0.2211
 5838W        W20969   1.246  16.433   2.098 -0.0022  0.0824 -0.0815
 5839W        W20970  17.267   1.273   5.245  0.4588  0.0593 -0.0115
 5840W        W20971   5.769   5.798  14.727  0.2430 -0.2443  0.3140
 5841W        W20972  11.245  11.518  12.671 -0.1054  0.1575  0.2856
 5842W        W20973   0.831  10.903  15.914  0.0999  0.1187 -0.0439
 5843W        W20974  15.675  12.380   4.542 -0.1898 -0.3188 -0.2338
 5844W        W20975   5.793  13.977  13.156 -0.2010  0.1904 -0.2352
 5845W        W20976  12.619   0.423  12.736 -0.0490 -0.1949  0.1559
 5846W        W20977  17.284   7.929  14.830 -0.1979 -0.0085 -0.2014
 5847W        W20978   8.925  13.067  11.426  0.2336 -0.0397 -0.2498
 5848W        W20979   8.245  14.487  14.398  0.1351  0.1611 -0.0609
 5849W        W20980   9.410   9.929  11.965  0.0651  0.0495 -0.0495
 5850W        W20981  10.175  17.399  11.995  0.2111 -0.1598 -0.1083
 5851W        W20982  15.017  17.564   4.366  0.0212 -0.2226  0.0490
 5852W        W20983   6.178   2.971  13.920  0.0994 -0.3163  0.3947
 5853W        W20984  12.762   2.468  14.605  0.2574  0.2471 -0.2275
 5854W        W20985   2.445  14.616   4.699  0.1329  0.1705 -0.3086
 5855W        W20986   4.227   9.003  14.362 -0.2777  0.1874 -0.0791
 5856W        W20987  16.636   8.848  10.314 -0.1707  0.0677  0.0040
 5857W        W20988  14.600  13.087  13.866  0.2064 -0.2163  0.2458
 5858W        W20989  11.987   6.620   1.627 -0.1043 -0.0292  0.2305
 5859W        W20990   7.354  11.363  15.334  0.1524  0.0693 -0.2730
 5860W        W20991   4.865   3.055  14.489  0.0484 -0.0459 -0.0954
 5861W        W20992  13.651   9.515  11.340 -0.0985 -0.3476 -0.2051
 5862W        W20993   3.529  11.540   1.176  0.1918  0.0880 -0.1316
 5863W        W20994   6.219  13.556  12.954 -0.0206  0.0567  0.1798
 5864W        W20995  10.488  13.178   5.713  0.1962  0.0182 -0.2364
 5865W        W20996  10.230  10.704  13.442 -0.1417 -0.4021  0.0882
 5866W        W20997  15.614   9.342  16.542 -0.1975 -0.1825  0.5517
 5867W        W20998  11.147   5.427  14.655  0.2294 -0.5237 -0.0749
 5868W        W20999  17.880   7.118   2.454 -0.1084 -0.0456 -0.0414
 5869W        W21000   2.142  15.235   2.179  0.0195 -0.1659  0.0524
 5870W        W21001  14.341  11.883  16.318  0.3149  0.0569  0.1637
 5871W        W21002   9.993   2.020   5.015  0.1617 -0.1115 -0.0048
 5872W        W21003   6.357   9.373  13.298 -0.2546 -0.0613 -0.2806
 5873W        W21004   9.234   8.849   1.457  0.0469  0.0095 -0.3786
 5874W        W21005  11.891  17.015   0.131  0.1809  0.3561 -0.2495
 5875W        W21006   3.096  16.344  16.222  0.0872  0.0165 -0.0138
 5876W        W21007   2.114  11.199  12.673 -0.0569 -0.0685  0.0534
 5877W        W21008  15.486  13.297  14.434  0.2136  0.0034 -0.0267
 5878W        W21009   1.578   3.850   1.442 -0.1154  0.2530  0.0690
 5879W        W21010   0.603  16.842   6.231  0.2090  0.2744 -0.2822
 5880W        W21011  15.965   9.628   3.855  0.1578 -0.0284 -0.0095
 5881W        W21012  11.000  13.303  14.764  0.1344  0.2855 -0.0776
 5882W        W21013   3.639  11.951   5.159 -0.0335  0.0937 -0.0370
 5883W        W21014   0.697   9.967  13.772 -0.1076 -0.1148  0.1095
 5884W        W21015   3.131  14.734  15.686  0.2793  0.2603  0.0617
 5885W        W21016  11.527   8.045   0.220 -0.2175  0.1295  0.1713
 5886W        W21017   6.209  10.133   5.091  0.0769  0.0360 -0.0366
 5887W        W21018   3.294   6.566   0.509 -0.0808  0.5096 -0.1522
 5888W        W21019   6.215   5.361  13.030  0.1606 -0.1620 -0.1627
 5889W        W21020   0.415   5.854   4.884  0.1927 -0.1019  0.3484
 5890W        W21021  12.329   4.438   0.861  0.0305 -0.0519  0.4841
 5891W        W21022   4.721   1.169   0.165 -0.2281 -0.1996  0.1975
 5892W        W21023   3.181  12.654  14.704 -0.0177  0.0004  0.0281
 5893W        W21024   5.222   3.268  13.643  0.0764  0.2163 -0.0456
 5894W        W21025   6.857  11.598   1.288 -0.0898 -0.1898  0.1313
 5895W        W21026   1.038  16.085   0.301  0.0720  0.0677 -0.1537
 5896W        W21027   4.147  16.803  13.783  0.0174  0.0654  0.0297
 5897W        W21028  14.715   3.359   0.784  0.1431  0.0225  0.1369
 5898W        W21029  14.524  17.791  11.715  0.0852  0.3536  0.2692
 5899W        W21030   6.431   8.933   1.563  0.0383  0.1512 -0.1425
 5900W        W21031   8.010   3.153   0.421  0.1331 -0.1813 -0.3441
 5901W        W21032  16.639  14.420  15.555 -0.0018 -0.0755  0.0199
 5902W        W21033   1.933   6.844   1.867  0.2362  0.0395 -0.4554
 5903W        W21034  14.907   9.302   6.301  0.1745 -0.2658 -0.0121
 5904W        W21035   3.139   8.493   2.464  0.2185 -0.2160  0.1366
 5905W        W21036   3.006   8.563  12.651  0.0993 -0.4904 -0.1212
 5906W        W21037  11.643   9.320  16.086 -0.2592  0.0552 -0.2240
 5907W        W21038   7.945   1.325   4.780  0.3264 -0.1479  0.0906
 5908W        W21039   3.086   8.945   0.289 -0.1653  0.0691 -0.2007
 5909W        W21040   4.756   2.427  15.463 -0.1037 -0.0087 -0.0098
 5910W        W21041   4.445   4.108  11.274 -0.0433  0.0003  0.1753
 5911W        W21042  12.449  15.804  16.374  0.2464 -0.0494 -0.2576
 5912W        W21043   7.458  10.934  14.587  0.0158 -0.0509 -0.0666
 5913W        W21044  12.961   7.847   1.292  0.0642  0.0293 -0.0301
 5914W        W21045  17.760  15.687   0.249  0.1781  0.0752  0.0817
 5915W        W21046  17.640   7.103  12.117  0.4310  0.0449  0.1597
 5916W        W21047   5.493  14.121   0.304  0.3608 -0.0190 -0.0917
 5917W        W21048   9.040   4.494  13.645 -0.0702 -0.0896 -0.0956
 5918W        W21049  11.371   8.199   5.128 -0.4396  0.0655 -0.3975
 5919W        W21050  16.819  17.137  12.936 -0.3033 -0.1552 -0.1230
 5920W        W21051  15.032   9.380  11.384  0.4099  0.1933 -0.0859
 5921W        W21052  12.576   3.399   1.577  0.0871  0.1140 -0.2895
 5922W        W21053  12.095  17.577   5.234 -0.0668  0.1585  0.1701
 5923W        W21054  16.083   7.017   4.834 -0.2339 -0.0229  0.2827
 5924W        W21055  14.931  14.051   0.157  0.0618 -0.1935  0.0996
 5925W        W21056  14.364   4.063   1.945 -0.0641 -0.0070  0.0826
 5926W        W21057   8.801   2.284  13.012  0.2892 -0.2147 -0.1965
 5927W        W21058   8.487   9.655   0.993 -0.1334 -0.1748  0.1814
 5928W        W21059  13.747   4.927  10.881 -0.1954 -0.0865  0.3898
 5929W        W21060   8.002   9.943  11.229 -0.0953  0.0481 -0.0123
 5930W        W21061   1.865   6.808  11.910  0.1192 -0.2030  0.1097
 5931W        W21062  10.225   4.785   5.305 -0.1468 -0.2727 -0.0486
 5932W        W21063  15.003   6.527  16.496 -0.0863 -0.4375 -0.0891
 5933W        W21064   0.628  13.225  15.351  0.3883  0.1344  0.3093
 5934W        W21065   2.073  10.494   1.869 -0.0834  0.1878  0.0348
 5935W        W21066  13.716  15.349  12.967 -0.0559  0.2904 -0.1602
 5936W        W21067   1.844  16.930  15.186  0.5034 -0.0506 -0.1756
 5937W        W21068   1.003   7.546   3.025 -0.3018  0.3148  0.1619
 5938W        W21069   1.181   8.586  13.316  0.1175  0.2085 -0.1277
 5939W        W21070   1.947   7.328  13.651  0.2193 -0.4530 -0.0014
 5940W        W21071  10.741  12.958  16.157 -0.2034 -0.2013  0.2337
 5941W        W21072   5.597  17.504   4.744  0.0592 -0.1951 -0.0813
 5942W        W21073  13.723   3.416   1.830  0.0529 -0.1086  0.0182
 5943W        W21074  12.643  15.290  13.163  0.0899 -0.1637  0.2442
 5944W        W21075   6.216   6.666  12.572  0.1639 -0.1693  0.1117
 5945W        W21076   0.981  14.809   5.041  0.1733 -0.2201  0.1163
 5946W        W21077  16.690   7.644   2.543  0.0330 -0.2704 -0.2658
 5947W        W21078   9.318  17.721   2.336  0.1324  0.1735 -0.0744
 5948W        W21079   2.351  11.894   2.436 -0.0400  0.1653 -0.2335
 5949W        W21080   8.878   9.697  12.794  0.3108 -0.2574 -0.1291
 5950W        W21081  15.309  11.430  11.363  0.0399  0.0092 -0.3070
 5951W        W21082  16.064   2.774   4.411 -0.0390  0.1122  0.0993
 5952W        W21083   7.994  12.575  15.704  0.4190 -0.0454 -0.2673
 5953W        W21084  11.843  12.974  14.453 -0.0973  0.0235  0.2629
 5954W        W21085  15.022   6.976  14.471 -0.1215 -0.1847  0.0504
 5955W        W21086   7.129   6.922   2.086  0.0253 -0.1121  0.2044
 5956W        W21087  15.603   1.116  12.894  0.1686 -0.0477  0.0456
 5957W        W21088   3.755  12.039  11.784  0.3387  0.0644  0.0238
 5958W        W21089   0.959   1.727  11.776  0.1990 -0.0392 -0.0281
 5959W        W21090  15.533   3.853   1.644  0.1565 -0.2138  0.2532
 5960W        W21091   1.391   5.829  11.014 -0.1953 -0.1662  0.3452
 5961W        W21092  12.764   5.477   1.911  0.1052  0.1160 -0.0203
 5962W        W21093  16.528   1.084  12.046  0.0205  0.3962  0.3282
 5963W        W21094  12.183   2.771   2.208  0.0829 -0.3016 -0.0014
 5964W        W21095   3.412  10.864  12.057 -0.0722  0.0063 -0.3416
 5965W        W21096  10.471  13.437  11.831 -0.1511  0.0735 -0.0756
 5966W        W21097  12.357  13.109   3.160 -0.1369 -0.1087  0.2682
 5967W        W21098   5.163  12.012   0.855  0.3576 -0.0839  0.0038
 5968W        W21099  13.666   5.306  14.610 -0.3694  0.0005 -0.2129
 5969W        W21100  14.204   8.475   5.361  0.1778  0.0156 -0.1805
 5970W        W21101   6.544  10.070   1.924  0.2322 -0.2591 -0.0142
 5971W        W21102  16.989  13.699  15.188  0.0219 -0.2025 -0.0789
 5972W        W21103   2.352  16.560   2.370 -0.0052  0.0849  0.0053
 5973W        W21104   3.445   3.128  12.221  0.3542 -0.2166  0.1052
 5974W        W21105   5.439   8.527  11.880  0.0698  0.2431 -0.1875
 5975W        W21106   2.434   2.870   1.053  0.1669  0.1033  0.1866
 5976W        W21107   2.149  16.155  14.173 -0.0243  0.0587  0.0311
 5977W        W21108   1.885   8.618   1.779 -0.0176 -0.0428  0.0365
 5978W        W21109  11.118  16.071   4.325 -0.0603 -0.3812 -0.0079
 5979W        W21110  13.507   2.461  12.459  0.1512  0.1418  0.1267
 5980W        W21111   0.622   8.459   5.588 -0.0978 -0.3295 -0.0829
 5981W        W21112   3.059   6.325   2.238  0.0848  0.0988  0.1787
 5982W        W21113   5.554   8.825  15.617  0.1363 -0.2006 -0.0389
 5983W        W21114  14.452   7.193   1.203  0.0501  0.2158 -0.4293
 5984W        W21115  11.941  16.032   3.960  0.0045  0.1106 -0.3166
 5985W        W21116   7.549  13.110  16.011 -0.2958 -0.1081 -0.3095
 5986W        W21117   5.507  16.079   0.450 -0.2120  0.0931 -0.0752
 5987W        W21118   0.342   3.351  16.635  0.1371 -0.1218 -0.0122
 5988W        W21119   1.885   5.840   4.382  0.3569  0.0852  0.2597
 5989W        W21120   5.387  16.242   4.359 -0.0125 -0.0293  0.2534
 5990W        W21121   4.539   4.995  12.621 -0.0876 -0.2448 -0.1272
 5991W        W21122   1.900  16.114   2.558 -0.3590  0.1291 -0.1182
 5992W        W21123   4.173  13.356   0.074  0.1365 -0.2118 -0.0880
 5993W        W21124   3.381   6.963  12.583 -0.1536 -0.1730  0.2304
 5994W        W21125  17.147  16.860  16.381 -0.1488  0.1783  0.1305
 5995W        W21126   8.364  14.589   2.605  0.0656 -0.1285 -0.1589
 5996W        W21127  13.235   6.507  10.987  0.1469  0.1761  0.0482
 5997W        W21128   5.382  13.666  14.862  0.0976  0.2059  0.0917
 5998W        W21129  14.314  10.663  12.787 -0.1948  0.1465 -0.3094
 5999W        W21130  11.653  16.257   2.885 -0.0431  0.1108  0.3520
 6000W        W21131   1.821   6.513   2.322 -0.1855 -0.1278  0.1865
 6001W        W21132   5.327  15.404  15.408 -0.1266  0.0355  0.1307
 6002W        W21133  12.528   7.005   2.464  0.1923  0.1752 -0.0767
 6003W        W21134   5.832   8.508  15.870  0.1819 -0.1762  0.1496
 6004W        W21135  14.434   2.519   2.315 -0.5974  0.1212  0.0697
 6005W        W21136  13.912  15.336   2.998  0.1389 -0.1576  0.0583
 6006W        W21137   0.550   3.719   0.138  0.1513 -0.0756 -0.0126
 6007W        W21138  12.812   3.468   3.384 -0.0540  0.0950 -0.2715
 6008W        W21139   2.736   2.176  16.425  0.0703  0.3496  0.0344
 6009W        W21140  14.552  13.507   0.214 -0.0709 -0.2693 -0.0507
 6010W        W21141  12.647  17.325  12.250 -0.0656  0.3220 -0.0154
 6011W        W21142  16.017   9.160  12.499 -0.3708  0.5404  0.3510
 6012W        W21143  10.994   6.439   5.251  0.0153  0.1017 -0.2304
 6013W        W21144   6.577  10.573   1.951  0.0134 -0.1598 -0.3799
 6014W        W21145  15.855  17.441   2.336  0.2086 -0.0346 -0.1800
 6015W        W21146  16.171  12.279   3.540 -0.0679  0.3791 -0.1124
 6016W        W21147  17.328   1.753  13.499 -0.0832 -0.3561  0.0852
 6017W        W21148  12.067   4.065   1.051 -0.1139 -0.1702 -0.0103
 6018W        W21149   7.979   7.054   4.710 -0.0487 -0.0984  0.0155
 6019W        W21150   4.939  11.940  14.492 -0.2278  0.2655  0.0558
 6020W        W21151   8.561   4.116  14.404  0.1810 -0.1592 -0.2268
 6021W        W21152   3.496  17.752   2.043 -0.1722  0.2282 -0.0600
 6022W        W21153  17.757  17.246   0.365 -0.2709  0.1902 -0.0675
 6023W        W21154  17.384   0.429   4.840  0.0129  0.3351  0.2946
 6024W        W21155   9.037  11.933   5.078 -0.1416 -0.3845 -0.0717
 6025W        W21156   2.558  12.833   3.634  0.0225  0.0362  0.0959
 6026W        W21157  17.285  14.251   0.255 -0.0881 -0.3785  0.0374
 6027W        W21158  16.437   4.591   3.340 -0.2867 -0.4117  0.1245
 6028W        W21159   5.949   0.596  15.418  0.2205  0.1983  0.0226
 6029W        W21160   4.176  15.515   2.009 -0.2550 -0.0538  0.1381
 6030W        W21161   9.485   0.819  13.576  0.3321  0.0545  0.1660
 6031W        W21162  15.595   2.943   2.543 -0.0225 -0.1163  0.3710
 6032W        W21163  15.453  10.241   3.082  0.2118 -0.1190 -0.3340
 6033W        W21164   1.794   9.629  15.657 -0.2099 -0.1525 -0.1107
 6034W        W21165   1.545  14.584  10.950 -0.0623 -0.1120 -0.3937
 6035W        W21166   8.034   6.805  13.531 -0.0946  0.3343 -0.0244
 6036W        W21167  16.137   8.641   0.887  0.2378  0.2318 -0.0389
 6037W        W21168  16.946  17.337  15.630  0.2582 -0.1667  0.2935
 6038W        W21169   6.155   4.301   3.979 -0.0519  0.1359 -0.0147
 6039W        W21170   7.031  11.091  13.470 -0.0879 -0.0243  0.2412
 6040W        W21171  16.100   4.546  10.934 -0.1769  0.0481  0.1885
 6041W        W21172  16.218   0.044  11.332 -0.0179 -0.0398  0.0679
 6042W        W21173  13.549   2.516  15.826  0.2398 -0.1006 -0.3418
 6043W        W21174   5.293   9.415   4.245  0.1641 -0.0557  0.2611
 6044W        W21175   8.329  17.124  16.063 -0.1737 -0.2285 -0.0971
 6045W        W21176   6.217  11.285   1.547  0.0078  0.0736  0.1769
 6046W        W21177   6.795   5.430   4.870 -0.1682  0.1713  0.4662
 6047W        W21178  11.889   3.866  14.174  0.2856  0.0625  0.0784
 6048W        W21179  16.622  13.752   4.139 -0.0152  0.0720  0.0923
 6049W        W21180   4.513  14.893  13.177 -0.0066  0.1954 -0.3617
 6050W        W21181   0.166  14.776   3.950  0.1885 -0.0687 -0.0725
 6051W        W21182   1.110  15.856  15.730  0.0359  0.1773  0.0905
 6052W        W21183  13.379   7.104  11.673 -0.0164  0.0652 -0.3426
 6053W        W21184   9.195   5.685  14.661 -0.0678  0.1593  0.0713
 6054W        W21185   0.270  10.100  14.900  0.2175 -0.0478  0.1583
 6055W        W21186   3.189   1.095   0.730 -0.0074  0.0294 -0.0399
 6056W        W21187   4.243   6.151   3.079  0.0209 -0.0848 -0.0601
 6057W        W21188   2.359  17.471   5.038 -0.0988  0.0002 -0.1500
 6058W        W21189   9.668   0.155  11.389 -0.2977  0.0705  0.0940
 6059W        W21190   0.551   1.458   3.572 -0.2353  0.0068  0.0846
 6060W        W21191  14.135   7.461  13.773 -0.0134 -0.1247 -0.0428
 6061W        W21192   6.507  15.269   3.614  0.1168  0.0129 -0.1338
 6062W        W21193  14.713  17.006  11.597 -0.2689  0.1104  0.0316
 6063W        W21194   9.799   9.014  11.804  0.0091  0.0161  0.1764
 6064W        W21195  15.760   5.274  16.229 -0.0704  0.0029  0.0056
 6065W        W21196  10.152   4.296   4.295  0.2039  0.1525 -0.0682
 6066W        W21197  15.396   3.475  12.701  0.1199  0.1595 -0.1311
 6067W        W21198   8.458  17.430   0.960 -0.1472 -0.3656 -0.2703
 6068W        W21199  14.364  17.646   3.099 -0.1743 -0.0635 -0.1234
 6069W        W21200  10.318  14.046  16.570  0.0798  0.0840 -0.0653
 6070W        W21201  13.413   1.833   4.448 -0.0126 -0.1735 -0.1251
 6071W        W21202   5.959  17.453   2.182  0.0765 -0.0033  0.0268
 6072W        W21203  17.723   7.922  13.850  0.2636  0.0353 -0.2071
 6073W        W21204   8.626   4.723   2.624 -0.0239 -0.3546 -0.1855
 6074W        W21205   4.587  11.599   1.375  0.1031  0.0223  0.4859
 6075W        W21206  16.291  16.083  15.726 -0.2855 -0.0814  0.2109
 6076W        W21207  17.081   5.140  11.354 -0.2734  0.4845 -0.0978
 6077W        W21208   5.249   7.765   4.029 -0.4271  0.0584 -0.1065
 6078W        W21209  16.591  11.677   2.931  0.2843 -0.2477 -0.0453
 6079W        W21210  11.151  10.689   0.163  0.0843  0.3824  0.0160
 6080W        W21211  10.048  12.310  15.767  0.2626  0.1298 -0.1442
 6081W        W21212   6.659   1.148   0.632  0.2681 -0.0725 -0.0039
 6082W        W21213  16.119   4.561   0.217 -0.0000  0.0011 -0.0643
 6083W        W21214   3.438   9.570   5.292  0.0018  0.1255  0.1678
 6084W        W21215  11.312   2.799  10.434  0.1579 -0.2566 -0.2778
 6085W        W21216  14.708  12.179   3.189 -0.1318  0.2777  0.0391
 6086W        W21217   9.861   6.671   0.028  0.2068  0.1348  0.0945
 6087W        W21218   6.321   8.487  15.781 -0.0431  0.2553 -0.0101
 6088W        W21219  10.469   1.972   0.514 -0.0774 -0.0863 -0.1002
 6089W        W21220   8.766   6.306  11.067  0.1357  0.0418 -0.1432
 6090W        W21221   0.973  11.925  11.558  0.0509 -0.2076 -0.0623
 6091W        W21222   1.717  15.160  11.253 -0.0337 -0.0172 -0.0086
 6092W        W21223   2.725  14.059  13.069 -0.0008  0.0595 -0.0735
 6093W        W21224   1.460  15.810  15.353 -0.0311 -0.1963  0.1115
 6094W        W21225   8.671  14.643   0.683 -0.2032 -0.0028  0.0876
 6095W        W21226   8.221  12.997   1.848  0.4260  0.0823  0.1686
 6096W        W21227   6.542   9.872   4.714  0.2764  0.0730  0.6209
 6097W        W21228   2.992   7.176   5.537  0.3450  0.3102  0.0969
 6098W        W21229  13.350  15.085   0.882 -0.1535 -0.0414  0.0961
 6099W        W21230   0.108  14.009  12.706 -0.1707 -0.1962 -0.0716
 6100W        W21231   7.223   8.112   2.029 -0.4992  0.0271 -0.0374
 6101W        W21232   9.133   5.513  15.207  0.1516  0.4394 -0.5148
 6102W        W21233   3.806   4.374   2.457  0.2981  0.1537  0.2333
 6103W        W21234   6.462  16.627   3.721  0.0580 -0.1592  0.0921
 6104W        W21235   2.819   9.861  13.762  0.0007  0.0562  0.1655
 6105W        W21236   9.199   8.123   2.581  0.0493 -0.1907  0.1384
 6106W        W21237  10.903   9.936  16.088  0.2963  0.0475 -0.2312
 6107W        W21238   2.199   0.175  15.123 -0.1889  0.0773 -0.0730
 6108W        W21239   5.234  11.259  11.388 -0.3243 -0.0495  0.0759
 6109W        W21240   4.739   2.846   1.981  0.3847  0.0283  0.0925
 6110W        W21241   4.159   6.934  14.739  0.1281  0.1587 -0.0263
 6111W        W21242   9.458   2.851   4.509  0.0871 -0.0534  0.0631
 6112W        W21243   1.526   9.336  16.337 -0.0553  0.0751  0.2351
 6113W        W21244  14.970   1.826   5.175 -0.3113 -0.0465 -0.2902
 6114W        W21245   3.505  17.553  16.572  0.0157  0.0172  0.3971
 6115W        W21246   4.081  11.831  15.307 -0.0567 -0.4641  0.3899
 6116W        W21247  13.395   9.384   0.524  0.0304  0.0720  0.1421
 6117W        W21248   2.986   3.377  14.791 -0.0829 -0.1067  0.0984
 6118W        W21249   6.390   3.034  16.345 -0.0613 -0.3194 -0.0289
 6119W        W21250   7.054   8.438   4.857  0.1339  0.0255 -0.0837
 6120W        W21251  15.705   8.061   1.327  0.3546 -0.0824 -0.1953
 6121W        W21252  16.280  17.637   0.022  0.1617  0.3717  0.0566
 6122W        W21253   2.751   0.531   2.809  0.1911 -0.3450 -0.2040
 6123W        W21254   3.201  13.437  15.386 -0.0033 -0.2331 -0.3760
 6124W        W21255  11.071   4.935  11.354 -0.1115  0.0811  0.1906
 6125W        W21256   6.413  12.033  14.314 -0.1536 -0.0416  0.0930
 6126W        W21257   2.583   8.916  14.509  0.1031  0.1118  0.1597
 6127W        W21258   0.725   7.078  12.020 -0.0290 -0.0230 -0.1425
 6128W        W21259   7.516   9.288  16.323  0.1224 -0.0147  0.1975
 6129W        W21260   2.252  11.070  11.703 -0.0381  0.0601  0.0029
 6130W        W21261   8.855   6.683   4.615 -0.0323  0.0157 -0.2202
 6131W        W21262   5.586   7.198  15.292  0.0498  0.1036  0.0707
 6132W        W21263   0.424   3.891  10.423 -0.1037  0.1313  0.1607
 6133W        W21264   7.765  15.661  13.911  0.1130  0.0958  0.0370
 6134W        W21265  12.917  13.201   3.016 -0.1335  0.0847 -0.1501
 6135W        W21266  15.546   3.734   5.013 -0.1066  0.1888  0.3928
 6136W        W21267  14.011  17.009   0.417  0.0033  0.0862  0.1799
 6137W        W21268  17.429   2.261  15.893  0.1550 -0.2385 -0.0379
 6138W        W21269   4.264   9.396   1.917 -0.0926  0.2962  0.1565
 6139W        W21270  11.367  15.859   3.062  0.2047  0.0323  0.0718
 6140W        W21271   5.113   3.414  16.208  0.1046 -0.0217  0.3731
 6141W        W21272   5.098  11.986  16.327 -0.2046  0.2689 -0.0168
 6142W        W21273  17.638   4.445  12.592  0.1772 -0.2558  0.0512
 6143W        W21274   2.481   7.041   2.141  0.1100 -0.1237  0.0514
 6144W        W21275   3.959   1.220   0.544 -0.0361  0.0469 -0.4074
 6145W        W21276   7.042  14.136   5.097  0.0960  0.0395 -0.0049
 6146W        W21277  16.039   1.827   2.236 -0.2467  0.2300 -0.0496
 6147W        W21278   6.705  12.659  15.524  0.2387  0.2059  0.0098
 6148W        W21279  13.856  10.930  12.174 -0.1822  0.2439 -0.0041
 6149W        W21280   1.141   6.396  14.482  0.0824 -0.1084  0.0196
 6150W        W21281   6.041   7.274   0.144 -0.0712  0.1292 -0.0636
 6151W        W21282   0.561   8.213   0.596 -0.0623 -0.0292  0.0441
 6152W        W21283  16.250  15.391  12.225 -0.1627 -0.1891 -0.2577
 6153W        W21284   3.816  15.253  13.866  0.0211 -0.1660  0.2634
 6154W        W21285   8.577   9.999  15.251  0.1435 -0.0937  0.1960
 6155W        W21286  11.022   7.025   0.332  0.1920  0.0696 -0.1092
 6156W        W21287  13.399   7.180  12.599 -0.0310 -0.1981  0.1326
 6157W        W21288  17.342   8.089  14.326 -0.0847  0.1011  0.1285
 6158W        W21289   8.498  16.685  14.753  0.2351 -0.1441 -0.0623
 6159W        W21290  10.365   4.988   1.744 -0.0392 -0.1583 -0.3451
 6160W        W21291   5.500   6.588  14.895  0.0884 -0.1339 -0.2381
 6161W        W21292   7.137  12.529  15.133  0.1037  0.0245 -0.3828
 6162W        W21293   2.934   7.195   1.775 -0.0668 -0.1506 -0.0968
 6163W        W21294  15.598   6.878  16.665  0.0432 -0.2298  0.0825
 6164W        W21295  13.308  12.463  13.769  0.0943  0.3247 -0.0098
 6165W        W21296  11.950  11.571  16.095 -0.0088  0.0223 -0.1123
 6166W        W21297   6.958   4.703  14.471 -0.2143  0.1125 -0.2412
 6167W        W21298  10.990   8.253   3.648  0.0492  0.1832  0.3385
 6168W        W21299  13.111  17.671  10.832 -0.0889  0.3672  0.2551
 6169W        W21300   2.530   7.507  16.584  0.2857  0.0507  0.1522
 6170W        W21301   3.918  13.447   1.769 -0.0069 -0.0457  0.0785
 6171W        W21302   1.134  14.354  16.625  0.0910  0.2126 -0.1101
 6172W        W21303   4.253   4.417   5.184 -0.0250  0.1040 -0.1325
 6173W        W21304   6.367   2.957   3.964  0.0487  0.0561 -0.0717
 6174W        W21305   5.379  10.905   1.198  0.2163  0.0351  0.0625
 6175W        W21306   5.206  12.791  12.539 -0.0850 -0.2367  0.3062
 6176W        W21307  14.884  17.496   2.494  0.4003 -0.1572  0.0379
 6177W        W21308   6.439  13.820  14.724  0.2428 -0.1861  0.3530
 6178W        W21309  13.859   9.434  12.449 -0.2017 -0.0029  0.0868
 6179W        W21310  17.577   4.792   2.550 -0.1685 -0.0514  0.1312
 6180W        W21311  12.078   5.436  14.215 -0.0060  0.0353 -0.0638
 6181W        W21312  16.106   5.657  12.968  0.2217 -0.0462  0.1260
 6182W        W21313   5.012  14.208  13.193  0.4022  0.2510  0.1688
 6183W        W21314   8.765   2.165   0.555 -0.0418  0.1491 -0.0060
 6184W        W21315   7.243   6.425   0.526  0.4408  0.0788 -0.0985
 6185W        W21316   5.617  12.175   2.645 -0.0101 -0.2749 -0.2296
 6186W        W21317   8.782   6.850   1.587  0.1868 -0.1527 -0.3234
 6187W        W21318  17.250   5.572   5.630 -0.1022 -0.0837  0.2522
 6188W        W21319   0.478  10.089  16.103 -0.2234  0.2814 -0.0007
 6189W        W21320   5.631   5.406   2.764  0.2915  0.1357 -0.3373
 6190W        W21321  13.355  15.157   3.887  0.2220  0.1107 -0.1489
 6191W        W21322  15.402   5.149   2.669 -0.0935  0.1210 -0.2351
 6192W        W21323  11.983   2.984  16.205 -0.0809 -0.0744 -0.2357
 6193W        W21324   2.749   8.355   3.187 -0.0391  0.0252 -0.4200
 6194W        W21325  13.438   9.876   2.428 -0.2462  0.0546 -0.2469
 6195W        W21326   3.141   5.091  15.654  0.2218 -0.0353 -0.4840
 6196W        W21327   6.725   7.411  13.708 -0.0365  0.0622 -0.0255
 6197W        W21328  12.120   3.023   1.299  0.0161  0.4429  0.3106
 6198W        W21329   9.475  16.051   1.705  0.0632 -0.0532  0.0322
 6199W        W21330   7.424  11.810  11.564 -0.0445 -0.2854  0.2718
 6200W        W21331  11.979   9.081   1.722  0.0332 -0.2945  0.2347
 6201W        W21332   7.504   3.937   1.528 -0.6389  0.0654  0.0605
 6202W        W21333   8.739   3.015  16.303 -0.0626  0.0601 -0.0682
 6203W        W21334   8.891  10.072  14.190  0.2472  0.1541  0.1689
 6204W        W21335   1.434  11.220   5.250 -0.0330  0.3470 -0.2061
 6205W        W21336  14.778  12.124   4.624 -0.0216 -0.0862 -0.2149
 6206W        W21337  12.262   7.934  16.309 -0.0586 -0.1379  0.1353
 6207W        W21338   2.332   3.903  13.630  0.4121  0.0005 -0.0483
 6208W        W21339   8.352   7.100  15.914 -0.0493  0.1034  0.0772
 6209W        W21340   6.292   1.289   3.035 -0.0254  0.2835  0.2421
 6210W        W21341  11.078   1.514  15.876 -0.2043  0.0460  0.2872
 6211W        W21342   1.252   7.493   2.190 -0.0447 -0.3736  0.1187
 6212W        W21343  12.217   9.705  13.792  0.1094  0.1327 -0.2884
 6213W        W21344  11.679   0.765   0.116 -0.1773  0.2503  0.1257
 6214W        W21345   8.506   3.374  13.871  0.0443 -0.0088 -0.0659
 6215W        W21346  12.486   6.886   3.613  0.0757 -0.1254  0.2510
 6216W        W21347   0.513  10.879   2.236  0.0634  0.1595  0.0457
 6217W        W21348   4.587   7.733   1.384  0.0901  0.0856  0.1263
 6218W        W21349   6.859   1.149   5.107 -0.1302 -0.1831  0.2671
 6219W        W21350  15.570   8.619  11.032 -0.2044 -0.2496 -0.0544
 6220W        W21351   4.638   6.832  14.473 -0.0023  0.1647  0.1936
 6221W        W21352  10.668  11.252   3.437  0.0807 -0.1254 -0.0219
 6222W        W21353  13.788   8.855   6.557 -0.3224 -0.3298 -0.0992
 6223W        W21354  10.887   2.701  12.364  0.0220  0.0431 -0.1390
 6224W        W21355  13.406   7.332  16.324 -0.0635  0.1171 -0.4560
 6225W        W21356   9.413   1.584  12.429  0.0036  0.1266  0.1436
 6226W        W21357  11.003  16.354  13.778  0.1789  0.0609  0.2217
 6227W        W21358  17.494  11.194   1.932  0.0475 -0.0614  0.1592
 6228W        W21359   2.794  14.309   4.961 -0.2021  0.1269 -0.0435
 6229W        W21360   4.193   1.980  14.126 -0.1839  0.0670 -0.1284
 6230W        W21361  16.131   9.302   2.960  0.0434 -0.0174 -0.0150
 6231W        W21362   3.274  16.893  14.321 -0.0405 -0.0233  0.2698
 6232W        W21363  12.573  10.109  15.507 -0.0450  0.0600 -0.3079
 6233W        W21364  16.732   5.793   0.851 -0.0762  0.2483  0.1353
 6234W        W21365   4.555   6.970  15.557  0.2714  0.2072 -0.0276
 6235W        W21366  13.165  14.721   3.110  0.0561 -0.0085  0.1388
 6236W        W21367   5.799  17.829   1.000 -0.0502  0.0777 -0.2058
 6237W        W21368  11.699   1.133   3.946 -0.1443 -0.1521 -0.1372
 6238W        W21369   0.467  13.872   6.002 -0.1716 -0.0908 -0.1509
 6239W        W21370  13.675   4.346  12.132  0.1713 -0.0801 -0.2687
 6240W        W21371   4.832   8.825   0.659 -0.3203 -0.5167  0.0934
 6241W        W21372  16.890  16.443  11.317  0.1822  0.1332  0.3022
 6242W        W21373  15.484  13.748  15.517 -0.2055  0.0967  0.1344
 6243W        W21374   8.695  15.967  13.678 -0.2733  0.1176 -0.1384
 6244W        W21375   8.245  12.909   4.794  0.0902 -0.2696 -0.0511
 6245W        W21376  17.096  16.735  12.853 -0.1952  0.0522 -0.0123
 6246W        W21377  11.622   3.153  13.649 -0.1811 -0.0919 -0.0554
 6247W        W21378   3.170  13.393   0.489  0.0593 -0.3141  0.1527
 6248W        W21379  10.412  17.564  15.961 -0.0609 -0.1389  0.1193
 6249W        W21380   6.478  10.433   1.495  0.1694  0.1758  0.0588
 6250W        W21381  10.482  15.481   1.411 -0.1188 -0.3316 -0.1724
 6251W        W21382   5.668   8.064   2.850 -0.1965  0.1406  0.1392
 6252W        W21383   0.944  13.590  12.854  0.0518  0.0669 -0.2634
 6253W        W21384  14.685  15.989  15.479 -0.0435 -0.1911  0.0866
 6254W        W21385  15.199  12.521   3.174  0.0247 -0.2211 -0.1312
 6255W        W21386  13.418  17.487  14.917  0.2902 -0.2159  0.2547
 6256W        W21387   2.006  12.848  15.447  0.0750  0.0624  0.3684
 6257W        W21388   0.099   0.301  16.132 -0.3708 -0.1645 -0.2185
 6258W        W21389  14.258   7.877   2.078  0.0637 -0.1270  0.0788
 6259W        W21390  12.953   4.640  14.094  0.0779 -0.1333 -0.0176
 6260W        W21391   9.969  16.345  16.447  0.2300 -0.0135 -0.2310
 6261W        W21392   2.601   1.463   0.474  0.1738  0.0643  0.1211
 6262W        W21393  13.162   9.744   0.913 -0.0568 -0.3360 -0.0499
 6263W        W21394  15.907   5.693  14.415  0.0983  0.1484  0.1141
 6264W        W21395   2.065  12.740   0.330  0.2091 -0.0651 -0.1643
 6265W        W21396  12.319  14.797  14.425 -0.1391 -0.0781 -0.2845
 6266W        W21397  12.231   1.574   3.647 -0.0588 -0.0034  0.0157
 6267W        W21398   1.751   5.391   1.667 -0.0653  0.2162 -0.1327
 6268W        W21399   5.770  16.094   3.382  0.1565 -0.2173  0.0316
 6269W        W21400  13.759   9.199   0.790  0.0062 -0.0391  0.0209
 6270W        W21401  12.001   2.696   0.255  0.3295  0.0810 -0.1374
 6271W        W21402  15.388   2.137   1.504 -0.0093 -0.0375 -0.0126
 6272W        W21403   0.536   5.515   1.517 -0.0230 -0.2639  0.2286
 6273W        W21404  11.538   6.521   4.871  0.0820 -0.1112  0.1926
 6274W        W21405   3.221  10.300   0.053 -0.0931 -0.1062  0.1662
 6275W        W21406  10.056  16.590  12.711 -0.1138  0.1765  0.0110
 6276W        W21407   2.947  11.034  14.190 -0.1639 -0.1752 -0.0840
 6277W        W21408  13.554   9.762  13.711 -0.2814 -0.0004 -0.1517
 6278W        W21409   4.843   2.712  16.425 -0.0614 -0.1516  0.2060
 6279W        W21410   6.079   8.005   2.598  0.0281  0.1481  0.1962
 6280W        W21411   4.999  14.184   0.078  0.1610  0.1022  0.1880
 6281W        W21412  14.537   2.181   1.937  0.1849 -0.0986  0.0332
 6282W        W21413   7.586  10.517  12.113 -0.1944 -0.3510 -0.0957
 6283W        W21414  14.989   1.589   0.156 -0.2045 -0.2807 -0.0983
 6284W        W21415  10.967   8.368  12.839  0.2321 -0.0340  0.0295
 6285W        W21416   5.317   8.923  12.428  0.0100 -0.1383 -0.1655
 6286W        W21417  13.213  12.251   2.319 -0.0289 -0.0364  0.0693
 6287W        W21418  14.714  16.385   2.123 -0.0034  0.1856 -0.2862
 6288W        W21419   9.397  15.611   3.663 -0.1369  0.0806 -0.0623
 6289W        W21420   5.552  17.584  15.371  0.0838 -0.1396 -0.0890
 6290W        W21421   4.798  10.064  15.142 -0.3487 -0.1322  0.0591
 6291W        W21422   1.156   3.756  11.743  0.1496  0.0976 -0.2535
 6292W        W21423   0.368   3.979   5.802  0.0066  0.0538 -0.0816
 6293W        W21424   5.336  11.216   4.075  0.1539  0.2084 -0.1924
 6294W        W21425   5.759   8.502   5.671 -0.1580 -0.3330 -0.0431
 6295W        W21426  17.611   8.949   3.328 -0.3864  0.2380  0.0108
 6296W        W21427  16.449   5.571  13.300  0.2632 -0.0170  0.0008
 6297W        W21428  17.312   6.131  12.106  0.2847 -0.0953 -0.0874
 6298W        W21429   3.671  12.582  12.454  0.3569  0.2313 -0.0753
 6299W        W21430   4.435  13.975   3.665  0.3381  0.0181 -0.2567
 6300W        W21431   7.187   8.339  12.710 -0.1864  0.3713 -0.1396
 6301W        W21432   0.838   4.128   4.666 -0.2033 -0.1471  0.4026
 6302W        W21433  16.648   2.453   0.788  0.1795  0.1230  0.1971
 6303W        W21434  15.582   9.930   1.378  0.1259  0.0201 -0.0842
 6304W        W21435  10.283   6.363  13.725 -0.0449 -0.1787  0.0097
 6305W        W21436  10.032  13.500  11.445  0.2126  0.2028  0.1991
 6306W        W21437   9.326  11.959  14.970 -0.4075  0.0851  0.1068
 6307W        W21438  17.161  17.024   5.100 -0.1907  0.3434 -0.2299
 6308W        W21439   0.562   4.772  16.059 -0.0265 -0.1167  0.0452
 6309W        W21440  12.364  14.882  13.087  0.2370  0.1154  0.0216
 6310W        W21441  10.375   9.157   2.620  0.1242 -0.2332  0.1124
 6311W        W21442   5.949  16.375  15.089  0.0231 -0.0006 -0.2336
 6312W        W21443   4.059  12.573  15.182 -0.0118  0.1876 -0.1309
 6313W        W21444   9.017   1.804   4.276 -0.0066  0.5225  0.2143
 6314W        W21445  13.957  16.411  12.835 -0.1294  0.2037 -0.0336
 6315W        W21446  11.520   6.994  11.796 -0.3611 -0.0104  0.0051
 6316W        W21447  16.995   3.341   5.100 -0.3154  0.0249  0.0425
 6317W        W21448   2.049   4.727   6.031  0.0144  0.0861 -0.1053
 6318W        W21449   6.141   5.402  11.921 -0.2841 -0.0387 -0.1741
 6319W        W21450  13.813   9.500  16.450 -0.1078  0.2368 -0.0029
 6320W        W21451   8.326  15.608   1.030 -0.0429  0.1335  0.2739
 6321W        W21452   5.091   2.623  14.902 -0.1442  0.0743 -0.0277
 6322W        W21453   7.618  14.553  11.189 -0.2032  0.3599  0.0424
 6323W        W21454   1.717  10.030  13.415 -0.0774 -0.1041 -0.0181
 6324W        W21455  11.882   9.982   2.259 -0.2588 -0.1271 -0.0689
 6325W        W21456  11.728   6.844  14.364  0.1455  0.1965 -0.0383
 6326W        W21457   1.588   5.779   2.996  0.3924 -0.0123 -0.0403
 6327W        W21458   7.737   2.620  12.400 -0.0380  0.1911  0.2308
 6328W        W21459   5.511   6.317   3.404  0.1392 -0.0286  0.3449
 6329W        W21460   4.145   9.755  11.116  0.1628 -0.0065  0.1977
 6330W        W21461  14.720   9.279   1.329 -0.0124  0.2789  0.2283
 6331W        W21462  11.337   8.129  15.069  0.1942  0.2142  0.0890
 6332W        W21463   5.671  17.747  14.420 -0.2735 -0.0151  0.1507
 6333W        W21464  16.380  12.059  15.388 -0.0606  0.2036 -0.2193
 6334W        W21465  17.848   1.366  13.864 -0.0644 -0.0490 -0.0925
 6335W        W21466  17.295  17.864  12.482  0.0570 -0.0152 -0.3854
 6336W        W21467   2.822   7.168   5.062 -0.2226  0.0157 -0.2187
 6337W        W21468   8.669   3.734  13.477  0.1689 -0.0269  0.1609
 6338W        W21469   4.347  10.033  14.900  0.0178  0.2167 -0.2078
 6339W        W21470   8.346   2.295   4.708 -0.1822 -0.3426  0.1818
 6340W        W21471   2.478   3.209   3.473  0.1443  0.0840  0.0534
 6341W        W21472   7.339   4.497   5.018  0.2430  0.0052 -0.1193
 6342W        W21473  13.196  11.327   1.805 -0.2340 -0.2432  0.1362
 6343W        W21474   8.526   5.285   2.203  0.1854  0.0363 -0.2241
 6344W        W21475   7.315  14.625   0.370 -0.1250  0.1495  0.2890
 6345W        W21476   6.635   1.225   3.550 -0.0612  0.3480  0.2043
 6346W        W21477  15.053   9.975   5.156  0.0080  0.2748 -0.0138
 6347W        W21478   9.163   7.223   0.572  0.3199  0.1733 -0.2419
 6348W        W21479  16.423   6.722   4.575  0.0008  0.0009  0.1194
 6349W        W21480  16.324  13.076   3.427  0.2149  0.1694 -0.2361
 6350W        W21481  14.011  12.583   1.994  0.0535  0.1059 -0.1101
 6351W        W21482   8.592   7.045   0.598 -0.0647  0.0900  0.1213
 6352W        W21483  15.741   3.345   4.722 -0.0153 -0.0720 -0.0963
 6353W        W21484   3.951  15.029  15.347 -0.0566  0.4377 -0.0967
 6354W        W21485  15.438   3.200  16.432 -0.0745 -0.1072 -0.2304
 6355W        W21486  17.314   7.513  15.105 -0.0701 -0.0604  0.2336
 6356W        W21487  12.712   6.955  14.645  0.1039 -0.1148  0.0354
 6357W        W21488  13.387   4.925   3.130 -0.0536 -0.1966  0.0091
 6358W        W21489   5.703   9.933   4.898 -0.4608  0.3203  0.1041
 6359W        W21490  14.471  13.624   4.687  0.1755 -0.0497 -0.2845
 6360W        W21491   3.693  17.435  12.768  0.0608 -0.2311 -0.0366
 6361W        W21492   7.061  13.846   4.681 -0.0637 -0.1259 -0.1278
 6362W        W21493   5.326  17.369   3.612  0.1262 -0.0071 -0.0748
 6363W        W21494   5.528  11.938   1.294 -0.2151 -0.1214 -0.1652
 6364W        W21495   3.820  14.509  12.505  0.1111 -0.1649 -0.2167
 6365W        W21496   3.431  14.166  12.445 -0.3727  0.0082 -0.0692
 6366W        W21497  10.867   7.294   0.813 -0.1930 -0.1465  0.0547
 6367W        W21498   2.508   1.539  14.872  0.0015 -0.1286  0.2851
 6368W        W21499  12.026   6.383   4.969 -0.0447  0.1943  0.0103
 6369W        W21500  13.625   2.748  14.641  0.0822  0.0687  0.1094
 6370W        W21501   1.688  12.532   0.727 -0.1951 -0.0039 -0.1597
 6371W        W21502  14.909  13.012   5.722  0.1107  0.0194  0.1328
 6372W        W21503   1.464   5.749   4.067  0.2162  0.0730 -0.0726
 6373W        W21504   0.038   4.420   0.693 -0.1305 -0.0367  0.0885
 6374W        W21505   9.224   4.782   2.692 -0.0437 -0.0451 -0.0333
 6375W        W21506   1.615   9.135   0.911  0.2080  0.1228  0.0240
 6376W        W21507   9.114  11.755   0.193  0.0822  0.4468 -0.0419
 6377W        W21508  14.746  13.791   3.112  0.0417  0.0105 -0.1324
 6378W        W21509   0.585  11.507   3.314 -0.0707  0.0459  0.3052
 6379W        W21510   7.113  10.513   5.607  0.3840 -0.1910 -0.0905
 6380W        W21511  13.455  15.338  15.107 -0.0347 -0.2406 -0.2574
 6381W        W21512  13.781   7.794  15.097 -0.5634  0.0221  0.3645
 6382W        W21513  10.705   1.055   0.720  0.0347  0.0806 -0.2647
 6383W        W21514  16.014   6.989   3.830  0.2387  0.3177  0.1708
 6384W        W21515  16.118   3.547  15.217  0.1336  0.0342 -0.2381
 6385W        W21516   7.637   7.288   5.023 -0.1461 -0.0977  0.1589
 6386W        W21517   1.317   2.599  13.415  0.0217 -0.0222 -0.2427
 6387W        W21518  14.899   9.265  15.557 -0.2147 -0.0224  0.0752
 6388W        W21519   6.350  16.872  11.232 -0.0808 -0.0667 -0.2990
 6389W        W21520   4.276   7.076  12.000  0.2994 -0.0264 -0.0784
 6390W        W21521  12.827  15.577  12.742 -0.1694  0.0874 -0.1508
 6391W        W21522  13.693  10.127   4.380  0.4169  0.1400 -0.1127
 6392W        W21523   5.763  15.124  14.497  0.0772 -0.0542 -0.2444
 6393W        W21524  10.949   4.916   1.104 -0.3142 -0.2064  0.2131
 6394W        W21525  16.527  13.816  15.204  0.0207 -0.0358 -0.0305
 6395W        W21526   6.168   8.282   6.235 -0.0681 -0.0447  0.1248
 6396W        W21527  13.445  15.103   5.610  0.2507 -0.1376  0.1677
 6397W        W21528   5.095   3.279   2.535  0.1298  0.0965 -0.1494
 6398W        W21529   2.798  16.727   1.283 -0.1179  0.1622  0.0198
 6399W        W21530  11.220  13.343   2.120 -0.0800 -0.1980  0.2806
 6400W        W21531  15.494  12.488   5.470 -0.3346 -0.0648  0.0010
 6401W        W21532   1.198   1.599  11.315 -0.2178 -0.2839 -0.1912
 6402W        W21533  11.214  16.701  13.258 -0.1179  0.2360 -0.1836
 6403W        W21534   5.645  14.916   0.184  0.0236 -0.1152  0.1338
 6404W        W21535   6.621   9.985  11.410  0.0762  0.1329 -0.2601
 6405W        W21536   4.152   7.396  12.357  0.2925 -0.1294 -0.3460
 6406W        W21537   8.988  12.056   3.125  0.0145  0.1432 -0.2775
 6407W        W21538   8.563   8.897   5.599  0.0885 -0.2792  0.2270
 6408W        W21539  15.136   2.986   2.657  0.0177  0.2755 -0.0913
 6409W        W21540   4.627   2.853  11.560 -0.0320  0.0353  0.0527
 6410W        W21541   7.931  14.857   2.381  0.0307  0.0996  0.0928
 6411W        W21542   1.559  15.964   2.915 -0.0513  0.0245 -0.3657
 6412W        W21543  16.300  13.961  12.504  0.1087  0.1073 -0.1377
 6413W        W21544  13.078  17.153   4.446  0.1484  0.1321 -0.1226
 6414W        W21545   7.888   3.430   2.215  0.1729  0.0881  0.2255
 6415W        W21546   7.506  16.964   3.534 -0.1135 -0.0366  0.1516
 6416W        W21547   2.985   7.257  16.546  0.4053 -0.1318  0.3266
 6417W        W21548  15.505   2.542  12.606 -0.1054 -0.0821 -0.0712
 6418W        W21549   1.033   9.868  12.138 -0.0590 -0.3746  0.0769
 6419W        W21550  10.248   6.701  14.087  0.2924  0.2296 -0.3003
 6420W        W21551   0.763  16.475   5.883 -0.2407  0.5203 -0.0440
 6421W        W21552  12.633  16.484   0.514 -0.1227 -0.1611  0.1663
 6422W        W21553  13.476  12.748  16.242  0.2232  0.4111  0.1125
 6423W        W21554  12.863   5.893  10.552  0.1781 -0.0174 -0.0363
 6424W        W21555  11.397   8.332  16.332  0.3357  0.0183 -0.0408
 6425W        W21556  16.025   4.770  15.622  0.1658 -0.1708 -0.2748
 6426W        W21557   8.298   1.583   2.913  0.0152 -0.3131 -0.2515
 6427W        W21558  12.908  12.739  13.984  0.2475 -0.0639 -0.0702
 6428W        W21559  16.067   8.988  13.600  0.1270 -0.0337  0.2132
 6429W        W21560  15.448   4.307  14.500  0.0089 -0.0232 -0.2489
 6430W        W21561   8.337   8.134   4.737 -0.3061  0.2961 -0.0282
 6431W        W21562   2.962   6.194  14.777  0.1725  0.1403 -0.1685
 6432W        W21563   4.249  11.841   5.738 -0.1393  0.4281 -0.0456
 6433W        W21564   2.294   0.506  15.636 -0.0778  0.1516  0.1905
 6434W        W21565   8.383   8.105  10.616  0.1713  0.1236 -0.1469
 6435W        W21566   1.718  10.130  14.828 -0.1534 -0.0855  0.1189
 6436W        W21567   5.223   5.210   4.512 -0.0116 -0.3154  0.1992
 6437W        W21568   0.685   9.938   6.373 -0.0728  0.2491 -0.3206
 6438W        W21569  14.216   0.058  13.427  0.2148 -0.2141 -0.0236
 6439W        W21570   4.977   7.929   3.655 -0.0077 -0.0319 -0.0125
 6440W        W21571  14.308  11.562  11.066  0.1078  0.2770 -0.3019
 6441W        W21572  14.811  12.195   4.089 -0.2337 -0.2080 -0.2885
 6442W        W21573   3.522   9.100   3.767 -0.2266  0.1496  0.0213
 6443W        W21574  13.919   8.174  14.865 -0.1414 -0.1919 -0.1188
 6444W        W21575   6.904   0.592  14.315 -0.3149  0.2170 -0.1225
 6445W        W21576   2.276  10.789  13.962 -0.0557  0.1754 -0.1802
 6446W        W21577   2.159   8.783   5.707 -0.4007 -0.1616 -0.1274
 6447W        W21578  12.277   5.538  13.150  0.2577  0.0205 -0.1655
 6448W        W21579   0.935   3.069  13.919  0.2142 -0.1910  0.3233
 6449W        W21580   7.349  15.348   4.498  0.0914  0.0435  0.0476
 6450W        W21581   2.325   9.520  14.991 -0.2658  0.0065  0.0817
 6451W        W21582  10.830   4.253  15.092  0.3090 -0.1416 -0.1966
 6452W        W21583  17.263   3.031  16.500 -0.0335  0.2555  0.4585
 6453W        W21584   8.794   8.507   1.324 -0.1530 -0.0650 -0.0342
 6454W        W21585   7.310  16.336   4.328 -0.1065  0.0684 -0.1949
 6455W        W21586   4.641  10.449  16.777 -0.1141  0.1233 -0.0265
 6456W        W21587   6.914   7.781   4.037 -0.2337 -0.1109  0.0298
 6457W        W21588   4.739   7.097  11.781  0.2296 -0.3735 -0.2253
 6458W        W21589   4.632   6.676  13.681  0.0173  0.1055 -0.0833
 6459W        W21590   3.253   2.627   3.100  0.1664 -0.1155 -0.0398
 6460W        W21591   1.824   5.961   2.512 -0.1101  0.0676 -0.4681
 6461W        W21592  12.973  16.540   3.714  0.1733  0.0907  0.1723
 6462W        W21593  17.440   1.530   3.056  0.2368 -0.3008  0.4216
 6463W        W21594  10.615  17.226  10.991  0.0879 -0.0688 -0.1101
 6464W        W21595   3.741  11.766   2.294 -0.1900  0.2057  0.1721
 6465W        W21596   8.760   6.365  13.980  0.1533 -0.3720  0.2468
 6466W        W21597   2.660   6.981  14.246 -0.1710  0.2583 -0.0025
 6467W        W21598   0.721   8.102  13.824  0.1655 -0.1173 -0.1282
 6468W        W21599  10.131   2.417  12.709  0.2402  0.0062  0.4634
 6469W        W21600   6.370  14.115   0.861  0.0721  0.2257 -0.1939
 6470W        W21601   8.755  17.494   1.943  0.4042  0.1674 -0.0485
 6471W        W21602   8.156  13.219  14.479  0.1617  0.2377 -0.1073
 6472W        W21603  14.134   9.461   1.145  0.3138 -0.1797  0.0138
 6473W        W21604   7.313   4.699  11.609 -0.0318 -0.1044  0.0961
 6474W        W21605   9.099   8.816   4.968  0.0523 -0.0515 -0.2179
 6475W        W21606   6.375  10.617   4.888 -0.2143 -0.2971 -0.0383
 6476W        W21607  16.777   4.094   4.551  0.1221  0.0219  0.0034
 6477W        W21608   8.712  15.205   3.492 -0.0363  0.0403 -0.0541
 6478W        W21609   2.680   2.508  11.942  0.2093  0.0812 -0.3064
 6479W        W21610   6.221   7.562   5.534  0.3256  0.1604  0.1204
 6480W        W21611  15.160  13.724  13.302  0.1350  0.0002 -0.0645
 6481W        W21612  16.643  12.958   2.038  0.1215  0.0827  0.3613
 6482W        W21613  13.057  15.396  15.938 -0.0966 -0.0423 -0.0948
 6483W        W21614  10.919   7.940  12.524 -0.1260  0.1138 -0.0282
 6484W        W21615   0.110   1.327   1.804 -0.0360  0.1314 -0.0928
 6485W        W21616   3.544   0.892  14.773 -0.0281  0.0885  0.1756
 6486W        W21617   6.384  13.624   1.679 -0.3345  0.1918 -0.0291
 6487W        W21618   7.695  15.804  11.224  0.1361 -0.4455 -0.1001
 6488W        W21619  14.823  10.061  14.088  0.1498  0.0178 -0.0129
 6489W        W21620  16.397   0.493  13.398 -0.0528 -0.0394  0.0366
 6490W        W21621  17.123  14.333  11.764  0.2614  0.2097  0.5069
 6491W        W21622  15.820   5.115  11.588  0.0626  0.4292  0.0349
 6492W        W21623  17.348   8.125   3.434 -0.0072  0.0562  0.1387
 6493W        W21624  16.224   4.132   5.774 -0.1979  0.0218  0.2186
 6494W        W21625  17.323  13.159   3.566  0.2038  0.1634 -0.1569
 6495W        W21626   6.604   0.401   3.251 -0.4528 -0.1422  0.2144
 6496W        W21627   8.925  15.220   2.668  0.0128  0.1186  0.0911
 6497W        W21628  11.529   9.264   2.496  0.1705  0.1296  0.1153
 6498W        W21629   5.009   3.339  10.147  0.2502  0.0447  0.0302
 6499W        W21630  17.030   1.977  11.262 -0.1649 -0.0322  0.2993
 6500W        W21631  16.277  13.550  12.808 -0.1920 -0.0049  0.0527
 6501W        W21632   0.590   9.820   5.386 -0.1702 -0.1443 -0.0128
 6502W        W21633   8.900   0.101  15.389 -0.1612  0.2011  0.0819
 6503W        W21634   6.701  16.316   0.671  0.1306 -0.0568 -0.1092
 6504W        W21635   1.139   1.085   3.486  0.2279  0.0312  0.0254
 6505W        W21636   8.149  10.128   2.697  0.0797 -0.1455 -0.0633
 6506W        W21637   9.446  16.970   0.027  0.0394 -0.2525 -0.0760
 6507W        W21638   4.198  13.583   4.568 -0.2428  0.0412  0.1318
 6508W        W21639  17.716   5.907   1.950  0.1438 -0.0611  0.0823
 6509W        W21640  13.452   0.431  13.862  0.0615  0.1077 -0.3423
 6510W        W21641   0.053  17.107  12.201 -0.0591 -0.1662 -0.1298
 6511W        W21642   6.217   6.365   4.413  0.2527  0.2499 -0.1182
 6512W        W21643   1.772  16.914   5.526  0.1226 -0.1076 -0.4613
 6513W        W21644  10.972   1.091  14.349  0.2283  0.0348  0.0063
 6514W        W21645   1.447  13.225  15.134  0.2446  0.2624  0.1780
 6515W        W21646   0.756   5.982   2.686 -0.1190  0.0845 -0.0342
 6516W        W21647   7.933   3.210   1.295 -0.1552  0.3024  0.1209
 6517W        W21648   4.119   5.389  11.046  0.0467  0.0868 -0.1438
 6518W        W21649  10.480  14.657  16.025  0.1538  0.0069  0.1458
 6519W        W21650  10.234   5.884   5.058 -0.0496 -0.1553  0.2268
 6520W        W21651  11.589   7.048   1.125 -0.2765  0.2161 -0.1018
 6521W        W21652  15.789   0.237   0.468  0.1085  0.0862 -0.1735
 6522W        W21653   3.467  15.944   2.199 -0.1089 -0.0854 -0.0108
 6523W        W21654   4.837   6.844   2.958 -0.3440 -0.3567  0.1317
 6524W        W21655  14.980   0.568   2.808 -0.0973 -0.0409 -0.4821
 6525W        W21656   6.409   3.523  11.782  0.1673  0.2938 -0.1403
 6526W        W21657  13.341  12.098   0.332 -0.0309  0.2287 -0.2134
 6527W        W21658  11.663  15.900  13.209 -0.0234 -0.1418 -0.1680
 6528W        W21659   3.156   6.257   0.124 -0.3002 -0.0383 -0.1238
 6529W        W21660  11.758   9.952  11.617  0.0946  0.0873  0.2267
 6530W        W21661   7.506   5.673  16.680 -0.3864  0.0952 -0.1274
 6531W        W21662  14.361  11.660   1.786 -0.0007  0.0892 -0.1016
 6532W        W21663  13.893  14.650  12.563  0.2314 -0.1185 -0.2287
 6533W        W21664  13.704  12.569   0.548  0.0542  0.0592  0.0735
 6534W        W21665   1.709  12.988   0.586  0.0247  0.2623  0.2216
 6535W        W21666  16.887   9.059  16.144 -0.0377 -0.1740 -0.0844
 6536W        W21667  10.429   0.375  12.373 -0.1739  0.0654  0.2286
 6537W        W21668   2.740  13.227   3.346 -0.0306  0.2047  0.1214
 6538W        W21669   1.151  17.836  14.204 -0.0429 -0.0674 -0.2971
 6539W        W21670   0.753   1.022   5.972  0.0610  0.1693 -0.0523
 6540W        W21671   6.253   6.644   0.662  0.0168  0.0015  0.1735
 6541W        W21672   1.586   7.136   3.151  0.1975  0.1363  0.1478
 6542W        W21673   1.229   3.446   2.163  0.2311 -0.0952  0.3098
 6543W        W21674  13.271   5.019   5.473  0.1687  0.3602  0.3494
 6544W        W21675  16.674  14.093  14.760 -0.0374 -0.0935  0.2824
 6545W        W21676   1.346   3.640   4.119 -0.2562 -0.2122  0.0449
 6546W        W21677   3.322  15.117  14.784 -0.0851  0.1685 -0.0741
 6547W        W21678   6.013  11.774   1.291 -0.0182 -0.1040  0.0845
 6548W        W21679   2.081  11.594  15.108  0.0104  0.1129  0.2457
 6549W        W21680  15.350   3.396   3.386  0.0261 -0.0579 -0.2970
 6550W        W21681  12.062   2.846  13.513 -0.0678 -0.2182  0.3793
 6551W        W21682   4.995  17.028   5.763  0.0014  0.2187 -0.0146
 6552W        W21683   1.845   9.107   1.720 -0.2141 -0.1180  0.2070
 6553W        W21684   5.781  11.531   1.749  0.2343  0.1718  0.0154
 6554W        W21685   7.522   8.871   2.251 -0.1111  0.2856 -0.0348
 6555W        W21686  11.794   6.338   3.491  0.1244 -0.0091  0.2584
 6556W        W21687   1.023  17.347  15.331  0.2336  0.0717 -0.3978
 6557W        W21688  10.468   3.791   0.241 -0.1097 -0.0352  0.0968
 6558W        W21689   8.882   6.450  11.661 -0.0166 -0.0671  0.1460
 6559W        W21690  11.260  11.546  14.855  0.0033 -0.0861 -0.1250
 6560W        W21691  14.681  13.826  13.057 -0.2704  0.3410 -0.1806
 6561W        W21692   6.386   4.606  15.945 -0.1115 -0.0196 -0.2030
 6562W        W21693  10.473  12.321  13.031  0.2971 -0.0066 -0.0521
 6563W        W21694  11.222  13.936   6.244  0.0766 -0.1456 -0.0359
 6564W        W21695   0.319  14.161  15.417  0.5582 -0.0163  0.1342
 6565W        W21696   5.741  16.533   4.120  0.2238 -0.0215  0.0257
 6566W        W21697   7.383   8.723  15.275  0.0682  0.0457 -0.0710
 6567W        W21698   7.515   7.098  15.256 -0.1015 -0.1680  0.1169
 6568W        W21699  10.552   7.268   0.419 -0.4517  0.1218  0.0634
 6569W        W21700   2.034   7.923   0.950 -0.1075 -0.1927 -0.0160
 6570W        W21701   2.686   1.583  14.382 -0.0139  0.0673 -0.4531
 6571W        W21702  16.469  14.460   4.355  0.0834  0.3400  0.1110
 6572W        W21703  12.580   0.574   0.069  0.0572 -0.0422 -0.1039
 6573W        W21704  15.736  17.833  11.031  0.0304 -0.0738  0.0449
 6574W        W21705   4.056  13.757   0.345  0.0425 -0.1396  0.0969
 6575W        W21706   7.722   6.276  15.519 -0.1855 -0.0798 -0.2770
 6576W        W21707   2.619  11.902  15.476  0.1892 -0.0334  0.0605
 6577W        W21708  14.166  16.593   0.772  0.1274  0.1240 -0.1752
 6578W        W21709  15.706  15.010   4.970  0.3534 -0.0449 -0.0082
 6579W        W21710   7.934  12.357  14.624  0.0563 -0.1372 -0.3156
 6580W        W21711  15.143  11.335   3.856 -0.0875  0.1822  0.1357
 6581W        W21712   8.086  10.575  12.124 -0.0493  0.2675 -0.0891
 6582W        W21713   0.919   6.295  13.329 -0.3679  0.0309  0.1090
 6583W        W21714  15.015  17.133   3.367 -0.0773 -0.2056 -0.2999
 6584W        W21715   0.295  14.002   5.178  0.0983 -0.0600  0.1215
 6585W        W21716   1.375  11.163   0.453 -0.2621  0.2744 -0.1852
 6586W        W21717   8.251  11.562   4.056 -0.1477  0.2299 -0.0013
 6587W        W21718   1.108   3.257   1.268 -0.2093 -0.1880 -0.1419
 6588W        W21719  12.880  17.613  12.625  0.1996 -0.2487  0.0943
 6589W        W21720  16.599   2.701  14.944 -0.0575  0.0027  0.0651
 6590W        W21721   4.263  14.629  15.355 -0.0013 -0.0086 -0.0048
 6591W        W21722   0.300  13.079  12.568  0.3336  0.0228  0.1158
 6592W        W21723   1.565   7.937  14.376  0.0709  0.1938  0.0330
 6593W        W21724   8.529   1.449   0.137 -0.1311  0.0876 -0.0740
 6594W        W21725   1.743   1.083  14.933  0.2582  0.1035  0.3175
 6595W        W21726  14.134  16.054  11.838  0.0535  0.2430 -0.1660
 6596W        W21727  17.260   8.692   3.511  0.1615  0.2877 -0.0202
 6597W        W21728   5.235  13.823   3.251 -0.1957 -0.0055  0.1071
 6598W        W21729  14.577  17.326   3.454 -0.0183 -0.0845 -0.1488
 6599W        W21730  10.426   1.755  11.411 -0.0566 -0.1213  0.1325
 6600W        W21731   2.558   9.771   2.224 -0.0730 -0.0959  0.0608
 6601W        W21732  15.746   8.447  11.877 -0.2552 -0.0754 -0.2166
 6602W        W21733   8.786   3.487  14.361 -0.4611 -0.1445  0.0979
 6603W        W21734  13.979  16.388  13.635  0.0725 -0.1764 -0.0101
 6604W        W21735   0.231   8.024   4.141  0.2621 -0.1406 -0.0438
 6605W        W21736   6.587  13.130   3.656  0.0810  0.0508 -0.1974
 6606W        W21737   6.388   5.732  12.617  0.0182 -0.2201  0.6328
 6607W        W21738  17.875  16.950  14.848  0.1710 -0.1221  0.2806
 6608W        W21739  16.671   7.697   5.321 -0.0864  0.0147  0.3027
 6609W        W21740  16.450   3.156  14.813 -0.3268 -0.1274  0.0219
 6610W        W21741   3.147  11.410   0.827 -0.0317  0.3246 -0.3347
 6611W        W21742   9.581  11.126   4.931 -0.1088 -0.0025 -0.1529
 6612W        W21743   4.389  17.094  12.887  0.0443  0.1126 -0.2223
 6613W        W21744  16.581  17.020   5.834  0.3020  0.0184 -0.2874
 6614W        W21745  10.420  17.672   3.465 -0.1779 -0.0517 -0.3010
 6615W        W21746   0.525   8.212   1.459 -0.1450  0.4443 -0.0547
 6616W        W21747   3.886   4.188  11.293 -0.0666  0.3984 -0.0342
 6617W        W21748   2.508   0.311  12.982  0.2127 -0.3027  0.1526
 6618W        W21749   5.682  16.801  13.983  0.1166 -0.0593 -0.1306
 6619W        W21750  15.887   7.157  14.086  0.1886 -0.0420 -0.0106
 6620W        W21751   6.445   8.400  15.254 -0.3522 -0.0624 -0.2929
 6621W        W21752   0.963  12.781   2.671 -0.4540  0.2551  0.1537
 6622W        W21753  14.995   2.365   0.414 -0.1873  0.3909  0.2203
 6623W        W21754   6.497   7.521   3.348  0.2147  0.2460 -0.5107
 6624W        W21755  17.436  16.043   5.052  0.3102 -0.1081 -0.1695
 6625W        W21756   5.458   9.649   0.075  0.1143  0.2299  0.1114
 6626W        W21757  14.002  16.245   2.238  0.2606  0.1091 -0.1073
 6627W        W21758  14.198   0.075  10.779  0.0634 -0.2179  0.3075
 6628W        W21759  14.200  11.792   5.650  0.0769  0.1881 -0.2499
 6629W        W21760  15.452  15.742   1.491 -0.1233  0.1334  0.3739
 6630W        W21761   3.645   1.751  11.539 -0.0477 -0.2151 -0.1887
 6631W        W21762   5.171   3.108   5.154  0.0180 -0.0067 -0.0879
 6632W        W21763   5.505  12.826  16.352  0.1765 -0.2478 -0.0075
 6633W        W21764   2.618   9.805  14.693  0.2654  0.3869 -0.1171
 6634W        W21765  15.348   8.883   2.506  0.2542 -0.2346 -0.0354
 6635W        W21766   5.263   8.368   1.459 -0.3235 -0.2235 -0.2800
 6636W        W21767  12.194   0.155  13.732 -0.0953 -0.1416 -0.1176
 6637W        W21768   5.007  15.987   3.782  0.1179 -0.0431 -0.1775
 6638W        W21769   0.190  10.520   5.498 -0.1615  0.1797  0.1524
 6639W        W21770   2.637  13.642   1.146 -0.0913 -0.3179 -0.3134
 6640W        W21771   2.420  15.864   3.162 -0.2059 -0.1184  0.0707
 6641W        W21772  12.739  12.409   1.496  0.3495 -0.3614  0.0336
 6642W        W21773  13.270   0.259   3.842  0.3103  0.2204 -0.0368
 6643W        W21774  13.069   9.400  15.240 -0.1805  0.1134  0.0744
 6644W        W21775  12.387  12.277  12.546 -0.3952  0.0507 -0.1013
 6645W        W21776   1.789  14.540  11.914 -0.0323  0.2119 -0.0154
 6646W        W21777   1.969   7.396   5.632  0.0514  0.1552  0.0290
 6647W        W21778   5.214  10.902  13.976 -0.1048 -0.2504  0.1907
 6648W        W21779   4.732  11.653  13.744 -0.1523  0.0191 -0.0598
 6649W        W21780  17.196  15.446  11.310  0.0839 -0.0350  0.0970
 6650W        W21781  11.947  10.462  11.861  0.1051 -0.3484  0.1578
 6651W        W21782  15.008  10.845   3.131  0.3396  0.0165 -0.3272
 6652W        W21783   6.543   5.549  14.692 -0.0465  0.2492 -0.0746
 6653W        W21784   1.738   1.649   2.969 -0.1665 -0.1671 -0.4135
 6654W        W21785   8.310  17.130   4.214 -0.3609  0.1218 -0.3633
 6655W        W21786   5.386   7.409  12.898 -0.0827 -0.2164 -0.4489
 6656W        W21787  16.021   9.435   5.605 -0.0048 -0.1897  0.1441
 6657W        W21788  11.712  16.806  12.045  0.0270  0.1738  0.0399
 6658W        W21789  17.609   1.296   4.761  0.1160  0.2650  0.2447
 6659W        W21790   9.396  14.297  16.370  0.0078  0.2084 -0.0760
 6660W        W21791  17.593  13.214  15.727  0.0659  0.1434  0.0628
 6661W        W21792  13.779   3.991   1.229  0.0293  0.4187  0.0317
 6662W        W21793   7.799  17.485  12.391 -0.2631 -0.0452 -0.0875
 6663W        W21794  14.613  10.450  11.539 -0.0198 -0.2784  0.3271
 6664W        W21795   7.276  17.477   0.392  0.3576 -0.0777  0.1003
 6665W        W21796   3.175  11.476  16.153  0.1327 -0.0925  0.0720
 6666W        W21797  14.850   4.874   4.676  0.1061  0.2454  0.3168
 6667W        W21798   9.748   1.483   4.204 -0.3601 -0.1511 -0.2650
 6668W        W21799   5.270   2.364   2.266  0.2611 -0.0761  0.0141
 6669W        W21800   7.253  16.922  13.194  0.2262 -0.0079  0.1787
 6670W        W21801  14.308   4.151  15.398 -0.2569  0.4161 -0.1876
 6671W        W21802   5.135  17.496   0.281 -0.2324 -0.0697  0.4591
 6672W        W21803   0.920   3.743  16.031  0.0182 -0.0816 -0.0516
 6673W        W21804  12.775  11.152   1.552  0.2154 -0.0027 -0.2904
 6674W        W21805   4.319  14.794   2.551 -0.1069 -0.0970 -0.0979
 6675W        W21806  15.089   1.920   3.816  0.0786 -0.0231  0.0057
 6676W        W21807   3.357   9.359   2.412 -0.1222  0.0846  0.0330
 6677W        W21808  17.193   3.926   0.812 -0.1831 -0.0615  0.0422
 6678W        W21809  10.202   1.426  11.775  0.0852  0.2058  0.1839
 6679W        W21810  13.571  13.230  15.416 -0.2593 -0.0354 -0.0406
 6680W        W21811   5.573   3.313  12.734  0.2304 -0.1453 -0.0437
 6681W        W21812   8.774   4.809   0.950 -0.0245 -0.1853  0.0467
 6682W        W21813   7.301   5.915  15.714 -0.0940  0.1308 -0.1045
 6683W        W21814  12.935   9.378  14.263  0.1209  0.2562  0.1019
 6684W        W21815   5.677  11.968  12.540 -0.1214  0.0683  0.2033
 6685W        W21816  16.216   3.222  10.975  0.0413  0.0083 -0.2621
 6686W        W21817   1.422   6.346  15.892 -0.3824  0.0974 -0.2394
 6687W        W21818   7.460  16.566  13.007 -0.1153 -0.0532  0.2212
 6688W        W21819   4.157   4.078   2.747  0.2457  0.0628 -0.0673
 6689W        W21820   6.325  16.730   3.228  0.1090  0.0394 -0.1256
 6690W        W21821   9.022   2.187   2.215  0.0114  0.0070  0.2424
 6691W        W21822  16.669  17.715  16.137 -0.2231 -0.0348 -0.0120
 6692W        W21823   6.586  14.415   4.950 -0.1322  0.4830 -0.5012
 6693W        W21824   2.291  17.239  13.224 -0.0645  0.3981 -0.2111
 6694W        W21825  16.289  16.417  11.798  0.0379 -0.2345  0.4181
 6695W        W21826  16.370  10.881  14.628 -0.0392 -0.0178  0.0869
 6696W        W21827  16.654   6.696   5.769  0.1791  0.1300 -0.1170
 6697W        W21828   9.786   7.158   6.085 -0.0523 -0.1998  0.0903
 6698W        W21829  10.087   6.885   5.787  0.0218  0.1043 -0.0168
 6699W        W21830   6.676  12.506   0.949  0.0792 -0.0859  0.0430
 6700W        W21831  12.445  14.400  15.224 -0.1352 -0.0144 -0.2215
 6701W        W21832  13.358   7.253   1.924 -0.2132  0.1503  0.0867
 6702W        W21833  10.648  14.334   4.227  0.2120 -0.3685  0.3748
 6703W        W21834  14.211  10.759  13.309 -0.1413 -0.2227  0.1761
 6704W        W21835  12.542   5.378  16.087 -0.0816  0.0151  0.0285
 6705W        W21836  17.494   6.002   1.466 -0.1236 -0.0665  0.0985
 6706W        W21837  14.688   9.471   5.449  0.2412 -0.0688 -0.2060
 6707W        W21838  11.015   1.034  14.896 -0.0311 -0.0192  0.1344
 6708W        W21839   3.334   3.213   1.166 -0.2625  0.0455  0.0929
 6709W        W21840   2.285  12.881   4.882  0.1623  0.0369  0.0767
 6710W        W21841  12.051  10.116   5.797  0.0505  0.0787 -0.0582
 6711W        W21842   9.205   3.632   1.233  0.0481  0.0386  0.1813
 6712W        W21843  13.623   6.892  16.161 -0.1407 -0.0918 -0.1171
 6713W        W21844   9.132  16.572  13.707 -0.0317  0.1811 -0.0353
 6714W        W21845   7.299   8.106   3.923 -0.0529 -0.1217  0.2813
 6715W        W21846  14.141  11.537  12.897 -0.1658  0.0243  0.3615
 6716W        W21847   2.703   6.195   3.814 -0.0267 -0.2400 -0.2875
 6717W        W21848  10.219   0.457   2.099 -0.3007  0.0651 -0.1119
 6718W        W21849   0.581  17.398  12.793  0.2433 -0.1557 -0.0117
 6719W        W21850   5.463  16.567  12.934 -0.0032  0.0028  0.1253
 6720W        W21851  12.397   6.114   6.419 -0.0264 -0.0360  0.0266
 6721W        W21852   8.683  12.869  14.265 -0.1640 -0.1596 -0.1038
 6722W        W21853   5.577   5.205   0.656 -0.2084 -0.1233  0.0586
 6723W        W21854   1.692   7.683  13.950 -0.2845 -0.2932  0.1772
 6724W        W21855  16.915   9.172  14.844  0.2120 -0.0735 -0.1038
 6725W        W21856  10.614  16.821  15.017  0.2842 -0.2064 -0.0493
 6726W        W21857   9.991  10.496   5.434 -0.1010 -0.0263 -0.2320
 6727W        W21858  16.466  11.215  12.269 -0.0257  0.2322 -0.1238
 6728W        W21859  15.159   9.665  14.176 -0.0460  0.1104  0.0042
 6729W        W21860  15.121  17.820  11.659  0.0090 -0.0158 -0.2624
 6730W        W21861   2.250   2.336   1.166 -0.1856  0.1162 -0.1198
 6731W        W21862  14.437   7.981   0.753 -0.1153 -0.4798 -0.0371
 6732W        W21863   4.563  15.977   3.366  0.2356  0.2327 -0.1260
 6733W        W21864  17.332   8.314  13.876 -0.0080  0.0403  0.2750
 6734W        W21865  15.319  12.008   2.471  0.2025 -0.1776 -0.1151
 6735W        W21866   3.375  12.819  14.089 -0.0524  0.0363  0.0628
 6736W        W21867  14.195   9.847   5.508 -0.2480 -0.0201  0.1363
 6737W        W21868  12.835   4.490   4.014  0.0187 -0.2097  0.0003
 6738W        W21869  16.642  12.171  13.305 -0.1742  0.1341 -0.1009
 6739W        W21870  13.783  17.549  12.240  0.1250 -0.3556  0.1069
 6740W        W21871   6.616  16.725  12.314  0.0307 -0.2213 -0.2277
 6741W        W21872  14.617  14.488  14.235  0.0904  0.0682  0.2439
 6742W        W21873  13.604  17.710  15.871  0.1767 -0.1439 -0.0216
 6743W        W21874  17.842   0.976  14.863  0.1689  0.0943  0.1157
 6744W        W21875   3.639  15.663   4.889  0.0121 -0.1942 -0.0336
 6745W        W21876   2.951   4.570  11.478 -0.0830 -0.1257  0.1250
 6746W        W21877  12.601  13.997   6.159 -0.4683  0.2887  0.0173
 6747W        W21878   8.198  10.957  12.402 -0.0396  0.1723  0.1137
 6748W        W21879  12.733  16.743  14.404  0.0286  0.1050 -0.0466
 6749W        W21880  15.508  16.242   4.628 -0.1824 -0.2605 -0.0062
 6750W        W21881  16.014  15.493   5.739 -0.1381 -0.1632 -0.1880
 6751W        W21882   8.975  15.166   5.658 -0.5059  0.4388  0.0298
 6752W        W21883   6.423  16.329  15.506 -0.1877 -0.2775  0.0680
 6753W        W21884   9.505  16.025   4.936 -0.1427 -0.3616 -0.0904
 6754W        W21885  16.950   1.252  16.319  0.0134 -0.0498  0.0744
 6755W        W21886  11.353  12.904  14.878  0.0536  0.0727 -0.2138
 6756W        W21887  11.748  14.928   2.384  0.0406 -0.0121  0.0272
 6757W        W21888   5.351   8.557   6.139  0.0092  0.1774 -0.0268
 6758W        W21889  14.481   6.542   6.401 -0.0790  0.0345 -0.4077
 6759W        W21890   8.343  15.905  14.700  0.1826  0.0612 -0.4138
 6760W        W21891   9.823  10.405   1.841 -0.1472 -0.0993 -0.3508
 6761W        W21892   5.221   2.460  15.667 -0.2297 -0.0081 -0.2586
 6762W        W21893  15.722   8.565   2.414 -0.0276 -0.0819 -0.1251
 6763W        W21894  10.689  17.518   0.384 -0.1914  0.3300  0.2431
 6764W        W21895   6.096   8.722  15.408 -0.0206  0.2073 -0.1458
 6765W        W21896   3.440   9.390   1.823 -0.1181 -0.0151  0.0419
 6766W        W21897   6.864   8.997   5.051  0.2844  0.3828  0.2624
 6767W        W21898  16.673  15.838   3.472 -0.0864  0.0570  0.0046
 6768W        W21899  12.682   4.641   0.577  0.0352  0.1512 -0.1755
 6769W        W21900   0.562  14.708  16.612 -0.3687  0.0041 -0.0467
 6770W        W21901  15.840   2.033  14.397  0.0236 -0.0157 -0.4056
 6771W        W21902   7.504   5.885   5.604 -0.0273 -0.1063  0.0786
 6772W        W21903   8.060   8.772   0.862 -0.1909  0.0239 -0.0089
 6773W        W21904   2.456   9.188  13.383 -0.0159  0.0293  0.0921
 6774W        W21905   4.874   0.001  11.550 -0.1425  0.0883 -0.0695
 6775W        W21906  10.278  16.719   2.830  0.0424  0.2165 -0.2264
 6776W        W21907  17.228  13.062   3.022 -0.1146 -0.2840  0.1799
 6777W        W21908   1.167  16.609  11.723  0.0253  0.1715  0.0795
 6778W        W21909   5.126  16.282   0.790 -0.2641  0.0783  0.2893
 6779W        W21910   9.188  15.058   3.503 -0.3607  0.0434  0.2304
 6780W        W21911   3.285  14.732   1.608  0.2583  0.0270  0.5106
 6781W        W21912   0.818   4.155  16.664 -0.0882  0.2383  0.1313
 6782W        W21913  12.304  12.257   1.056  0.0625  0.4020  0.0527
 6783W        W21914   4.938  14.639   3.025  0.0372  0.0433 -0.2341
 6784W        W21915   0.126   2.778   5.052  0.1499 -0.0239 -0.1667
 6785W        W21916  14.977   2.609  10.778 -0.0913  0.1893  0.0874
 6786W        W21917   3.060  16.198   5.543  0.2487  0.2017  0.0594
 6787W        W21918   7.131   0.991   0.600 -0.0348 -0.1675 -0.0965
 6788W        W21919  13.406   7.850  15.396 -0.2553  0.0642 -0.3504
 6789W        W21920   3.186   5.301  11.133  0.0292 -0.0302  0.3042
 6790W        W21921   7.379   4.497  15.484 -0.1901  0.1344 -0.2011
 6791W        W21922   6.660   5.432   3.681  0.0818 -0.1273  0.3179
 6792W        W21923   4.260   0.877   2.277 -0.0513 -0.2170 -0.1532
 6793W        W21924   6.698  15.665   0.215  0.3119  0.1643  0.0493
 6794W        W21925  12.654  16.148  11.218 -0.3355 -0.0902 -0.0063
 6795W        W21926   0.628  14.863   5.371 -0.3941 -0.1916  0.0234
 6796W        W21927   8.489   5.745   4.945 -0.1901 -0.1438 -0.0763
 6797W        W21928   1.166  14.974   6.172  0.2925  0.1085 -0.2026
 6798W        W21929  16.913   2.916  14.665 -0.1374 -0.3261 -0.0186
 6799W        W21930  12.973   0.573  11.481 -0.1794 -0.1777  0.2394
 6800W        W21931  10.887   2.621   1.871  0.0373 -0.0783 -0.2290
 6801W        W21932  15.517  15.088   0.576  0.1638 -0.0871 -0.0297
 6802W        W21933  13.125   2.124  14.399 -0.1075 -0.2733 -0.2325
 6803W        W21934  11.806   5.357  11.143  0.4448  0.2938  0.4916
 6804W        W21935  17.050   0.914   0.501 -0.2346 -0.5100  0.2499
 6805W        W21936  10.331  15.769  12.835 -0.2879  0.0615 -0.1337
 6806W        W21937   7.746  16.274  16.068 -0.1863 -0.2177 -0.1099
 6807W        W21938   1.878   4.644   2.974  0.1650  0.0361  0.0016
 6808W        W21939   7.952  14.443   4.040  0.2102 -0.0360  0.1152
 6809W        W21940   7.699  16.619   1.808  0.4058  0.0383  0.3348
 6810W        W21941  10.404   2.036   3.784  0.0415 -0.1971  0.1336
 6811W        W21942   9.874   9.688   4.153 -0.0439  0.3091 -0.2632
 6812W        W21943   4.294   0.072   0.076 -0.0328 -0.1093 -0.2093
 6813W        W21944   6.366   1.016   3.894  0.2335  0.0862 -0.1629
 6814W        W21945  10.284  14.737   1.428 -0.0116  0.2628  0.3176
 6815W        W21946   7.751   0.651   0.639  0.2073 -0.0071  0.2299
 6816W        W21947   7.134   2.506  16.360 -0.1011  0.0380  0.1241
 6817W        W21948  16.531   1.766   2.483 -0.1844  0.0308 -0.1323
 6818W        W21949   5.200  13.923   5.980 -0.2304 -0.2927 -0.0223
 6819W        W21950  16.085  17.731  15.994 -0.0873  0.0648 -0.0465
 6820W        W21951   9.548  14.064   2.612 -0.0097 -0.1633  0.1129
 6821W        W21952   2.648   2.061  11.039  0.0952 -0.3077 -0.0693
 6822W        W21953  10.740   7.328   1.935 -0.2968 -0.0389 -0.1250
 6823W        W21954   6.799   5.242   1.682  0.4793 -0.0928  0.0307
 6824W        W21955   0.044  15.405  12.357  0.1096 -0.2650 -0.0941
 6825W        W21956  14.846   7.943   4.313 -0.0119 -0.0555 -0.0570
 6826W        W21957   3.773  13.243  16.442 -0.2804  0.2659  0.1661
 6827W        W21958   3.233   8.539  15.279  0.3005  0.0810  0.3692
 6828W        W21959   7.759  15.517   4.153 -0.0615  0.0943  0.1266
 6829W        W21960   3.264  17.575  12.479 -0.0151  0.1120 -0.3331
 6830W        W21961   4.275   8.201   4.130  0.5085 -0.0605  0.1657
 6831W        W21962   4.481  12.634  10.324  0.2490  0.0924  0.0210
 6832W        W21963   3.555  17.046  16.505 -0.0223  0.1526 -0.0637
 6833W        W21964  16.740  10.798   0.584 -0.0469 -0.1142  0.0687
 6834W        W21965   8.581  13.292   5.137 -0.0366 -0.1131  0.0037
 6835W        W21966   7.275   9.978   0.823  0.1171 -0.4779 -0.0933
 6836W        W21967   8.896   2.240   3.975 -0.0762 -0.2482  0.0028
 6837W        W21968   2.157   0.428   4.994  0.1885  0.4489  0.0325
 6838W        W21969  11.596   3.636   2.624 -0.3528  0.2431 -0.0652
 6839W        W21970   1.377  10.409   3.194  0.0663  0.2406  0.1867
 6840W        W21971  11.458   3.933  12.795 -0.2483 -0.3612  0.1537
 6841W        W21972   4.306  10.389  12.064  0.1297 -0.1140 -0.0647
 6842W        W21973   8.355  17.865  11.848 -0.1948 -0.0211  0.0667
 6843W        W21974  12.848  11.546   5.309 -0.1245  0.0236  0.0327
 6844W        W21975   0.225   3.300  13.200 -0.1943 -0.3040 -0.1749
 6845W        W21976   8.483   8.795   2.386  0.0321 -0.0109 -0.4762
 6846W        W21977   9.669  10.077  13.686 -0.2538  0.2051  0.0601
 6847W        W21978  17.667  17.335  16.671  0.0662 -0.2248 -0.2644
 6848W        W21979   6.888  15.347  14.156  0.2020 -0.1782 -0.0178
 6849W        W21980  11.823  13.304  11.252 -0.2563 -0.2000  0.0674
 6850W        W21981  14.641   3.566  14.824  0.0985  0.3243  0.2178
 6851W        W21982  12.264  10.148  16.201  0.0843  0.0636  0.0094
 6852W        W21983  10.386   9.744   4.804 -0.1638  0.1062 -0.3782
 6853W        W21984   6.980  17.198   5.366 -0.0740 -0.1184  0.0394
 6854W        W21985   7.715   3.610   1.199  0.2451  0.1492 -0.2444
 6855W        W21986   6.120   8.841  12.382  0.2374 -0.1129 -0.1087
 6856W        W21987  16.886   1.318  14.400  0.1178 -0.0014 -0.0734
 6857W        W21988  12.844   4.791  12.766 -0.1751 -0.2513 -0.1564
 6858W        W21989  13.493   0.840   1.720  0.0705 -0.1831  0.1209
 6859W        W21990  17.372   1.570  11.920  0.1988  0.1021  0.0969
 6860W        W21991   2.729   0.523  12.528  0.0370  0.0776  0.2659
 6861W        W21992  12.803   2.827  15.633  0.2073 -0.1688  0.3146
 6862W        W21993   6.764  17.566   0.400 -0.1341 -0.0347  0.1393
 6863W        W21994   2.952   1.373   3.871 -0.3488  0.3221 -0.1198
 6864W        W21995  13.260   4.831  16.558  0.0262  0.1694 -0.0464
 6865W        W21996  11.350  13.330  12.171 -0.0533 -0.0315  0.0771
 6866W        W21997   0.653  12.351  15.887 -0.1694 -0.2493 -0.2269
 6867W        W21998  12.634  12.842   3.974  0.0005  0.0639  0.0585
 6868W        W21999   4.088   3.729  13.066  0.1274  0.2034 -0.0779
 6869W        W22000  17.814  10.661   5.062  0.3257 -0.0993  0.1508
 6870W        W22001  11.215   1.560   3.414  0.1619 -0.2028  0.0523
 6871W        W22002  12.332   9.125  12.963  0.0701  0.3186 -0.2031
 6872W        W22003  14.275  16.648   2.251 -0.1951 -0.2502 -0.1248
 6873W        W22004   2.876   4.701   3.734  0.4869  0.1194  0.1086
 6874W        W22005   0.292   9.958   4.242  0.0100  0.0558 -0.4197
 6875W        W22006   4.709  12.890   4.746 -0.1645  0.0129  0.0579
 6876W        W22007   1.804  15.005  14.355  0.2000 -0.0888 -0.2223
 6877W        W22008   8.569   1.027   4.045 -0.0606  0.0199 -0.0131
 6878W        W22009  12.277   9.807   0.343  0.0326  0.2759 -0.0749
 6879W        W22010   8.701   0.643   3.638 -0.0839 -0.0997  0.2269
 6880W        W22011  15.259  10.866   4.548  0.2081  0.0986 -0.1316
 6881W        W22012   3.237  13.325   3.326 -0.1854  0.1193  0.0890
 6882W        W22013  11.865  10.703   2.895 -0.1643  0.0162  0.0190
 6883W        W22014  15.773   0.892   2.077 -0.1284  0.1058 -0.2651
 6884W        W22015  17.247   4.911  13.459  0.0593 -0.1459  0.0568
 6885W        W22016   1.926  13.679   5.776 -0.1547 -0.1928  0.0574
 6886W        W22017  12.347  12.734  12.419  0.0851  0.0849 -0.2698
 6887W        W22018   0.093   9.871  12.937 -0.0386 -0.1790  0.0444
 6888W        W22019   2.950   7.849  16.765  0.0821 -0.1138 -0.0658
 6889W        W22020  14.487   0.428   4.294  0.1744 -0.0710 -0.2463
 6890W        W22021   6.985  14.515  12.711 -0.1079 -0.0899 -0.0901
 6891W        W22022  15.511  11.252   6.597  0.0402 -0.1128 -0.2560
 6892W        W22023   7.077  15.021   3.700  0.1170 -0.1404 -0.1257
 6893W        W22024   7.396   0.735  14.257 -0.0588  0.0978 -0.1548
 6894W        W22025   0.242   8.161   3.640  0.2623 -0.1772  0.0563
 6895W        W22026  12.892   1.929  16.135 -0.1779 -0.0055 -0.1257
 6896W        W22027  10.163  17.641  13.468  0.0869 -0.0939 -0.1814
 6897W        W22028   6.640  16.730  15.729  0.3714  0.0597 -0.0514
 6898W        W22029   8.371   3.507   2.474  0.2170 -0.0289 -0.0402
 6899W        W22030   6.041   0.164   3.293  0.0293 -0.3465 -0.2127
 6900W        W22031  11.626   2.756   4.166 -0.0457 -0.0979  0.1165
 6901W        W22032   3.469   5.573   2.618  0.0842  0.1294 -0.3721
 6902W        W22033   9.960   0.279   2.988  0.0811 -0.1809 -0.2189
 6903W        W22034  15.444  16.739   1.371 -0.0495  0.0103 -0.2134
 6904W        W22035   9.683   4.998  16.663 -0.3535  0.0616  0.0298
 6905W        W22036  17.381   7.331   5.579 -0.0620 -0.2753  0.2158
 6906W        W22037  16.101   0.635   0.364 -0.1140  0.0793 -0.0121
 6907W        W22038  17.138   7.034   1.105 -0.2392 -0.1277 -0.0379
 6908W        W22039   2.812   0.339  16.595  0.2214 -0.2826 -0.2036
 6909W        W22040  16.977   8.108  13.358 -0.2129 -0.1659  0.1859
 6910W        W22041   2.121   1.114   5.998 -0.1479 -0.3732  0.2962
 6911W        W22042   9.489  17.138  12.115  0.0152  0.2413 -0.2025
 6912W        W22043   4.613   1.706  14.155 -0.2768  0.1089  0.2077
 6913W        W22044   7.418   6.845   4.765 -0.2045  0.0051  0.2470
 6914W        W22045   2.565  17.863   2.442 -0.0236  0.0239  0.0066
 6915W        W22046   7.380  14.887  12.484 -0.0514 -0.1605 -0.1350
 6916W        W22047   5.971   4.719   4.712 -0.1785  0.3858 -0.0529
 6917W        W22048  11.988   7.529  15.557  0.0475  0.1520  0.0038
 6918W        W22049   6.611  10.004   3.178 -0.0078  0.2401  0.0457
 6919W        W22050   1.433   8.252   5.901  0.0944  0.3244  0.2358
 6920W        W22051  16.720   9.167  14.349  0.0130  0.0568 -0.0282
 6921W        W22052   0.189  15.028  12.837 -0.0962  0.1510  0.1382
 6922W        W22053  15.999   3.608   5.219 -0.0604 -0.0934 -0.1098
 6923W        W22054  13.790  11.924  11.831 -0.1772 -0.1578  0.2138
 6924W        W22055   5.594  15.716  16.292 -0.1462 -0.0100 -0.0981
 6925W        W22056  16.971   7.552   3.802  0.2504 -0.3394 -0.0365
 6926W        W22057   2.509   3.472  14.594  0.1946  0.0496  0.1796
 6927W        W22058  17.480   6.822   2.241 -0.1838 -0.0307 -0.1618
 6928W        W22059  17.556   0.573   1.251 -0.1111 -0.0457 -0.0139
 6929W        W22060   9.679  10.398  15.700 -0.0896 -0.0938  0.1596
 6930W        W22061  15.701  16.580  16.699 -0.0874 -0.2792  0.0548
 6931W        W22062   4.404  16.743   1.630  0.1087 -0.0354  0.2582
 6932W        W22063   8.095   4.204   0.674 -0.0363 -0.0694 -0.0159
 6933W        W22064  17.830  15.332   0.607  0.2548 -0.2886 -0.1114
 6934W        W22065  16.606   7.183  14.221 -0.1578 -0.0850 -0.1847
 6935W        W22066   4.117   3.541  13.667 -0.2177  0.1825 -0.2671
 6936W        W22067   5.168   9.633   3.805 -0.0985 -0.2147  0.1635
 6937W        W22068   9.524  13.759  11.273 -0.1339 -0.2099  0.0683
 6938W        W22069  16.768  13.450   1.175  0.0250  0.2110  0.1459
 6939W        W22070  16.874   6.230  13.785 -0.1219 -0.0323 -0.1496
 6940W        W22071   7.131  14.126  15.243  0.0315  0.0401 -0.2669
 6941W        W22072   0.455  14.318  14.022  0.1821 -0.0865  0.1394
 6942W        W22073   3.207   7.515  12.729  0.0029 -0.1778  0.1035
 6943W        W22074  13.360   7.320   5.835 -0.2311 -0.0164 -0.1549
 6944W        W22075   1.218  12.306  13.001  0.1452  0.1688  0.0275
 6945W        W22076  10.037  16.516  14.085 -0.0786 -0.1038  0.0319
 6946W        W22077   3.717   6.815  13.236  0.0038 -0.4234 -0.1776
 6947W        W22078   3.121   2.854   0.718 -0.0737  0.1511  0.1111
 6948W        W22079   9.948   1.618   3.364 -0.0350  0.1233 -0.0542
 6949W        W22080  13.704   7.667   0.944  0.3366 -0.0108  0.0642
 6950W        W22081   4.467  12.356   5.033  0.3314 -0.0558 -0.0124
 6951W        W22082  11.905  13.202   2.910  0.0132 -0.2889  0.0704
 6952W        W22083   0.764  15.639   0.089 -0.0007  0.4402 -0.2885
 6953W        W22084   8.120   8.482   4.258 -0.0277  0.2039  0.4092
 6954W        W22085   3.909   6.872   2.645 -0.2368 -0.1568  0.0518
 6955W        W22086  16.172   6.484  15.992  0.2015 -0.3551 -0.1184
 6956W        W22087   5.068   4.635   1.215 -0.2362 -0.1007 -0.2392
 6957W        W22088  10.477  12.602  15.975 -0.2188 -0.0866 -0.2062
 6958W        W22089   6.396  15.897   0.639 -0.1794 -0.1718 -0.1329
 6959W        W22090  16.596   5.440   0.457  0.1757  0.2883 -0.2866
 6960W        W22091   1.306  13.692  15.040  0.1401  0.2597 -0.0780
 6961W        W22092   2.385  12.381   3.722  0.0318  0.3950 -0.2285
 6962W        W22093   3.203  11.135   4.481 -0.1411  0.0525 -0.0325
 6963W        W22094   7.119   8.498  16.306  0.0459  0.0245  0.0162
 6964W        W22095   4.343  13.076   2.187 -0.3175 -0.1757  0.0840
 6965W        W22096   6.348   1.593  15.344 -0.2080 -0.0539 -0.0504
 6966W        W22097   9.693  14.593   2.732 -0.1355  0.1382  0.1926
 6967W        W22098   8.550  16.155  12.179  0.1726 -0.1480  0.1122
 6968W        W22099  10.886   9.723   2.249  0.1686  0.0154 -0.0234
 6969W        W22100  17.192  17.232   1.958  0.3237 -0.0243  0.1357
 6970W        W22101  16.646   0.611  16.352  0.0241  0.2697  0.0456
 6971W        W22102   3.736  11.981   1.811 -0.0735  0.0354 -0.0266
 6972W        W22103   4.981   5.336  15.653 -0.1860  0.2199 -0.1274
 6973W        W22104   5.474   6.989   4.628 -0.0319  0.0496 -0.1480
 6974W        W22105  14.371   1.886   4.449  0.1328  0.0916 -0.0339
 6975W        W22106  17.517   4.476   3.028  0.0804  0.0604  0.1881
 6976W        W22107   8.285  12.315  13.750  0.1119  0.1126  0.1932
 6977W        W22108  15.517  17.638  12.556  0.0971 -0.2858 -0.0101
 6978W        W22109   0.342   1.229   6.120  0.2067  0.1071 -0.0801
 6979W        W22110   7.318  12.929  14.226  0.2363  0.1426  0.0008
 6980W        W22111   0.109   9.179   3.725 -0.1224  0.0121  0.0867
 6981W        W22112  14.565   7.753   2.458  0.3143  0.0042  0.4952
 6982W        W22113   6.204   1.917   3.937  0.0738 -0.0242  0.1957
 6983W        W22114   3.913   4.717  13.987 -0.2156  0.0709 -0.0850
 6984W        W22115  17.822  15.178  14.790 -0.1620 -0.1004  0.0053
 6985W        W22116   0.246  16.528  14.170 -0.3732 -0.0281 -0.0956
 6986W        W22117  17.866   0.272   0.956  0.2277 -0.2354 -0.0291
 6987W        W22118  17.569  11.144  16.213  0.1459 -0.1220 -0.0128
 6988W        W22119   1.961  10.355   3.574  0.0361 -0.0328 -0.2105
 6989W        W22120   2.365   9.630  13.864 -0.1059  0.2168  0.0401
 6990W        W22121  13.491  11.201  13.410 -0.0507 -0.2065  0.0202
 6991W        W22122   8.212  13.523   4.026  0.3628  0.2312  0.0195
 6992W        W22123   8.667   5.314   4.350  0.0478 -0.5252  0.0378
 6993W        W22124   3.348   3.757   1.291 -0.2149  0.1575 -0.0499
 6994W        W22125  12.289  17.449  16.276  0.1336  0.1308  0.1649
 6995W        W22126   2.257   3.325   6.056 -0.2895  0.1045 -0.0769
 6996W        W22127  11.224  15.507   3.416  0.1695  0.2214 -0.1220
 6997W        W22128  11.907   3.896  14.778 -0.3787  0.1715 -0.0749
 6998W        W22129   4.173   2.459   0.226 -0.0558  0.2037  0.2004
 6999W        W22130   6.242   9.027   2.974  0.0346 -0.0458 -0.1495
 7000W        W22131   4.862   2.469   5.024  0.1918 -0.0963 -0.0120
 7001W        W22132   8.834   1.927   0.971  0.3445  0.0213 -0.2359
 7002W        W22133   0.227  10.269  13.953 -0.0768  0.1359 -0.0764
 7003W        W22134   0.071  11.346   2.153  0.1930 -0.0130  0.3032
 7004W        W22135  15.901  17.597  16.445  0.3946 -0.3132  0.2549
 7005W        W22136  10.390  15.756   5.120  0.0020  0.2204 -0.1644
 7006W        W22137  15.321  12.856  12.031 -0.1808 -0.5980 -0.0546
 7007W        W22138   2.625   5.772   1.599  0.0226  0.1794 -0.1302
 7008W        W22139   7.581   0.218   4.972  0.1555  0.1160  0.3770
 7009W        W22140   6.811  10.428   4.488  0.0817  0.0315 -0.0866
 7010W        W22141   2.449  14.618  15.073  0.1397 -0.1179 -0.4391
 7011W        W22142   6.236  10.841   0.811 -0.0469  0.1735  0.3216
 7012W        W22143  16.719   4.984   3.015 -0.0616  0.1229 -0.0145
 7013W        W22144   5.812   5.406  16.724 -0.1956 -0.1926  0.1149
 7014W        W22145   2.016  16.041   4.659 -0.1031  0.3931 -0.0062
 7015W        W22146   8.330   5.344  14.169  0.2055  0.1800  0.3439
 7016W        W22147   8.507  11.753  14.304  0.2550  0.0939 -0.1660
 7017W        W22148   0.185  13.532   3.360 -0.1144 -0.0765 -0.4442
 7018W        W22149  12.375  13.754  13.081  0.2104 -0.1297 -0.0253
 7019W        W22150   8.857   6.666   3.541  0.0604 -0.0903 -0.0096
 7020W        W22151   3.796  13.069  13.294  0.0999  0.2364 -0.0366
 7021W        W22152   4.791  16.597   0.525 -0.4665  0.0518  0.1163
 7022W        W22153  17.853   6.738  14.582 -0.0519 -0.0686  0.2110
 7023W        W22154  11.300   1.125   4.702 -0.4627 -0.0746  0.0724
 7024W        W22155   2.999   9.214  16.558 -0.0122 -0.2355 -0.0331
 7025W        W22156   8.484  13.264   5.975  0.1652 -0.2827  0.2870
 7026W        W22157  16.076  12.613  14.688  0.1572  0.2305  0.0075
 7027W        W22158  12.111  11.105   5.284  0.1995  0.1456  0.2735
 7028W        W22159   2.824  17.845   1.604 -0.3281  0.0829 -0.1177
 7029W        W22160  13.389   8.458   3.670 -0.0983  0.0760  0.0604
 7030W        W22161  10.977  13.754   0.872 -0.2742 -0.2383  0.0060
 7031W        W22162  13.340  17.439  15.393 -0.1602 -0.1649 -0.0861
 7032W        W22163  12.383  17.404   3.017 -0.0364  0.0579  0.1639
 7033W        W22164   4.295  12.555  12.511 -0.0050 -0.1971 -0.0099
 7034W        W22165   7.514   3.228  14.667 -0.2221  0.1550 -0.2316
 7035W        W22166  15.091   7.916  14.578 -0.4708  0.1040  0.1255
 7036W        W22167  14.402  11.875  11.600 -0.1632 -0.1395 -0.0308
 7037W        W22168  16.269   8.500  15.224  0.1676 -0.2344  0.0650
 7038W        W22169   4.815   1.915   3.631  0.0346 -0.0239  0.0884
 7039W        W22170   8.520   0.933   4.577  0.1656 -0.1940  0.2097
 7040W        W22171   1.460   2.329  11.941  0.0841 -0.2852  0.0486
 7041W        W22172  16.329   7.350   5.283  0.0066 -0.0424 -0.2140
 7042W        W22173   8.139  13.957  14.494 -0.1579  0.1024  0.2843
 7043W        W22174   7.772   0.886   2.613  0.0137  0.2187  0.2958
 7044W        W22175   2.808  12.492  15.024  0.0696 -0.0626  0.0227
 7045W        W22176  13.789  15.442   3.615  0.0535 -0.0716  0.1476
 7046W        W22177   8.060  15.852  14.251 -0.0463  0.2106 -0.2406
 7047W        W22178   6.785   9.151  11.208  0.0162 -0.0428 -0.2319
 7048W        W22179  16.707   6.298   3.119 -0.3969 -0.0771  0.1236
 7049W        W22180  11.566   6.271   0.251 -0.1147  0.0508  0.3376
 7050W        W22181   0.896  12.308   2.642  0.1425  0.0144  0.0979
 7051W        W22182   1.826   1.663   5.129 -0.2043  0.1188  0.1001
 7052W        W22183   7.273  10.043   3.774  0.2636 -0.0261 -0.0882
 7053W        W22184  16.612   9.746   1.521  0.4454 -0.3852  0.0119
 7054W        W22185   4.187   8.047   0.427 -0.2615  0.1473 -0.2915
 7055W        W22186   0.975  12.744   2.130  0.3114  0.0169 -0.0496
 7056W        W22187   5.451  16.761   4.422 -0.0146  0.1095  0.2377
 7057W        W22188   9.251  11.715  11.294  0.3743  0.1285  0.1156
 7058W        W22189   8.080   5.882   4.770 -0.0947  0.0018  0.1367
 7059W        W22190  10.152  15.352   4.873  0.0086 -0.0750 -0.2249
 7060W        W22191   0.584  13.953  13.032  0.1955 -0.2750  0.0169
 7061W        W22192  11.453  11.914   5.510  0.1085  0.1979 -0.0421
 7062W        W22193   4.524  10.559  11.245  0.1767 -0.1036  0.0344
 7063W        W22194  16.680   1.391   5.913 -0.1978  0.0300 -0.0066
 7064W        W22195  12.268   8.762  15.304  0.2674 -0.3693  0.0630
 7065W        W22196   9.734   1.340   3.718  0.1009 -0.0471  0.0030
 7066W        W22197  16.571   6.131   3.990  0.3213 -0.1027  0.1012
 7067W        W22198   8.062   3.501   3.201  0.1183 -0.0699 -0.1332
 7068W        W22199  17.877  12.695  14.424  0.0064 -0.1284 -0.2302
 7069W        W22200   8.995  16.677   1.412 -0.0689 -0.0823 -0.0423
 7070W        W22201   1.010   4.079  15.616  0.1193  0.0924 -0.3843
 7071W        W22202  14.470  11.906   0.066 -0.2913 -0.0787 -0.3986
 7072W        W22203   8.010   4.236  16.525  0.1884 -0.0076 -0.1583
 7073W        W22204  12.889   8.454  12.646 -0.2147  0.1108 -0.0250
 7074W        W22205   5.289   0.180  12.018  0.0241 -0.2281  0.0559
 7075W        W22206  13.073   6.762  13.341 -0.2238  0.0798 -0.0915
 7076W        W22207   0.040  16.499   4.629 -0.0526 -0.0343  0.3075
 7077W        W22208  13.614   7.519   4.924  0.2866  0.3362  0.1722
 7078W        W22209   0.959   4.113  13.950  0.0545 -0.1291 -0.1888
 7079W        W22210  16.234  15.354   2.234 -0.0684  0.3373 -0.0448
 7080W        W22211   0.099   9.328  14.069  0.0246  0.0268  0.0662
 7081W        W22212   9.659  10.551   4.906 -0.0425 -0.0236  0.1894
 7082W        W22213   6.001   5.896  16.667  0.1324  0.2652  0.3050
 7083W        W22214  10.532  11.922  11.540 -0.1227 -0.0666 -0.0771
 7084W        W22215   1.301   1.664  13.799 -0.1257  0.2312  0.1050
 7085W        W22216   8.398  16.282  14.407 -0.0594  0.0765 -0.0726
 7086W        W22217  17.646  15.151  13.123  0.2457 -0.2169 -0.0804
 7087W        W22218   3.218   9.944   0.465 -0.1981  0.1807  0.0736
 7088W        W22219   6.794  11.726  14.139  0.2417  0.2417 -0.0928
 7089W        W22220   4.273  14.913   1.966 -0.2653  0.2684 -0.2619
 7090W        W22221   1.850   0.667   4.029 -0.1044  0.0665  0.0633
 7091W        W22222   9.034   2.548  14.157  0.0575 -0.1539  0.3034
 7092W        W22223  15.000   9.987  14.710 -0.0145 -0.2603  0.0167
 7093W        W22224  11.028   4.118   0.812  0.0976 -0.1828  0.2070
 7094W        W22225  10.577   8.173   4.891 -0.0545  0.1233  0.1488
 7095W        W22226   3.983   3.588   1.918  0.2016  0.0593 -0.0397
 7096W        W22227  17.022  15.663   5.048 -0.1122  0.1410 -0.3285
 7097W        W22228   8.053  16.106  11.439  0.0830  0.2051  0.2946
 7098W        W22229  10.101   5.042  14.077  0.2286  0.1969 -0.1437
 7099W        W22230   9.152  12.970  13.348 -0.1337 -0.3675  0.2941
 7100W        W22231   6.656   5.659  14.195 -0.0240 -0.1687 -0.1285
 7101W        W22232  12.795  16.149  14.698 -0.2663 -0.2128 -0.2375
 7102W        W22233   5.642   9.596  11.945  0.1461  0.4009  0.0976
 7103W        W22234   4.719  12.079   3.193 -0.0793  0.1014  0.1240
 7104W        W22235   8.283   8.344  13.050 -0.0640  0.3849  0.1597
 7105W        W22236  13.461   0.352   3.254 -0.0989 -0.1446 -0.1265
 7106W        W22237  15.826  12.719  16.671 -0.0694 -0.0405  0.0838
 7107W        W22238  14.354   6.459   4.543  0.2285 -0.2686  0.0145
 7108W        W22239   5.149   1.595   4.811 -0.0335 -0.2769 -0.2412
 7109W        W22240   5.436  17.817   3.871  0.1408 -0.1465 -0.0554
 7110W        W22241  13.757  14.615   5.561  0.0717 -0.1972 -0.1991
 7111W        W22242   8.289  15.550  15.111  0.0413 -0.1115 -0.0898
 7112W        W22243   3.419   0.766   4.572  0.3185 -0.1515 -0.3113
 7113W        W22244   9.630   1.305   3.203 -0.1236 -0.0141  0.0680
 7114W        W22245  10.011  17.484   3.687  0.1430  0.0170 -0.1551
 7115W        W22246   6.792  15.533  12.207  0.0549 -0.2689 -0.0015
 7116W        W22247  11.482  16.782  16.647 -0.1034 -0.0171  0.1969
 7117W        W22248   0.099  12.427   4.644  0.0590 -0.2240 -0.2470
 7118W        W22249   1.102   8.923   0.629  0.2026 -0.0495  0.0952
 7119W        W22250  15.501  10.934  10.664 -0.2384 -0.2335  0.1681
 7120W        W22251  17.532  13.001   4.048 -0.0298 -0.0859 -0.2419
 7121W        W22252   3.820  14.105   0.694  0.0003  0.2007  0.2106
 7122W        W22253  17.818  11.901   5.537  0.0656 -0.1919  0.2174
 7123W        W22254  16.732   0.302  13.056 -0.1329 -0.1730 -0.3267
 7124W        W22255   2.222   9.234  14.606  0.0987 -0.4840 -0.2081
 7125W        W22256   8.960   0.881  12.727  0.0229  0.0629  0.2182
 7126W        W22257  12.108   0.205  11.153  0.0206  0.0721  0.3865
 7127W        W22258   7.847   6.424  12.223  0.1398  0.0462 -0.1742
 7128W        W22259  15.936   7.216  16.611  0.0621 -0.1451  0.2127
 7129W        W22260   5.570  13.963   2.362  0.0893  0.1940 -0.1645
 7130W        W22261   4.580  11.552   3.690  0.1156 -0.3622  0.2961
 7131W        W22262  16.016  10.879   5.187  0.1419 -0.0157 -0.1232
 7132W        W22263   0.195  15.871   3.159 -0.0670  0.3107  0.1018
 7133W        W22264   8.215   2.704   4.419 -0.0210  0.1638 -0.2410
 7134W        W22265   3.522   4.951   1.284  0.1101  0.1392  0.1450
 7135W        W22266   7.785   7.647   5.351 -0.1339 -0.4063  0.1147
 7136W        W22267  12.265   9.967   4.699  0.0676 -0.0356  0.1755
 7137W        W22268   0.514   7.907   1.889 -0.3196 -0.0661 -0.2338
 7138W        W22269   5.901  15.621  15.893 -0.3398  0.1194 -0.1333
 7139W        W22270   4.680   8.219  12.665 -0.1784 -0.0183 -0.1078
 7140W        W22271  15.295  16.202  13.372  0.5058  0.0720 -0.2202
 7141W        W22272   7.549   0.828  16.471  0.2053  0.2032 -0.2155
 7142W        W22273  16.936  15.666  13.919 -0.0539 -0.1649  0.0940
 7143W        W22274   4.733   9.969   0.275  0.1128  0.1092 -0.2405
 7144W        W22275  14.977   6.138   5.013  0.2331  0.1334 -0.0564
 7145W        W22276   8.766  16.969  13.870 -0.0389  0.0415  0.3001
 7146W        W22277  11.991   1.116  10.375 -0.1123  0.0412  0.0257
 7147W        W22278   8.289  17.125  12.937 -0.1084 -0.0185 -0.3444
 7148W        W22279   6.202   2.425   4.752  0.2312 -0.1188 -0.0497
 7149W        W22280  10.220  13.732   3.854  0.1620  0.0945  0.1599
 7150W        W22281   9.300  16.766  11.212  0.0534  0.2294 -0.0351
 7151W        W22282  16.801  11.664   0.009  0.1002  0.2059 -0.0073
 7152W        W22283   8.474   2.437   2.318 -0.1649 -0.2080  0.2040
 7153W        W22284   0.558  13.682   4.624  0.1242 -0.2220  0.1343
 7154W        W22285   5.078  13.244   0.330 -0.1918  0.0762  0.0463
 7155W        W22286  11.660   7.007  16.527 -0.2240  0.0973 -0.1020
 7156W        W22287  17.799   0.396  15.219  0.1479  0.0386  0.0356
 7157W        W22288   4.744   5.941  12.930 -0.1873  0.1910  0.1115
 7158W        W22289  10.397   8.237  12.845  0.0359  0.2616  0.1044
 7159W        W22290  16.553   2.873   0.470  0.0225 -0.1151 -0.0308
 7160W        W22291   4.579   3.792  12.970  0.0861 -0.2822 -0.1205
 7161W        W22292  16.651  17.431  16.534  0.0790  0.0029 -0.1307
 7162W        W22293  16.608   3.262   2.732  0.1599  0.3034 -0.2002
 7163W        W22294   0.323  16.352   5.598  0.3494  0.0667 -0.0769
 7164W        W22295  16.620   0.188  13.706 -0.0625  0.1203 -0.3538
 7165W        W22296  16.001   6.510   2.339  0.0031 -0.1801 -0.3985
 7166W        W22297   0.610   7.768   3.859 -0.2349  0.1018 -0.1986
 7167W        W22298  16.171   2.689  11.442  0.1109  0.1245 -0.1709
 7168W        W22299   1.283  10.084   3.737 -0.1098  0.3271  0.1985
 7169W        W22300   8.032  14.445  11.933 -0.0234  0.2201  0.2874
 7170W        W22301  17.656  12.633  10.444 -0.2092 -0.0805 -0.0843
 7171W        W22302   5.237   9.646   3.264  0.0688  0.0845  0.3014
 7172W        W22303   6.741  13.642  15.643 -0.0290  0.1104 -0.1633
 7173W        W22304   0.806  16.095  11.304  0.0101  0.1026  0.0057
 7174W        W22305   7.089   0.446   3.604  0.0567 -0.1125 -0.1072
 7175W        W22306   3.715   4.094  12.670  0.0056 -0.0323 -0.2229
 7176W        W22307   2.229  13.627   2.209 -0.0152  0.1034 -0.3691
 7177W        W22308   8.814   5.329   0.326 -0.1619  0.0759 -0.0253
 7178W        W22309   5.077  15.299  11.005  0.2202  0.1131  0.2077
 7179W        W22310  14.951  15.058  15.361  0.1399  0.0528 -0.1442
 7180W        W22311  12.830   2.943  14.280 -0.0181  0.0698 -0.2070
 7181W        W22312  15.705  11.800  11.298  0.2205 -0.0729 -0.2422
 7182W        W22313   5.438  10.960   0.183 -0.0805  0.0094  0.1854
 7183W        W22314   8.873   1.155  11.879  0.0246  0.0264 -0.0921
 7184W        W22315   2.576  16.025   4.181  0.1768  0.2633 -0.1713
 7185W        W22316   1.788   9.179  12.779  0.0047  0.0092  0.1135
 7186W        W22317   0.991  10.640   2.334 -0.3910  0.0525 -0.0198
 7187W        W22318   2.020   3.826   1.234  0.0353 -0.1967 -0.0050
 7188W        W22319   0.944  17.170  15.803  0.3182 -0.2095  0.0990
 7189W        W22320  15.296  10.620   1.881 -0.2368  0.1832  0.0780
 7190W        W22321   6.529   8.960  12.034  0.1941 -0.1022  0.0150
 7191W        W22322   0.924   1.776   3.681 -0.0442 -0.1848 -0.0397
 7192W        W22323   9.785  12.275   1.315  0.1628 -0.1705 -0.1604
 7193W        W22324  11.001  13.351   3.657 -0.1562 -0.1822 -0.2262
 7194W        W22325   2.504   3.046   5.771 -0.0241  0.0833  0.0441
 7195W        W22326  17.573   0.092   5.202 -0.1991  0.1660  0.2830
 7196W        W22327   4.314   5.178  15.671 -0.0269  0.1913 -0.2622
 7197W        W22328   3.847  17.353  16.231  0.1619 -0.0960 -0.0337
 7198W        W22329   5.753  16.174  11.735 -0.2028  0.2185 -0.0496
 7199W        W22330  17.655  11.390  13.425 -0.2375  0.1253  0.0020
 7200W        W22331  10.885   7.661   3.186 -0.0181 -0.0215 -0.1040
 7201W        W22332   5.736   5.871  11.342 -0.2682 -0.0379 -0.0196
 7202W        W22333   2.251   6.167   1.527  0.1968  0.0019 -0.0061
 7203W        W22334   9.479  16.834  14.961  0.1054  0.1825  0.2736
 7204W        W22335  10.670  16.718   4.796  0.0491 -0.1145  0.0818
 7205W        W22336   9.879   0.850  12.661  0.2344  0.1475 -0.1741
 7206W        W22337   1.870   9.155  15.896  0.0392 -0.0779  0.2745
 7207W        W22338  12.310  16.829  11.414  0.3984 -0.0496  0.1958
 7208W        W22339  13.022  14.640  16.386 -0.0812  0.1094 -0.0094
 7209W        W22340  16.004  17.386  13.341  0.0977 -0.0262 -0.1734
 7210W        W22341   6.263  14.428   5.392 -0.1126  0.2099  0.0857
 7211W        W22342  14.900   2.063  10.937 -0.1474  0.1007 -0.0481
 7212W        W22343   7.114   9.339   2.667 -0.3271  0.1090  0.1278
 7213W        W22344  12.103  13.870  14.430  0.0458 -0.2611  0.0627
 7214W        W22345   5.298   5.831  15.511 -0.3185  0.1006  0.0223
 7215W        W22346   5.414   7.916  16.143  0.0594  0.1428 -0.1123
 7216W        W22347  16.772  14.609  13.042  0.0729 -0.2078  0.0388
 7217W        W22348  17.182  16.047  15.672 -0.1139 -0.2697  0.3315
 7218W        W22349   8.176  14.357   0.540  0.1170 -0.0706  0.1959
 7219W        W22350   7.170   3.083  11.716  0.0599  0.0174 -0.2353
 7220W        W22351  11.480  15.032  13.569  0.3294 -0.0254  0.0509
 7221W        W22352   4.504   4.289  12.844  0.0734  0.0374  0.1275
 7222W        W22353  12.131  12.968  15.565 -0.2393  0.5018  0.1422
 7223W        W22354  10.460   5.404   2.113  0.1268  0.1946 -0.0132
 7224W        W22355  17.728  11.742   3.636 -0.1215  0.0441 -0.1891
 7225W        W22356   2.551  13.054  11.620 -0.2732  0.0150 -0.2105
 7226W        W22357  17.559  13.957  13.577 -0.2358 -0.0843  0.0138
 7227W        W22358  17.141  13.698   4.366  0.0845 -0.2862  0.4688
 7228W        W22359  12.914  11.519  13.348 -0.3212 -0.3056 -0.1359
 7229W        W22360  13.846  13.852   5.969 -0.1316  0.1371 -0.1972
 7230W        W22361   2.694   6.151   4.604 -0.0883  0.0464 -0.0832
 7231W        W22362  13.163   1.876  12.115 -0.0629  0.0399  0.0313
 7232W        W22363   1.615  14.632  16.682  0.3142  0.0331  0.0137
 7233W        W22364  13.889   9.208   3.246 -0.0752 -0.0461 -0.1738
 7234W        W22365  17.330  14.160   3.304 -0.1035 -0.2429 -0.1331
 7235W        W22366  13.944  13.275   4.135 -0.0114  0.2235 -0.2211
 7236W        W22367  10.490   0.147   0.502  0.0094 -0.0093 -0.0306
 7237W        W22368   9.495   5.201  15.022 -0.0325  0.0910 -0.3168
 7238W        W22369  16.338  16.634   3.086  0.0453  0.0303 -0.0469
 7239W        W22370   1.724   6.259   1.789 -0.4237 -0.1853  0.0526
 7240W        W22371   6.210   5.231   5.457  0.0353 -0.3150 -0.2333
 7241W        W22372   7.521  15.028  14.075 -0.4344 -0.2205  0.0495
 7242W        W22373   7.331   6.445  14.465 -0.0092 -0.2225  0.0542
 7243W        W22374   3.652  14.071  14.860 -0.0193  0.1022 -0.4083
 7244W        W22375  15.465   8.898   4.446  0.3170 -0.2055  0.0334
 7245W        W22376   2.316   6.028   2.457 -0.0232  0.0329 -0.4848
 7246W        W22377  12.258   2.169   0.961  0.0747  0.0251 -0.2024
 7247W        W22378   4.401  17.829  11.734 -0.0220 -0.2372  0.2547
 7248W        W22379  10.306   6.409  15.981 -0.1511  0.1816 -0.1245
 7249W        W22380   4.036  12.879  12.748  0.1015  0.2744  0.1677
 7250W        W22381  17.173   0.664  15.946 -0.0423  0.0861 -0.2469
 7251W        W22382   8.073   4.019   3.081  0.1713  0.4101  0.3782
 7252W        W22383   2.138  17.237   5.535  0.0490 -0.1205 -0.1228
 7253W        W22384   5.304   2.150  15.159 -0.1528 -0.0258 -0.0367
 7254W        W22385   6.606  10.591   4.005 -0.0438  0.2088 -0.1135
 7255W        W22386  16.380  15.288  12.799  0.0786  0.1926  0.0879
 7256W        W22387   2.554   6.779  12.489  0.2807 -0.0521  0.0436
 7257W        W22388   3.442   2.456   5.220 -0.0890 -0.3009  0.3065
 7258W        W22389   6.196   7.130   4.171 -0.1596  0.0928  0.0742
 7259W        W22390   8.527   6.713  11.255 -0.0349 -0.0045  0.1376
 7260W        W22391  15.793   5.247  13.521  0.1426 -0.1883  0.3285
 7261W        W22392   3.873  14.729   3.386  0.2246  0.0666 -0.0066
 7262W        W22393   4.986   0.384   0.681 -0.3623 -0.0106 -0.1348
 7263W        W22394  12.568  12.596  14.383  0.0158 -0.0587 -0.2817
 7264W        W22395  13.556  14.227  14.424 -0.0124  0.0424  0.2061
 7265W        W22396   6.459  10.410   5.395 -0.0293 -0.0611 -0.3844
 7266W        W22397   9.066   3.657  15.806  0.2502 -0.1012  0.2528
 7267W        W22398  14.206   2.998  12.319 -0.3023  0.0558 -0.0333
 7268W        W22399   8.631   4.842   3.414  0.0296  0.2584 -0.4150
 7269W        W22400  13.779  14.567   0.909  0.0473 -0.0400  0.1842
 7270W        W22401   5.627   5.440  14.294 -0.1626 -0.3026 -0.1270
 7271W        W22402   3.184   1.459   4.337  0.0496  0.0007 -0.1535
 7272W        W22403  13.105  13.778  16.153 -0.0339 -0.0446 -0.0857
 7273W        W22404   3.501   8.526   1.106  0.0295  0.2344 -0.2036
 7274W        W22405  11.910  16.891  15.412  0.2215  0.0588 -0.0344
 7275W        W22406  11.225  13.992  13.968  0.0771 -0.0784  0.1594
 7276W        W22407  15.771  13.290  15.436  0.0398 -0.2910  0.0772
 7277W        W22408   1.597  17.771   2.890  0.0545  0.1442  0.0919
 7278W        W22409   7.313  10.098   4.786 -0.1553  0.0457 -0.0729
 7279W        W22410  16.290   2.089  15.664  0.0538  0.1463 -0.1333
 7280W        W22411   7.429   2.768  11.404 -0.3355 -0.0397 -0.0039
 7281W        W22412  10.393   1.367  12.250 -0.3249  0.0302  0.0376
 7282W        W22413   3.706  12.684  15.591 -0.1699  0.0648  0.1271
 7283W        W22414  10.402   5.041   4.862  0.1979 -0.0081  0.4729
 7284W        W22415  11.100   2.422   0.282  0.0418 -0.0238 -0.0642
 7285W        W22416  13.508   6.718   0.708 -0.0626 -0.1150 -0.0434
 7286W        W22417   4.738   4.159   0.150  0.0203  0.0787  0.0876
 7287W        W22418   4.758  12.559  15.716 -0.0992 -0.0746 -0.2130
 7288W        W22419  11.470  10.355   0.389 -0.0734  0.3043 -0.1597
 7289W        W22420   3.493  11.266  13.674 -0.0889 -0.1917  0.1489
 7290W        W22421   6.902   1.293  12.800 -0.1174  0.0981 -0.0646
 7291W        W22422   7.408   1.447  15.241 -0.0687 -0.3297 -0.0106
 7292W        W22423   6.518   6.720   0.183 -0.0038  0.0299 -0.1064
 7293W        W22424   2.671  11.619   1.491  0.0778 -0.0820  0.1763
 7294W        W22425   6.285  14.841  15.127 -0.0456  0.0347  0.0831
 7295W        W22426  15.640  12.077   1.844  0.1448  0.2220 -0.1958
 7296W        W22427  17.577   9.955   0.266  0.2786  0.2210  0.3174
 7297W        W22428   9.572  12.716  13.173  0.2080 -0.1124  0.0271
 7298W        W22429   0.136   8.942   2.228 -0.0234  0.0321  0.2876
 7299W        W22430   2.494  16.118   4.700 -0.1728  0.0058 -0.1543
 7300W        W22431  14.799  16.504   4.139  0.1519 -0.1577 -0.1385
 7301W        W22432  13.439  10.359   6.012 -0.2687  0.0007  0.0702
 7302W        W22433   7.145   5.795  14.212 -0.0457  0.3095  0.0553
 7303W        W22434  12.329   4.290   5.827  0.4136 -0.0925 -0.0306
 7304W        W22435   3.090  11.598  16.728 -0.1568  0.1226  0.0800
 7305W        W22436   1.809  15.280   2.618 -0.1089 -0.0569  0.0669
 7306W        W22437   2.176  13.159   0.680  0.3410 -0.2360 -0.0162
 7307W        W22438   9.854   8.033  13.104 -0.1001  0.1529 -0.0794
 7308W        W22439   0.965   2.174   4.578  0.0429  0.1271  0.0802
 7309W        W22440  14.441   4.013   0.050  0.0025 -0.0599 -0.2426
 7310W        W22441   0.030  10.219  11.221 -0.2058 -0.0884 -0.2667
 7311W        W22442  11.459   1.145  15.906  0.0664 -0.1266  0.4592
 7312W        W22443  10.650   5.034   5.495 -0.5716  0.3019 -0.3558
 7313W        W22444   2.816   1.424   5.274 -0.3223 -0.1554  0.0868
 7314W        W22445   0.255  15.834   5.575 -0.0007  0.0582  0.1244
 7315W        W22446   2.300  16.588   3.326 -0.1318 -0.2712  0.1221
 7316W        W22447   1.809   7.060  15.579 -0.1286 -0.2917  0.0453
 7317W        W22448  11.218   3.950  11.231  0.0169  0.1523 -0.0533
 7318W        W22449   1.845   5.383   1.135  0.1597  0.1191 -0.0489
 7319W        W22450   4.714   4.196   5.338 -0.2996  0.0544 -0.2060
 7320W        W22451   6.370   0.376  16.350  0.0885  0.2085  0.0245
 7321W        W22452   6.775   4.873  14.017  0.3269 -0.3206  0.1257
 7322W        W22453  15.612  14.671  16.110 -0.0874  0.0574  0.0454
 7323W        W22454  14.476   5.128  11.857 -0.0705 -0.1513 -0.1341
 7324W        W22455   1.252   7.720  13.641 -0.1058  0.2264 -0.2347
 7325W        W22456   7.038  14.993   2.653  0.0070 -0.0628 -0.3373
 7326W        W22457  13.530   9.640   0.088  0.1458  0.2187  0.0299
 7327W        W22458   6.967   8.373   2.815  0.1955  0.0592 -0.0465
 7328W        W22459   3.842  15.187   1.796 -0.1950  0.0490  0.3280
 7329W        W22460  11.055  13.648  14.342 -0.4040  0.3808  0.0610
 7330W        W22461  12.569   6.928  13.233 -0.1007  0.3864 -0.1438
 7331W        W22462  11.282   3.330   4.689 -0.1772  0.0284  0.0435
 7332W        W22463  15.512   2.181   4.587  0.3467  0.1385  0.0839
 7333W        W22464   0.629   0.525  16.297  0.0796 -0.3357 -0.3087
 7334W        W22465   8.251  14.142   2.844  0.0088 -0.1022 -0.2337
 7335W        W22466   1.627   7.307  11.861 -0.0205 -0.0419 -0.0194
 7336W        W22467   4.838  17.387   3.403 -0.1160  0.1202 -0.0107
 7337W        W22468   3.436   3.205   2.667  0.0233  0.2046 -0.0790
 7338W        W22469   8.100  14.625   4.762  0.0116 -0.1154 -0.1060
 7339W        W22470   6.428   5.143   3.252 -0.0365 -0.1988  0.2143
 7340W        W22471   5.387   4.410  14.921 -0.0121  0.0981  0.1833
 7341W        W22472   2.183   7.768   2.797 -0.1620  0.0117  0.0137
 7342W        W22473  13.112   4.018   3.942  0.3210 -0.2216 -0.0692
 7343W        W22474   5.072  11.623   5.497  0.1788  0.1406 -0.2306
 7344W        W22475   9.335  13.809  14.979 -0.0233  0.0579  0.0788
 7345W        W22476   4.634   8.813  15.459  0.0458 -0.0597 -0.0555
 7346W        W22477   7.668  13.926   2.295  0.3724  0.0775  0.2105
 7347W        W22478   2.098   5.700  11.555 -0.4106 -0.1299  0.2372
 7348W        W22479   9.770   0.849   5.569  0.1628 -0.1164 -0.2837
 7349W        W22480  17.151   2.615   1.012 -0.0062  0.1569  0.0017
 7350W        W22481  16.359   3.315   5.919 -0.1328 -0.2116  0.3124
 7351W        W22482   4.095   5.054   4.669 -0.0001 -0.0668  0.0644
 7352W        W22483   9.477  11.929  16.573 -0.0865 -0.1377  0.4603
 7353W        W22484  13.561   2.578   5.279  0.1323  0.1530 -0.0203
 7354W        W22485  15.827  13.389   4.868  0.4141 -0.1689  0.0457
 7355W        W22486  14.340   2.581  16.695  0.2642 -0.0677 -0.0537
 7356W        W22487   2.824  11.329   3.172 -0.1334  0.3754  0.2324
 7357W        W22488   6.734   0.427   0.034 -0.0341 -0.0740 -0.3749
 7358W        W22489   1.867  12.720   2.405 -0.0599 -0.1011 -0.0836
 7359W        W22490   6.657   9.464   3.449 -0.7919 -0.1697 -0.2103
 7360W        W22491   7.859   4.681   4.340  0.0102  0.0407  0.4107
 7361W        W22492   6.392   8.380  13.395 -0.1517 -0.2911 -0.1183
 7362W        W22493   3.329  12.909  13.448 -0.0575 -0.0032  0.1372
 7363W        W22494   2.544  10.985   0.340  0.0393 -0.0788 -0.1340
 7364W        W22495   6.979   7.083   1.193  0.1642  0.1099  0.1713
 7365W        W22496   9.895   3.122   4.546 -0.2561 -0.3818  0.0317
 7366W        W22497  11.026   7.028  16.113 -0.1088 -0.0226 -0.0184
 7367W        W22498  10.597   9.782  16.482 -0.1661  0.2213 -0.4479
 7368W        W22499   1.741  14.823   2.431 -0.2108  0.1389 -0.2228
 7369W        W22500  12.970   6.496  15.217 -0.1024  0.2127 -0.0656
 7370W        W22501   1.120  11.537  11.089  0.0329 -0.3667  0.0999
 7371W        W22502   2.645   0.939   3.190 -0.2607  0.0482  0.0618
 7372W        W22503  10.364  15.865   1.697 -0.2897 -0.1810  0.1463
 7373W        W22504   5.853  11.273   4.213  0.2274 -0.1701  0.0980
 7374W        W22505  12.947  10.626   5.261 -0.1086  0.0083 -0.2957
 7375W        W22506   9.985   2.831   0.863 -0.1002 -0.0089  0.2634
 7376W        W22507   9.287   6.424  14.980  0.3042  0.1286 -0.3476
 7377W        W22508  12.670   8.106  11.315  0.1169  0.2868 -0.3119
 7378W        W22509  10.172  11.804  15.696  0.0296 -0.0225  0.0204
 7379W        W22510   9.617  13.065   0.249  0.1848 -0.1275 -0.2096
 7380W        W22511  11.426   6.775  11.299  0.1233  0.2803  0.0464
 7381W        W22512  10.105   7.262  13.199  0.0864  0.0315  0.1498
 7382W        W22513   3.668  17.288   2.248 -0.0429 -0.2414  0.0910
 7383W        W22514   3.898   8.164  10.417 -0.2888  0.0913  0.0871
 7384W        W22515   7.179  14.589  13.207 -0.1983  0.0510  0.0893
 7385W        W22516   6.885  14.306  11.482 -0.1256 -0.1871  0.0881
 7386W        W22517   9.694   5.367   5.217  0.1419 -0.2329 -0.0433
 7387W        W22518   7.850   3.477   1.704  0.2485  0.0685 -0.4046
 7388W        W22519   3.077  10.213   4.433  0.2995 -0.3461 -0.0662
 7389W        W22520  14.570   9.628   4.049  0.1900 -0.3329  0.3205
 7390W        W22521   9.959   1.262  10.944  0.0233  0.2004 -0.1051
 7391W        W22522  12.526   9.187  14.618 -0.0780 -0.2995 -0.1108
 7392W        W22523   5.122  12.720   4.273 -0.2173  0.1544  0.3643
 7393W        W22524   8.804   8.939  12.164 -0.0254 -0.0957  0.0111
 7394W        W22525  13.316  12.068  15.062 -0.1730 -0.2150  0.4450
 7395W        W22526   1.131   0.878   2.121  0.3586 -0.0889 -0.0692
 7396W        W22527  13.010   2.863   5.397  0.0686  0.0116  0.0531
 7397W        W22528   4.740   5.514   0.049  0.0105  0.0460  0.0290
 7398W        W22529   5.653   7.580   0.221 -0.1654  0.1212  0.2525
 7399W        W22530   6.560   1.890   3.562 -0.0662  0.0799 -0.0922
 7400W        W22531   4.611   5.804   4.856 -0.0469  0.1542  0.0966
 7401W        W22532  17.566   1.043   0.365 -0.2051 -0.2020  0.1976
 7402W        W22533  13.670   9.411   2.666  0.1527 -0.1405  0.1801
 7403W        W22534   4.136  10.215  15.315 -0.2274 -0.0480 -0.0774
 7404W        W22535   9.743  15.322   1.137  0.0873 -0.0681 -0.1912
 7405W        W22536   7.415  13.445   3.731 -0.2236  0.0897  0.3439
 7406W        W22537   9.111  17.288  10.981  0.1437  0.0448  0.0916
 7407W        W22538   3.414  12.899   0.484 -0.0061 -0.1362 -0.0605
 7408W        W22539  10.213  11.268  15.673  0.1106  0.5658 -0.1375
 7409W        W22540   9.254  12.443  14.864 -0.0900  0.2786  0.0265
 7410W        W22541   4.431   1.688   3.826 -0.2448  0.0593 -0.0763
 7411W        W22542   0.869  12.403   0.280  0.0704  0.0209  0.2327
 7412W        W22543   4.611   6.925   1.932 -0.3098 -0.2237  0.0598
 7413W        W22544  14.681  15.470  10.728 -0.1712 -0.1582 -0.2284
 7414W        W22545  17.544   8.681   4.402  0.2204 -0.2890  0.0603
 7415W        W22546   6.550  10.602  12.068 -0.1339  0.4403  0.0180
 7416W        W22547  15.422  16.232  11.237  0.0489  0.0370 -0.0056
 7417W        W22548   5.229  10.131  11.888  0.3698 -0.0024 -0.2205
 7418W        W22549   8.691   3.112  14.887  0.2051 -0.0057  0.2317
 7419W        W22550  16.839  10.702   3.310 -0.0438 -0.0167  0.1727
 7420W        W22551   9.658  11.634   1.994 -0.0968  0.2232  0.0517
 7421W        W22552  12.137   7.070  16.204  0.4818  0.0090 -0.0775
 7422W        W22553  10.935  17.499  13.955 -0.1930 -0.0968  0.1735
 7423W        W22554   5.256   9.958  12.378  0.0126  0.0990  0.1963
 7424W        W22555   5.528  12.933  12.160  0.1662  0.2414 -0.0732
 7425W        W22556   0.589   4.247  16.196  0.3782  0.1825  0.0505
 7426W        W22557  10.391   9.154   1.748 -0.1995 -0.2743 -0.1350
 7427W        W22558  10.181  17.818  15.534 -0.5715 -0.1284 -0.2098
 7428W        W22559   9.773  10.583   2.679 -0.2306  0.0268  0.0802
 7429W        W22560   3.185  11.395   1.460 -0.0156 -0.1801  0.0269
 7430W        W22561  12.527   9.064  14.151  0.2169  0.0066 -0.1977
 7431W        W22562   1.157   1.330   4.373  0.2220  0.3450  0.1705
 7432W        W22563  12.526  13.627  16.264  0.3013  0.2306  0.2943
 7433W        W22564   0.361   5.128   4.873 -0.0174 -0.2915 -0.0393
 7434W        W22565  10.152  12.208   2.687 -0.0050  0.0128  0.1779
 7435W        W22566   7.774  17.071   5.703 -0.1399 -0.2288  0.0552
 7436W        W22567  12.848   8.422  15.856  0.1982  0.2115  0.1836
 7437W        W22568  11.405   1.885  13.073  0.0847 -0.1116  0.2152
 7438W        W22569   3.855  12.441  13.054  0.0873  0.1070 -0.3102
 7439W        W22570  16.512  10.222  10.724 -0.2546  0.1387  0.1657
 7440W        W22571  11.203   5.382  16.674 -0.1040 -0.0183 -0.1320
 7441W        W22572   5.157  10.552   1.815 -0.1224  0.1808 -0.0056
 7442W        W22573  14.267   7.265   5.609  0.0376 -0.0249  0.0332
 7443W        W22574  10.516   3.148   2.462 -0.2161 -0.1488  0.1635
 7444W        W22575   7.524   5.726   1.992  0.3737  0.0955 -0.2134
 7445W        W22576  11.529  14.612   0.443 -0.4707 -0.1937  0.1455
 7446W        W22577  10.895   4.104   3.613  0.0736  0.0122  0.0463
 7447W        W22578   5.035  17.065  10.892 -0.0036  0.0532  0.1167
 7448W        W22579   2.310   3.107   1.534 -0.2500 -0.0531  0.1866
 7449W        W22580  13.846  11.224  14.104 -0.2619  0.1132  0.2427
 7450W        W22581   6.343  13.929  15.795 -0.0956 -0.0062 -0.1563
 7451W        W22582  15.371   9.021  15.537  0.2154 -0.0584 -0.1431
 7452W        W22583   6.278   8.465   1.643  0.1344  0.0710 -0.1414
 7453W        W22584   2.030  14.378   4.671 -0.3813  0.0654  0.1122
 7454W        W22585  11.190   7.645  14.359  0.1703 -0.1871  0.0139
 7455W        W22586   9.983  16.083   4.725  0.2827 -0.0911 -0.0537
 7456W        W22587  10.939  10.270  11.803  0.1475 -0.3523  0.2231
 7457W        W22588  10.187   0.472  16.003 -0.0097  0.2864  0.1017
 7458W        W22589   3.417   5.568   2.115 -0.0841  0.0345  0.1366
 7459W        W22590  12.592  13.924   3.161  0.0025  0.0968  0.0243
 7460W        W22591   3.843   4.136   1.861 -0.2015  0.0619 -0.3469
 7461W        W22592   1.359  16.220   2.544  0.0885  0.1260 -0.1038
 7462W        W22593   3.339  13.499   1.744  0.1375 -0.1957  0.3805
 7463W        W22594  17.153  16.596  14.135  0.3494  0.1619 -0.0128
 7464W        W22595   2.315  11.076   1.391  0.2719 -0.3435 -0.4382
 7465W        W22596   6.455   3.343   1.197 -0.0865 -0.1841 -0.1858
 7466W        W22597  16.564  12.713   3.746 -0.0504  0.0101  0.0368
 7467W        W22598  16.062   8.684  12.739  0.1839  0.0669  0.1031
 7468W        W22599  13.667   0.480  12.645 -0.0078  0.0421  0.0292
 7469W        W22600   3.316   5.170   5.411 -0.3346 -0.3017 -0.0237
 7470W        W22601   4.271  14.758  13.649  0.0893  0.2886 -0.1284
 7471W        W22602   7.976   1.574  15.503 -0.1557  0.0619  0.1184
 7472W        W22603   6.473   3.190  12.779  0.0905  0.0543  0.6615
 7473W        W22604  14.990   1.422   0.775  0.0039 -0.2505  0.1763
 7474W        W22605  17.761   5.106   1.211  0.1431  0.0409  0.2486
 7475W        W22606  15.345   2.192   5.094 -0.1676  0.2326  0.0139
 7476W        W22607   2.481   8.110  14.051  0.0396  0.1109  0.2884
 7477W        W22608  12.907  16.035  12.537 -0.0283 -0.1907  0.1968
 7478W        W22609  16.164   9.145   1.791 -0.1540 -0.0821  0.2940
 7479W        W22610   8.466   6.040   4.089  0.1401  0.0015 -0.0087
 7480W        W22611   4.247  11.755   2.250 -0.1615  0.1698 -0.0879
 7481W        W22612  15.047  16.950   5.865  0.1058 -0.1483 -0.0102
 7482W        W22613   9.306   2.422   5.136 -0.4475 -0.0744  0.1224
 7483W        W22614  17.438   4.021  14.357  0.0515  0.0609  0.0546
 7484W        W22615   5.399  17.708  14.909 -0.1641 -0.0666  0.1603
 7485W        W22616   4.497   8.226  14.921 -0.2242  0.2264  0.0144
 7486W        W22617  14.006   3.175   4.407 -0.1644  0.0368 -0.3285
 7487W        W22618   4.008  10.745   5.854  0.0052 -0.0187 -0.1755
 7488W        W22619   6.324   5.902   4.495 -0.0734 -0.1445 -0.1158
 7489W        W22620   7.936   5.652  16.307 -0.0251 -0.1394  0.1152
 7490W        W22621  12.284   5.504  12.657 -0.2353  0.1897 -0.0794
 7491W        W22622  16.844  14.357  13.973 -0.0759  0.1252  0.0788
 7492W        W22623   7.174   0.635  16.070 -0.2493  0.1211 -0.0115
 7493W        W22624   5.684  12.772   2.919 -0.0109 -0.0518  0.1297
 7494W        W22625  15.837  14.744  14.534 -0.0329  0.0557  0.0929
 7495W        W22626  10.209  14.356   1.153  0.2711 -0.3452  0.0978
 7496W        W22627  16.470  17.215  15.217  0.3121 -0.0595 -0.1844
 7497W        W22628   5.870  14.309  15.136  0.1023  0.0505  0.4128
 7498W        W22629  13.829  10.048   5.215 -0.0016 -0.2247  0.0207
 7499W        W22630   2.980   5.322  13.802 -0.0100 -0.1637 -0.1035
 7500W        W22631  15.999  13.370  13.300  0.1866  0.1464  0.2296
 7501W        W22632  13.326  17.202   2.989  0.1117  0.1230 -0.2094
 7502W        W22633   5.638   2.969   5.296 -0.2659 -0.2406 -0.0291
 7503W        W22634  14.373   4.231   5.673  0.2034  0.1344  0.0722
 7504W        W22635   4.772  12.620  13.359 -0.0657 -0.1155 -0.0700
 7505W        W22636  16.036   6.712   0.038  0.0154  0.2311 -0.2312
 7506W        W22637   2.314   5.222  11.527 -0.0083 -0.0596  0.0606
 7507W        W22638   6.431  17.571  15.451  0.1240 -0.0740  0.1913
 7508W        W22639   5.716   6.388   5.440  0.0631  0.1870  0.4637
 7509W        W22640  11.816   7.925  13.033 -0.1310 -0.1804 -0.0052
 7510W        W22641   3.603  16.693  15.029  0.0141 -0.1251  0.1535
 7511W        W22642   0.539   8.342   2.622  0.1403 -0.1594  0.0909
 7512W        W22643   8.741  11.623  15.280  0.3119  0.0770 -0.2160
 7513W        W22644   2.878  14.253  14.784  0.1717 -0.0976  0.0522
 7514W        W22645   2.584   7.930  14.575  0.1876 -0.0321  0.1309
 7515W        W22646   8.623   9.527   6.071 -0.0329  0.2144  0.0898
 7516W        W22647  10.785   1.906   4.109  0.0212 -0.0490  0.0810
 7517W        W22648   0.541   9.267  13.871  0.1018 -0.0161  0.0249
 7518W        W22649  11.204  16.925  11.920  0.0569  0.0145 -0.2151
 7519W        W22650   8.345   9.294   2.396  0.2338 -0.1779 -0.1557
 7520W        W22651  13.228  10.121   3.155  0.1350 -0.2412  0.1271
 7521W        W22652  13.288   8.689  11.777 -0.2198 -0.0896  0.2435
 7522W        W22653   5.290   8.010   2.265 -0.0648 -0.3332  0.2195
 7523W        W22654   2.130   9.343   5.272  0.1525  0.0075  0.1207
 7524W        W22655  11.781  17.240  11.024  0.1037  0.3538  0.1777
 7525W        W22656  14.661   5.469  12.163  0.0870  0.1641  0.0135
 7526W        W22657  14.824   5.920  13.017 -0.0726  0.1493  0.0642
 7527W        W22658   9.083  12.111   2.576 -0.0622 -0.0090  0.0388
 7528W        W22659   6.258   3.948  15.909  0.0589 -0.2611  0.1356
 7529W        W22660  12.006   5.691   4.862 -0.0028 -0.1672  0.0207
 7530W        W22661   9.762  10.014   3.428  0.1569 -0.0866 -0.2856
 7531W        W22662  10.542   1.524  12.720 -0.0313  0.1093 -0.0574
 7532W        W22663  12.445   3.920   0.723  0.0684 -0.0523  0.0178
 7533W        W22664  11.631   2.542   1.475  0.2834  0.0441  0.0742
 7534W        W22665   7.556   5.464  11.306 -0.0107  0.1218 -0.1952
 7535W        W22666  15.098  12.554  14.742 -0.1775 -0.2019  0.0135
 7536W        W22667   6.958   7.531  16.549  0.1169  0.0489 -0.0120
 7537W        W22668  17.240  15.389  14.878  0.0228  0.2345 -0.0985
 7538W        W22669  14.005  17.020  11.680 -0.1787 -0.0232  0.2556
 7539W        W22670  15.754   9.672   3.193  0.1849  0.1281  0.1031
 7540W        W22671  10.834  16.759  10.941  0.0143  0.0719  0.1296
 7541W        W22672  11.970   8.042  15.867 -0.0219 -0.0383  0.1854
 7542W        W22673   7.908  17.298  15.750  0.1482  0.0822  0.1806
 7543W        W22674   4.440  14.882  16.219 -0.1293  0.0732  0.0698
 7544W        W22675  14.000  14.158  15.279 -0.1888 -0.1119 -0.1043
 7545W        W22676   3.048   6.810   4.137 -0.2275 -0.0405 -0.2337
 7546W        W22677  12.994  16.602  15.408 -0.2086  0.1368 -0.0891
 7547W        W22678   3.514   3.763   3.469  0.2829  0.1442  0.1939
 7548W        W22679   5.297   7.311   2.473  0.0045 -0.2940  0.0183
 7549W        W22680  14.772   6.942  11.425  0.0443 -0.0484 -0.1245
 7550W        W22681   9.590  17.735  16.600 -0.3349  0.0720 -0.5052
 7551W        W22682   8.828  12.041  15.004 -0.3384 -0.1202  0.0068
 7552W        W22683   2.901  13.851   4.702 -0.1532 -0.0911  0.0839
 7553W        W22684   2.152   6.973   3.558 -0.0036  0.1843  0.2054
 7554W        W22685  11.883   7.889   6.057  0.1564 -0.0984 -0.1324
 7555W        W22686   6.315  17.340   4.228 -0.0501 -0.1379 -0.0474
 7556W        W22687  14.413   4.254  15.913 -0.1099  0.0960 -0.2111
 7557W        W22688  13.429  11.835   2.137  0.2074 -0.1892 -0.0629
 7558W        W22689   9.121   8.238   1.588  0.0123 -0.3803  0.1831
 7559W        W22690  17.770   4.181   5.032  0.1839 -0.3555  0.0591
 7560W        W22691  10.291   5.344   3.528  0.0636  0.2555 -0.3262
 7561W        W22692  10.540  10.950   2.966 -0.0858  0.0648  0.0626
 7562W        W22693   5.843  10.981   1.422 -0.2064 -0.1489  0.2710
 7563W        W22694   7.677   3.722  13.997 -0.1203  0.1014 -0.1727
 7564W        W22695   0.070   2.365  12.965  0.0331  0.1168  0.2810
 7565W        W22696   4.931  12.736   2.376 -0.0210 -0.0489 -0.0029
 7566W        W22697  11.762   4.086   2.885  0.1950 -0.0994  0.0076
 7567W        W22698  10.899   7.552  13.960  0.4181 -0.1330  0.0664
 7568W        W22699  13.276   1.695  16.325  0.1151  0.1648 -0.0295
 7569W        W22700  10.339   3.639  15.719 -0.0465 -0.0695 -0.4421
 7570W        W22701   8.851   1.749  13.940  0.3218  0.0918 -0.0083
 7571W        W22702   2.841   8.928  11.925 -0.3069 -0.0861  0.2614
 7572W        W22703  12.011  16.689   5.195  0.0072 -0.0671  0.1557
 7573W        W22704   0.217  11.803   5.123 -0.0888 -0.1668  0.2894
 7574W        W22705   9.166   3.236  16.191 -0.2247 -0.2927 -0.1921
 7575W        W22706  10.281  16.066  14.138 -0.0773  0.1989  0.0661
 7576W        W22707  14.648   7.005   2.153  0.0952  0.1314  0.0225
 7577W        W22708   1.129   7.854  14.599  0.0015 -0.0441  0.0705
 7578W        W22709  14.823  13.509   5.808 -0.1753 -0.1479 -0.1557
 7579W        W22710   8.144  14.979   2.862 -0.2702 -0.1544  0.2772
 7580W        W22711   4.492   9.095   3.983 -0.1319 -0.1967 -0.1230
 7581W        W22712  12.557   3.313  14.104 -0.0163 -0.1152 -0.1575
 7582W        W22713   2.929  13.220   5.453  0.1328  0.2728  0.2581
 7583W        W22714  12.947   2.167   5.804  0.0935 -0.1165 -0.1110
 7584W        W22715  14.244  12.165   1.838  0.0679  0.2484  0.1571
 7585W        W22716   5.545  15.769  12.638  0.0718 -0.0861 -0.0896
 7586W        W22717   4.165  13.874   1.633 -0.0462  0.0922 -0.0146
 7587W        W22718  13.110   0.237   0.683  0.0441  0.4111  0.0563
 7588W        W22719   6.333  17.377  12.430  0.0117 -0.0842  0.2194
 7589W        W22720   8.493  16.434   6.023 -0.1483  0.2849 -0.0367
 7590W        W22721   0.611  16.121  15.109 -0.1421  0.0435  0.0556
 7591W        W22722   0.130   5.487  16.463  0.0106  0.0155  0.2406
 7592W        W22723   9.142  17.309   0.338 -0.4507 -0.0901  0.1778
 7593W        W22724  11.538   6.631  12.217 -0.0450 -0.1720 -0.5454
 7594W        W22725   4.202  10.284   2.007 -0.0870  0.0715 -0.1066
 7595W        W22726   4.706  14.772  15.730 -0.0277 -0.0406 -0.0138
 7596W        W22727  16.108   6.023   1.935  0.1613  0.3131  0.0637
 7597W        W22728  17.309  17.691   0.147  0.2342 -0.0421 -0.1747
 7598W        W22729  15.151  12.332   5.106  0.0788  0.1903  0.0122
 7599W        W22730   2.866   2.039  11.768  0.3289 -0.2585  0.2091
 7600W        W22731   9.355  11.652   2.378  0.0259  0.1026  0.3037
 7601W        W22732  12.782  12.659   4.446 -0.0371  0.1497  0.0898
 7602W        W22733   1.378   0.740   5.586  0.2411  0.1123  0.2446
 7603W        W22734  16.799  13.492  13.836 -0.1059 -0.4456 -0.1395
 7604W        W22735   3.982  11.606  15.750  0.1303 -0.0952 -0.3160
 7605W        W22736   2.792   0.537   6.344 -0.0958  0.0453  0.0266
 7606W        W22737   2.928  13.634  13.126  0.0267  0.4283  0.2518
 7607W        W22738   0.849   0.521   3.912 -0.2312  0.1116  0.4369
 7608W        W22739   4.685   2.361   2.132  0.2001 -0.1316 -0.2490
 7609W        W22740   0.010   3.741  15.032 -0.2038  0.1698  0.1834
 7610W        W22741  11.220  11.947   2.336  0.0718  0.0287  0.2033
 7611W        W22742  10.134   7.610  12.191 -0.2228 -0.0989 -0.1890
 7612W        W22743   7.363   1.356  16.319  0.1039 -0.1002  0.0238
 7613W        W22744   8.008  16.864   4.461  0.1713  0.1284  0.1423
 7614W        W22745   2.534   6.654  11.457  0.3400  0.0551  0.1993
 7615W        W22746   6.835   8.564   0.843 -0.0143 -0.1483 -0.3065
 7616W        W22747   8.788   8.412   3.866  0.4210  0.1614 -0.2867
 7617W        W22748   2.681   0.346   1.917 -0.2525  0.1048  0.0418
 7618W        W22749  12.588   2.806  13.778 -0.0237  0.1206  0.0570
 7619W        W22750  15.526  16.603   3.630  0.1562  0.1177 -0.0175
 7620W        W22751  11.669   6.712  15.431 -0.2649 -0.2481  0.0893
 7621W        W22752   8.601  12.299   1.523 -0.0944  0.2063 -0.0017
 7622W        W22753   5.565   8.741  16.318  0.1992 -0.1423  0.0048
 7623W        W22754   4.134  10.449   4.970  0.0280  0.2710 -0.1783
 7624W        W22755  16.424  12.309   4.025  0.1605 -0.0837 -0.0892
 7625W        W22756   7.683  16.481  16.619  0.1251  0.2259 -0.3593
 7626W        W22757   7.185   2.502  11.783  0.1004  0.1111  0.0290
 7627W        W22758   3.779  14.501  14.563  0.0295  0.1802  0.0473
 7628W        W22759   3.402  16.180  13.452 -0.0157 -0.0249  0.1306
 7629W        W22760  15.253  11.933  14.657  0.1127 -0.0050 -0.1478
 7630W        W22761  14.408  16.652  13.831 -0.2139 -0.3355 -0.2246
 7631W        W22762  14.069  17.425   2.744  0.0942 -0.2171  0.0888
 7632W        W22763  11.406  17.363   0.905  0.1714 -0.0187 -0.0135
 7633W        W22764  14.018   8.103   5.639  0.0990 -0.2861  0.1862
 7634W        W22765  14.990   1.472   3.633 -0.1442 -0.0373 -0.2465
 7635W        W22766  17.045  10.538  12.590  0.2937 -0.0357 -0.1549
 7636W        W22767   2.951  11.870  16.277 -0.0808 -0.2168  0.0767
 7637W        W22768   3.500  12.803   2.304 -0.1072  0.0863 -0.0929
 7638W        W22769  14.603  17.713  13.880  0.0330 -0.0438 -0.0256
 7639W        W22770  15.707   6.579  10.770  0.4007 -0.2003  0.1984
 7640W        W22771   3.273   0.961   2.341 -0.0650  0.2132 -0.0057
 7641W        W22772   1.846   3.821   3.470 -0.0404 -0.1161  0.3125
 7642W        W22773   2.526   5.998   1.156 -0.2315  0.0477 -0.0240
 7643W        W22774  16.937   8.235  11.658  0.1756  0.0254  0.0802
 7644W        W22775   2.023   0.989  11.510 -0.2909  0.0458 -0.0607
 7645W        W22776   7.628  15.358  12.539 -0.0216 -0.0839 -0.0085
 7646W        W22777   8.036  13.364  15.882  0.3047 -0.3012 -0.1288
 7647W        W22778   6.351   9.958  13.770 -0.1342 -0.1379  0.0987
 7648W        W22779  14.868  14.840  16.631  0.1764  0.0207 -0.2812
 7649W        W22780   2.614  10.563   0.602  0.0260  0.0227 -0.2553
 7650W        W22781   0.884   5.618  12.642  0.3515 -0.1731 -0.1200
 7651W        W22782   6.692  14.604  16.318 -0.1239 -0.2983  0.0586
 7652W        W22783   2.680   2.935   3.968  0.2695  0.2647  0.1101
 7653W        W22784  15.533  13.738   2.738  0.1462  0.2214  0.3332
 7654W        W22785  12.078  12.646   0.820  0.1183 -0.1234  0.1361
 7655W        W22786   1.505  12.676  15.504 -0.1310  0.0672 -0.0624
 7656W        W22787  10.715  12.437   4.063  0.4282  0.1111 -0.1021
 7657W        W22788   4.991   3.976  14.666  0.0913  0.0645  0.0628
 7658W        W22789  11.915   3.832  16.265 -0.0751  0.2993 -0.0792
 7659W        W22790   1.205   8.777  16.148  0.2119  0.0498  0.2006
 7660W        W22791  12.342   4.488   2.377  0.0917 -0.1000 -0.1415
 7661W        W22792  15.546  16.285   4.136  0.2795  0.3207 -0.0179
 7662W        W22793   0.485   2.039   4.152 -0.1241  0.0239 -0.0942
 7663W        W22794   6.747   9.768  12.267 -0.3056 -0.3082  0.0658
 7664W        W22795  17.743  12.629  13.858  0.0554 -0.2078 -0.1789
 7665W        W22796   3.668   9.435   4.072 -0.1444 -0.2137 -0.0910
 7666W        W22797  14.799   0.096  15.227 -0.0267  0.2547  0.0789
 7667W        W22798  11.850   2.816  14.430  0.0574  0.2693  0.2259
 7668W        W22799  14.171  11.867   2.910 -0.3242  0.1082  0.1162
 7669W        W22800   9.006   0.257   4.505 -0.0810 -0.1678 -0.0284
 7670W        W22801   8.717   4.192  11.345  0.0732  0.1957 -0.1303
 7671W        W22802  13.177   8.120   4.031  0.1884  0.1540 -0.0642
 7672W        W22803  10.669  11.880   3.306  0.1974  0.2227  0.1636
 7673W        W22804   1.713   4.309  16.263  0.1129  0.1072 -0.3937
 7674W        W22805   3.963  12.939  11.502 -0.1672  0.1757  0.2326
 7675W        W22806  11.219   4.031  15.484  0.1543  0.0929  0.0313
 7676W        W22807  10.856   6.377   0.984  0.0019  0.0207  0.1977
 7677W        W22808  13.070   3.181   0.977 -0.1901  0.1527 -0.3551
 7678W        W22809  11.532   0.324  14.304  0.0443 -0.2501  0.1142
 7679W        W22810  14.515  16.393   5.396 -0.0537 -0.2004 -0.2127
 7680W        W22811   7.814  15.839   6.212 -0.0920 -0.0245  0.2577
 7681W        W22812  16.922   6.696  16.619 -0.0234  0.2431  0.0701
 7682W        W22813  10.556  12.957   4.841 -0.1904  0.0109  0.2434
 7683W        W22814   3.493   5.605  16.457  0.0978  0.0814  0.1032
 7684W        W22815  11.817   8.539  14.330 -0.0040 -0.1799  0.2302
 7685W        W22816   4.454  11.818   4.926 -0.1731 -0.1079 -0.2398
 7686W        W22817  14.359  16.954  12.541  0.0335 -0.0390  0.1627
 7687W        W22818  14.887   9.281   3.271  0.0648 -0.1220 -0.0265
 7688W        W22819   3.593  17.274   1.550  0.1391 -0.0450  0.1352
 7689W        W22820  16.357  11.335   3.241  0.2720  0.3456 -0.0697
 7690W        W22821   9.476   9.628   3.592 -0.3596 -0.0847 -0.1754
 7691W        W22822  17.500   9.757   2.389 -0.1866 -0.2070  0.2171
 7692W        W22823  14.956   0.082  11.199 -0.0656  0.0342 -0.0788
 7693W        W22824  15.459   8.149  13.344 -0.1871 -0.0057  0.3098
 7694W        W22825  14.222  13.642   3.865 -0.0337  0.2314 -0.1272
 7695W        W22826   0.475   1.130  16.097 -0.0753  0.0434 -0.1585
 7696W        W22827   8.333   3.401   1.856 -0.0717  0.1013 -0.1973
 7697W        W22828   6.577  17.238  11.980  0.2004 -0.0058  0.1704
 7698W        W22829   5.662   4.599  13.587  0.0510  0.1211 -0.2512
 7699W        W22830  11.549   1.095   0.504 -0.0287  0.0936  0.1388
 7700W        W22831   4.210  16.442   3.378  0.0164  0.0017  0.1385
 7701W        W22832  13.893  13.108   5.461  0.1473 -0.0602  0.0563
 7702W        W22833  15.096   4.594  11.967 -0.1687  0.0217 -0.1909
 7703W        W22834   6.005   0.889   1.572  0.2743 -0.1936 -0.2435
 7704W        W22835   2.485   1.851   2.601  0.2766  0.0182 -0.0309
 7705W        W22836   7.761   0.944   5.151 -0.0314 -0.2801 -0.2304
 7706W        W22837  15.122   2.858  16.186  0.4709  0.0530  0.1562
 7707W        W22838   5.991  15.605   2.507  0.0992 -0.1334 -0.2267
 7708W        W22839   9.034   5.273   0.899 -0.4047  0.0742  0.3626
 7709W        W22840   1.589  13.462  14.075  0.1058 -0.2281  0.2138
 7710W        W22841   7.705   5.622  11.774 -0.1309  0.0866 -0.1080
 7711W        W22842   7.997   7.108   4.068  0.2529  0.1697 -0.1141
 7712W        W22843  12.812  17.015  13.578  0.0326  0.0978  0.0417
 7713W        W22844   0.141  17.391   5.939 -0.2671 -0.2190 -0.2720
 7714W        W22845  10.468  10.848   4.646 -0.1332 -0.1846  0.1974
 7715W        W22846  13.035   6.185   0.352 -0.0287 -0.0291  0.2178
 7716W        W22847   5.085   8.548   0.246 -0.2182  0.0720 -0.2249
 7717W        W22848  15.483  17.069   4.479  0.3444  0.1945 -0.0006
 7718W        W22849  12.912  13.869  13.789  0.1087 -0.2784 -0.2048
 7719W        W22850  13.748   2.773   4.580  0.0205 -0.0357  0.0914
 7720W        W22851  12.727  17.616   4.487  0.2418  0.1540 -0.0585
 7721W        W22852  17.781   8.592  11.667  0.3064 -0.1292 -0.0457
 7722W        W22853  14.581   1.232   5.104 -0.0599 -0.0218  0.3461
 7723W        W22854   1.703   4.122   5.235  0.1953 -0.1015  0.2031
 7724W        W22855  11.301  15.422   0.822  0.0569  0.2539 -0.1202
 7725W        W22856   4.851   3.147   3.293  0.3266 -0.0865  0.2704
 7726W        W22857  15.841   0.504  12.164 -0.0878 -0.0797 -0.0656
 7727W        W22858   9.334   5.863   4.520  0.0522  0.0760  0.0529
 7728W        W22859  10.607  15.093   1.768 -0.0843 -0.0520 -0.0065
 7729W        W22860  10.063   3.081  15.413  0.1508 -0.1850 -0.2886
 7730W        W22861   5.080   1.044  11.730  0.1781 -0.0846 -0.0227
 7731W        W22862  15.895   0.039  12.178  0.1606  0.0621 -0.0584
 7732W        W22863  12.325   4.138  12.048 -0.0232  0.0866 -0.1667
 7733W        W22864  10.109   4.940  16.222 -0.0789 -0.0196 -0.0678
 7734W        W22865   0.699   0.539   1.337 -0.1094  0.2438 -0.1001
 7735W        W22866  12.964   2.643   1.401 -0.1004 -0.2181  0.0442
 7736W        W22867  14.529  16.761   3.083  0.1245  0.1880 -0.1600
 7737W        W22868  11.966   8.183  13.707 -0.1038 -0.0784  0.0478
 7738W        W22869   9.565  15.549  13.814 -0.4772 -0.1424 -0.2484
 7739W        W22870  10.231   9.679   2.781 -0.1344 -0.1483 -0.2404
 7740W        W22871  15.111   9.168  16.072 -0.0867  0.0498  0.1654
 7741W        W22872   6.345   0.327  13.081  0.0763  0.0095 -0.1448
 7742W        W22873  10.669  16.697   0.003 -0.0222  0.0946 -0.2460
 7743W        W22874  14.509  11.416   5.732 -0.0678 -0.0384  0.5392
 7744W        W22875  13.408  15.643   1.640  0.1609 -0.0629  0.2760
 7745W        W22876   9.707   7.998  16.411 -0.0240 -0.0453 -0.0121
 7746W        W22877   9.061  16.250   1.167  0.1069 -0.1443 -0.0355
 7747W        W22878   5.985  16.118   3.858 -0.1622  0.1895  0.1272
 7748W        W22879   3.437  16.860   5.710 -0.3890 -0.0728 -0.1126
 7749W        W22880   1.433  15.665   3.753 -0.3001  0.3232  0.0777
 7750W        W22881   1.788   8.294   5.034 -0.3212  0.1408  0.1411
 7751W        W22882  13.689   8.279  14.437  0.0429  0.0659 -0.0984
 7752W        W22883  10.650   6.788   0.627 -0.0849 -0.1353 -0.1625
 7753W        W22884  15.831  11.709  13.033 -0.2281  0.1873 -0.4849
 7754W        W22885   1.107   9.086  11.731 -0.0070 -0.3351 -0.0267
 7755W        W22886   8.414   4.508   1.074  0.0287 -0.2308 -0.1335
 7756W        W22887  16.747   8.001   0.392  0.1614 -0.4934 -0.2995
 7757W        W22888  12.730  12.671  13.385 -0.1146 -0.1930 -0.4030
 7758W        W22889  17.496   2.115   5.236 -0.0531 -0.1340 -0.2743
 7759W        W22890  11.139   1.912  14.945  0.0450 -0.0730 -0.2226
 7760W        W22891  10.274  17.191  13.254  0.1214  0.0905  0.4056
 7761W        W22892   2.076   7.260  12.179  0.2360 -0.0096  0.0092
 7762W        W22893   8.170  14.859   5.339 -0.0787  0.2275 -0.1910
 7763W        W22894  15.188   1.907   0.524 -0.3606  0.0370 -0.1546
 7764W        W22895   8.795   0.889  11.099  0.3193  0.0880  0.0946
 7765W        W22896  13.809   0.401  15.575  0.1503 -0.1375 -0.2238
 7766W        W22897  11.482  16.548   5.828 -0.1262 -0.1546 -0.2208
 7767W        W22898   0.938   9.356   0.436 -0.3046  0.1510 -0.2364
 7768W        W22899   6.864  15.812  12.687  0.1002 -0.2973 -0.0288
 7769W        W22900  16.090   9.870  11.440  0.0256 -0.0073  0.2839
 7770W        W22901  15.027   3.834   4.999 -0.1475 -0.0948  0.2890
 7771W        W22902  14.623   9.717   0.430  0.0228 -0.0187  0.0948
 7772W        W22903   3.848   0.397   3.656  0.1663 -0.2386 -0.1069
 7773W        W22904  11.007  10.821   4.690  0.0576 -0.2955  0.3614
 7774W        W22905   0.253   8.667   5.915 -0.0072  0.0216 -0.0200
 7775W        W22906   7.375   7.276  13.493 -0.2157  0.0597  0.0330
 7776W        W22907  12.629   2.716   3.724  0.1342  0.0264 -0.0635
 7777W        W22908  16.809  11.084   6.782 -0.1456  0.0964 -0.4184
 7778W        W22909   1.645  10.232   4.859  0.2592  0.2269  0.0142
 7779W        W22910   1.277   8.658   3.311 -0.1292  0.3018 -0.0240
 7780W        W22911   8.658   1.286  14.421 -0.1448 -0.1323  0.0047
 7781W        W22912   8.024   7.832  11.770 -0.0507  0.2041  0.3949
 7782W        W22913  12.831   8.018  15.162 -0.0510 -0.2704  0.2847
 7783W        W22914   0.418   7.296   0.244  0.1287 -0.2235  0.2433
 7784W        W22915  17.868  12.714   3.676 -0.0500  0.3403  0.0171
 7785W        W22916   8.002   2.473  14.549  0.0725 -0.1008 -0.1440
 7786W        W22917   6.591  16.858   0.475 -0.0578 -0.1079  0.1826
 7787W        W22918   8.553   5.352   0.737  0.1882  0.2474  0.0434
 7788W        W22919  12.493   7.718  10.827 -0.1250 -0.1734 -0.2443
 7789W        W22920   0.260   7.991   2.304 -0.0488 -0.0617 -0.0670
 7790W        W22921   6.126   9.695  12.922 -0.2381  0.2069 -0.1765
 7791W        W22922   0.709  10.276  12.357  0.0339 -0.0242  0.2706
 7792W        W22923  14.756  16.053   5.152 -0.0016  0.2514  0.1068
 7793W        W22924   7.461  17.012   2.857  0.3804  0.1027  0.1295
 7794W        W22925  16.752   6.939  12.986  0.1044 -0.0489  0.0993
 7795W        W22926   2.397  10.172   1.655 -0.0739 -0.0484 -0.3658
 7796W        W22927  17.543  17.862   3.991 -0.1545 -0.0038  0.0302
 7797W        W22928  12.527  10.789   5.824 -0.0864 -0.2886 -0.0753
 7798W        W22929   1.737  17.392  16.367 -0.0703 -0.0480 -0.2859
 7799W        W22930  17.014  16.846   2.197 -0.1791  0.3377  0.1850
 7800W        W22931  15.234  16.349   0.642  0.1463  0.0496  0.0612
 7801W        W22932  11.048   5.936  11.638  0.3549 -0.4805  0.0983
 7802W        W22933  14.736   8.666  14.145  0.0482  0.2654  0.0429
 7803W        W22934   4.364  11.989   4.451 -0.1523  0.1850  0.0584
 7804W        W22935   5.815   7.388   5.030 -0.2416  0.2162 -0.1034
 7805W        W22936   4.909   9.191   2.619 -0.3001  0.0172 -0.0167
 7806W        W22937  13.090   5.222   1.587 -0.1284  0.3871  0.1195
 7807W        W22938   6.693   6.515  12.687  0.0052  0.2109 -0.1796
 7808W        W22939   6.414   3.580  15.348  0.2631  0.0816 -0.2039
 7809W        W22940   2.948  16.811   4.626 -0.0561 -0.1599  0.1134
 7810W        W22941   0.019   8.434   3.983  0.2000 -0.2758  0.2994
 7811W        W22942  16.935   3.936  15.238  0.0196  0.0968 -0.3260
 7812W        W22943  11.357   9.979   1.228 -0.2399 -0.1583  0.1038
 7813W        W22944  14.407  14.981  14.289 -0.1882  0.1323  0.0985
 7814W        W22945   3.275  14.053   2.873 -0.1415 -0.0536  0.2109
 7815W        W22946  10.406  11.245   3.907 -0.0422 -0.1937  0.2401
 7816W        W22947   0.931   9.218   2.132 -0.0897  0.0135 -0.2587
 7817W        W22948   4.566   0.736  13.641 -0.0239  0.1504  0.2827
 7818W        W22949  14.983   9.312  13.581  0.0045 -0.1829  0.0696
 7819W        W22950   9.413   3.223   5.853  0.0770 -0.1587 -0.0556
 7820W        W22951   6.080   3.482  13.599  0.3022 -0.0874 -0.0583
 7821W        W22952   8.199  14.633  11.303 -0.2025 -0.2014 -0.0618
 7822W        W22953  10.898   5.819   4.605  0.1136  0.0898 -0.0247
 7823W        W22954   8.349   8.742  12.252 -0.0713  0.0094  0.2461
 7824W        W22955  13.400   5.940  12.156  0.1374 -0.0931 -0.1878
 7825W        W22956   0.769   3.270   0.497 -0.0623 -0.1601  0.1917
 7826W        W22957   0.499   6.798   0.540  0.0941 -0.1803 -0.0358
 7827W        W22958   0.096   8.910  15.182  0.1933  0.2090  0.0687
 7828W        W22959  12.881  17.576  13.732  0.2475  0.1876 -0.2224
 7829W        W22960   8.141   5.262   3.606  0.0754  0.0770  0.0233
 7830W        W22961  15.014   8.679   5.341 -0.0694  0.0448 -0.1498
 7831W        W22962  15.258  15.501  12.360 -0.2343  0.0108 -0.2600
 7832W        W22963  16.476  12.511   4.745 -0.2715 -0.1010 -0.0785
 7833W        W22964   5.222  12.400   1.188  0.1732  0.0936  0.0398
 7834W        W22965  17.484   9.689  16.208  0.2626 -0.0627 -0.0626
 7835W        W22966   7.368   7.451  14.704 -0.0373 -0.0086 -0.1636
 7836W        W22967   2.799  15.218   0.207  0.0244  0.0568  0.3853
 7837W        W22968   8.988   4.121  12.741 -0.1017  0.1525 -0.2214
 7838W        W22969   1.667  10.741  15.428 -0.3125  0.1823 -0.1889
 7839W        W22970   2.188   8.331  14.442 -0.2544 -0.0658  0.0091
 7840W        W22971   8.571  12.188  13.299  0.4332  0.0650 -0.0698
 7841W        W22972   4.358  11.024  13.669 -0.1907  0.0317 -0.0875
 7842W        W22973   4.015   5.491  12.583 -0.0029 -0.4335  0.0685
 7843W        W22974   3.519   5.531  12.885 -0.2222  0.1704 -0.2106
 7844W        W22975   1.714  10.067   2.343 -0.1539  0.0180  0.0109
 7845W        W22976  13.422   3.531  11.733 -0.1601  0.1743 -0.2202
 7846W        W22977  13.813   7.096   3.525  0.0965  0.0803  0.0534
 7847W        W22978  10.667   8.234   0.591  0.1698  0.0938 -0.2703
 7848W        W22979  17.328   1.439   3.574 -0.0930 -0.0423 -0.0283
 7849W        W22980   4.532  16.814  16.405  0.0958  0.0815 -0.1858
 7850W        W22981   7.370  14.054  12.354 -0.0577  0.0567 -0.0948
 7851W        W22982  11.423  10.363  11.431 -0.0538  0.4960 -0.0660
 7852W        W22983  15.169   7.348   5.337  0.0683  0.1551 -0.0102
 7853W        W22984   1.027   7.185  11.648 -0.1729 -0.0591 -0.0521
 7854W        W22985  17.396   4.656   0.322 -0.0908  0.2347  0.1592
 7855W        W22986  17.299   5.490  15.725 -0.0321 -0.2012  0.1408
 7856W        W22987   8.560   9.721   4.447 -0.1398 -0.0387 -0.0400
 7857W        W22988   7.066  15.545   2.550  0.1566 -0.0016 -0.0210
 7858W        W22989  10.278   4.174  15.599  0.1075  0.0796 -0.2969
 7859W        W22990  17.286  13.400  12.359 -0.0569 -0.1000 -0.0255
 7860W        W22991  17.016  12.151  16.031 -0.3441 -0.2024 -0.3685
 7861W        W22992  15.407   1.973   6.187  0.1678  0.3195  0.2321
 7862W        W22993   2.454  15.917   5.167  0.0581  0.2118  0.4684
 7863W        W22994   1.216   8.418  12.431 -0.1680  0.3049 -0.0005
 7864W        W22995   1.066  12.566   4.175 -0.2222 -0.0923  0.1129
 7865W        W22996  17.499  12.551   5.344  0.0505  0.1563 -0.2126
 7866W        W22997  12.894   8.283   5.641  0.1453 -0.1579 -0.3175
 7867W        W22998   8.187   7.689   1.394 -0.2424  0.3688 -0.2138
 7868W        W22999   2.920   9.044  14.102  0.0473 -0.3531 -0.0166
 7869W        W23000   6.399  14.422   1.345  0.1780 -0.0022 -0.1227
 7870W        W23001  14.914   3.378  16.266  0.0851 -0.1555 -0.0626
 7871W        W23002  11.483  16.805   3.716 -0.2087  0.1854 -0.1617
 7872W        W23003   5.607   9.442   3.843 -0.1143 -0.3086  0.2409
 7873W        W23004   6.552  15.484  15.090 -0.3472 -0.0404  0.0355
 7874W        W23005   7.260  17.677   0.922 -0.2097  0.1244  0.0324
 7875W        W23006  16.650   9.919   3.487  0.0598  0.2251  0.1058
 7876W        W23007   8.228  14.163   2.316 -0.1725 -0.3288 -0.3289
 7877W        W23008  13.456  15.777  16.435 -0.0938  0.0939  0.0910
 7878W        W23009   9.938   3.321   5.066  0.0498 -0.1176 -0.0769
 7879W        W23010   1.547  14.535   3.060  0.1088  0.1558  0.0288
 7880W        W23011  16.254  10.553   5.608 -0.0818  0.1690 -0.3128
 7881W        W23012  12.088  11.335  12.551 -0.0087 -0.2756 -0.1037
 7882W        W23013  10.650  17.814  12.142 -0.1802  0.0842  0.0814
 7883W        W23014   7.743   5.094   0.725 -0.0253  0.3581  0.0363
 7884W        W23015   3.869   1.616   4.339 -0.1528  0.0673 -0.1074
 7885W        W23016   2.923   1.077  14.400  0.3375  0.1265  0.1046
 7886W        W23017   8.543  14.759   1.665  0.3222 -0.1225  0.3373
 7887W        W23018  17.856   0.261   4.340  0.1340  0.2304  0.3670
 7888W        W23019   6.797  14.437   1.641  0.0743  0.1013 -0.0944
 7889W        W23020  11.658  11.848  12.142 -0.2564 -0.0174 -0.3115
 7890W        W23021  12.949   0.100   1.724  0.3843 -0.0779 -0.1957
 7891W        W23022   0.195  15.663   4.371 -0.0900 -0.2763  0.1851
 7892W        W23023   3.151   8.729  14.427 -0.1655 -0.0955 -0.0638
 7893W        W23024  11.128   6.203   4.800 -0.4990  0.0308  0.2052
 7894W        W23025   8.796   9.979   5.895  0.0291 -0.1993 -0.0939
 7895W        W23026   2.492   4.271  15.579  0.1091 -0.1524  0.3306
 7896W        W23027  14.498  17.035  13.063 -0.0596 -0.2559  0.2843
 7897W        W23028   9.630   1.845  16.624 -0.1674  0.0008  0.0887
 7898W        W23029   2.189  11.355   3.995 -0.2848  0.0895  0.1714
 7899W        W23030   6.591  16.915   2.413  0.0048  0.1078 -0.1106
 7900W        W23031  15.415  12.499  16.459 -0.4918  0.0922 -0.1390
 7901W        W23032   4.257   3.621   2.957  0.1167  0.2468  0.0343
 7902W        W23033  16.622  13.904   0.913 -0.0114 -0.1768  0.1553
 7903W        W23034   5.996   5.168   0.950 -0.2835 -0.1597  0.0118
 7904W        W23035   2.882  13.182  13.397 -0.1161  0.0936 -0.2969
 7905W        W23036  10.336   3.727  16.569 -0.2306  0.1270 -0.1339
 7906W        W23037   6.851   6.093  16.490 -0.0624  0.1431  0.1720
 7907W        W23038  16.802   4.260  16.386 -0.0467  0.1222  0.1825
 7908W        W23039  16.856   6.965   1.537  0.0077 -0.4130  0.0535
 7909W        W23040   1.657  15.560   1.940  0.1940 -0.0318  0.0987
 7910W        W23041  13.097  16.765   0.781  0.0827 -0.1259  0.0461
 7911W        W23042  14.015  15.185  14.657  0.1481  0.0794 -0.0562
 7912W        W23043   0.472  15.512   5.212  0.0402  0.1597 -0.0122
 7913W        W23044   9.442   2.548  14.913 -0.0244 -0.0362  0.0197
 7914W        W23045  16.161   0.866  13.666  0.1031 -0.0756  0.3622
 7915W        W23046   4.615  11.369   4.621  0.0852  0.0154 -0.2061
 7916W        W23047   8.182   7.381   0.533  0.0504 -0.2539  0.1182
 7917W        W23048  15.316  17.574  11.236  0.1918 -0.2297 -0.0139
 7918W        W23049   1.669  12.299  12.116 -0.3192 -0.4109 -0.2600
 7919W        W23050   0.048  13.934   3.788 -0.0427 -0.1643  0.1491
 7920W        W23051   9.575  11.421   3.643 -0.0992 -0.3592  0.1651
 7921W        W23052   3.022  17.759  11.641 -0.3234 -0.0057  0.2006
 7922W        W23053   0.533   7.006  13.723 -0.1353 -0.2289  0.0649
 7923W        W23054   4.002   3.557  11.788  0.0518 -0.0053 -0.0191
 7924W        W23055  16.293   5.891   0.596 -0.1215 -0.0702  0.1673
 7925W        W23056   9.840   5.995   2.274 -0.2360 -0.0008 -0.0183
 7926W        W23057  11.735   9.560   0.929 -0.1024 -0.3389 -0.1320
 7927W        W23058  12.278   0.785  11.783 -0.4405 -0.1963  0.1195
 7928W        W23059   1.423  15.786   0.538 -0.1628  0.0391  0.2367
 7929W        W23060  17.047   7.403   2.331  0.2321  0.1327  0.1775
 7930W        W23061  14.946   7.963   0.800  0.0741 -0.5873  0.2604
 7931W        W23062  17.081  13.154   6.554  0.2798 -0.2023 -0.0623
 7932W        W23063   8.088   7.706   0.896  0.0346  0.0727  0.0501
 7933W        W23064  16.586   2.303   3.829  0.0047  0.0188  0.1078
 7934W        W23065   7.353  17.347  15.575 -0.1616  0.2917  0.3374
 7935W        W23066   7.429   9.038  14.862  0.1253 -0.1995  0.2285
 7936W        W23067   8.190  16.154  15.123  0.0198 -0.0651 -0.0676
 7937W        W23068   3.276   0.137  14.454 -0.0736  0.2463 -0.1139
 7938W        W23069   2.417  13.184  12.357 -0.0800  0.1057  0.1213
 7939W        W23070  15.518   1.296  16.649  0.0197 -0.1310  0.0410
 7940W        W23071   9.134  10.396   2.666  0.0827  0.0443  0.0785
 7941W        W23072   9.948   1.007   1.320 -0.0179  0.1521 -0.2871
 7942W        W23073   8.289   8.386   2.750 -0.1277 -0.3233  0.2949
 7943W        W23074   2.117  12.302   3.310  0.2870 -0.1421 -0.2424
 7944W        W23075   7.048   2.631   1.336  0.2530  0.1623  0.0349
 7945W        W23076   6.388   6.212  12.251  0.3931 -0.2082 -0.0256
 7946W        W23077   1.604  14.835  13.140 -0.0738 -0.1217 -0.0456
 7947W        W23078  12.498   2.844  12.502  0.0284 -0.0568 -0.1435
 7948W        W23079  17.293   1.827   4.034 -0.2297 -0.1691 -0.0137
 7949W        W23080  15.606   7.790   1.751  0.0670  0.0697  0.0712
 7950W        W23081  11.904   6.859  11.484 -0.0984  0.0253 -0.1890
 7951W        W23082  17.417   3.920  13.841  0.0883 -0.2071 -0.2619
 7952W        W23083  10.642  10.879  11.952  0.2054  0.0537  0.1158
 7953W        W23084   4.826   6.521   1.735  0.0742 -0.0320  0.0796
 7954W        W23085  11.700   0.212   5.325  0.1493 -0.1333  0.2617
 7955W        W23086   1.249   6.058   2.692  0.2627 -0.1895 -0.2910
 7956W        W23087   5.581   6.376   2.058  0.0612  0.3315 -0.0537
 7957W        W23088   9.676  16.656   0.921  0.1730 -0.0105  0.3962
 7958W        W23089  16.898  17.687  12.919 -0.0666 -0.2901  0.0860
 7959W        W23090   0.319   7.692  14.603  0.1066 -0.0659  0.0311
 7960W        W23091   5.562  13.905  14.214  0.1230 -0.3722  0.1614
 7961W        W23092   8.569  14.564   5.337  0.0222 -0.0813  0.0141
 7962W        W23093   7.081  13.052  13.712  0.0070 -0.1050 -0.0505
 7963W        W23094   1.486  16.526   0.117  0.0714 -0.2189 -0.0784
 7964W        W23095   1.612   6.209   1.277  0.1808 -0.0395 -0.3716
 7965W        W23096   3.199  14.955   1.054  0.1692 -0.0641 -0.0837
 7966W        W23097   6.998   1.304  14.894  0.0671  0.1995  0.1008
 7967W        W23098   7.995  10.536  14.173  0.0054 -0.1392  0.0749
 7968W        W23099   8.206   2.935  12.468 -0.4079  0.1105 -0.1898
 7969W        W23100  11.040  12.051   0.888  0.1331 -0.3122  0.0448
 7970W        W23101  17.535   6.289   4.150 -0.0416  0.0217 -0.0080
 7971W        W23102  14.982  17.237  13.204  0.0676 -0.2692 -0.2133
 7972W        W23103   3.206   7.194   2.146  0.2100  0.0085 -0.0283
 7973W        W23104   2.757   8.908   1.483 -0.0846  0.1524  0.5740
 7974W        W23105  16.758   7.299  11.558 -0.0193  0.0690 -0.0446
 7975W        W23106   4.050  13.025  15.348  0.2523 -0.0199 -0.1274
 7976W        W23107  11.948   3.253   3.399 -0.3282  0.1014 -0.2080
 7977W        W23108   4.532  15.365   4.131 -0.0031  0.0992  0.4145
 7978W        W23109   2.326  10.128   2.752  0.0942 -0.2516 -0.3784
 7979W        W23110   6.377   4.604  11.217  0.0078  0.1416  0.1225
 7980W        W23111   8.907   4.335   2.628  0.0602 -0.1273 -0.2464
 7981W        W23112  11.983   3.949   2.430 -0.1654 -0.3576 -0.2300
 7982W        W23113   9.187   9.125   0.299 -0.1815  0.1177  0.1026
 7983W        W23114  12.870   5.367   0.767 -0.2562 -0.0618  0.2124
 7984W        W23115  14.669   6.779   2.569 -0.1042  0.1702 -0.1295
 7985W        W23116  11.527   8.926   3.327 -0.1827  0.0402 -0.0561
 7986W        W23117  17.872   4.655  14.769 -0.0086 -0.1858  0.1736
 7987W        W23118  16.285  16.676   1.647  0.1519 -0.2967 -0.1903
 7988W        W23119   1.149  14.252  13.682  0.0011 -0.2196  0.0036
 7989W        W23120  14.251   5.501  11.492 -0.2549  0.0442  0.3685
 7990W        W23121   4.846  11.891   4.101 -0.0181  0.0558 -0.1428
 7991W        W23122  14.309  13.761  15.323 -0.0236  0.0173 -0.0670
 7992W        W23123   6.687  15.089  15.552  0.2409  0.2817  0.1258
 7993W        W23124   9.095  16.327   4.917  0.0236  0.0362  0.2170
 7994W        W23125   8.344  12.924   5.477  0.2002  0.3819  0.0879
 7995W        W23126   1.081   6.369   2.079 -0.4239 -0.1403 -0.1117
 7996W        W23127  14.972   9.937   3.767  0.0872 -0.1875  0.0277
 7997W        W23128   3.878   5.923   2.454 -0.1405 -0.1287 -0.0104
 7998W        W23129   5.900   1.581   2.942  0.2554 -0.0677  0.2748
 7999W        W23130   5.708   9.373  13.709  0.0264  0.3611  0.1694
 8000W        W23131  11.119  13.538   4.598  0.2725  0.0166  0.0546
 8001W        W23132   9.820  16.779  14.498 -0.1539 -0.2334 -0.2350
 8002W        W23133  10.834   3.894  12.826  0.1541 -0.0036 -0.2978
 8003W        W23134   8.273   8.668  15.280 -0.1421 -0.1426  0.0539
 8004W        W23135   7.323   6.365   4.616  0.0965  0.3362  0.0529
 8005W        W23136  17.301  16.745   3.047 -0.0108 -0.2184 -0.1007
 8006W        W23137   6.786   3.567   3.270  0.3260  0.0886  0.1238
 8007W        W23138   6.959   0.558  15.333  0.0354  0.3297 -0.2896
 8008W        W23139  10.282   7.515   3.127 -0.0466 -0.1405  0.0915
 8009W        W23140   5.632  10.495   0.184 -0.4316 -0.1337  0.0878
 8010W        W23141  17.474   1.318   1.926 -0.0602 -0.1625  0.1051
 8011W        W23142  17.283  17.397  13.189 -0.0841 -0.0780  0.2696
 8012W        W23143   5.600  15.108  14.977  0.1616 -0.1012 -0.1037
 8013W        W23144   6.708  17.778  13.944  0.1658 -0.0811 -0.3491
 8014W        W23145  16.379   4.643  12.567 -0.1757 -0.2888  0.4318
 8015W        W23146  16.443   1.430  14.220  0.0849  0.0938  0.0541
 8016W        W23147   9.383   2.619  16.748  0.3092  0.1849 -0.3171
 8017W        W23148   2.204  17.060  14.098  0.3017  0.0054  0.0681
 8018W        W23149   9.800  11.894   0.895 -0.3351 -0.1398  0.1167
 8019W        W23150  10.848   3.277  11.111  0.0417  0.2176  0.2591
 8020W        W23151   1.885   0.243  14.712  0.1896 -0.2164  0.1295
 8021W        W23152  15.536   8.690   3.558 -0.1292  0.1398  0.0387
 8022W        W23153   0.388   1.817  14.045 -0.1114 -0.3219 -0.0874
 8023W        W23154   2.368   0.200   0.349  0.0140 -0.1602 -0.0688
 8024W        W23155   3.974   1.843  15.735  0.0963 -0.3243  0.1009
 8025W        W23156  16.985   7.476  12.035 -0.0501  0.0223 -0.2752
 8026W        W23157  13.976  17.102  12.241  0.1532 -0.1214  0.2289
 8027W        W23158   9.876   1.940  14.438  0.2388 -0.1540 -0.1893
 8028W        W23159   0.720   3.501  12.547  0.0630 -0.0454  0.1352
 8029W        W23160  12.544  17.311   0.813  0.3590 -0.1636  0.1452
 8030W        W23161   4.447  12.834   5.173  0.0926 -0.2029 -0.2721
 8031W        W23162   2.185   1.088  16.480  0.0049  0.2274  0.0755
 8032W        W23163  13.799   6.145   4.896 -0.2128  0.0691 -0.1309
 8033W        W23164   9.033   3.544  13.925 -0.0960 -0.1143 -0.1071
 8034W        W23165   0.144  14.319   1.949  0.2208 -0.1323  0.1816
 8035W        W23166   6.356   6.322  14.297 -0.0539 -0.0620  0.2966
 8036W        W23167   8.472  13.590   3.617  0.2081 -0.4076  0.2614
 8037W        W23168  13.767  14.174   3.731 -0.0936 -0.0614 -0.1365
 8038W        W23169   6.604   4.888  12.069 -0.2066  0.0056  0.0866
 8039W        W23170  11.066   2.021  14.461  0.0680  0.0390  0.0869
 8040W        W23171   4.844  11.799   0.010  0.0666  0.0294 -0.1464
 8041W        W23172   8.308   6.150  12.177  0.0481  0.2502  0.1191
 8042W        W23173  12.360   3.005   0.272  0.1754  0.0868  0.0125
 8043W        W23174   0.579  10.687   5.989 -0.2128 -0.0540 -0.2135
 8044W        W23175   8.000   0.197   0.416  0.1664  0.2088  0.0664
 8045W        W23176   8.520  12.243   4.162 -0.0426  0.1469 -0.0194
 8046W        W23177  11.574   2.815   3.346 -0.0605  0.1674  0.4184
 8047W        W23178   5.684  15.008   2.692 -0.0551  0.1382  0.2865
 8048W        W23179  14.977  12.742  11.355  0.0073 -0.0676 -0.1386
 8049W        W23180   8.112   7.187   5.289  0.0504 -0.1001  0.2224
 8050W        W23181   6.718   7.029   5.981  0.1416 -0.0962  0.4059
 8051W        W23182  14.206  14.251   4.514 -0.1701 -0.1418  0.1465
 8052W        W23183   4.198   4.496  10.894  0.1842  0.2372 -0.3360
 8053W        W23184  16.811   0.360   4.294  0.1446  0.4666 -0.0194
 8054W        W23185   5.891  16.556  16.392 -0.3750 -0.2214  0.2166
 8055W        W23186  11.815   8.990  15.258 -0.2707 -0.0553  0.1960
 8056W        W23187  14.274  13.608  11.409  0.0118 -0.0025 -0.0882
 8057W        W23188  13.417   9.257   2.267 -0.2989 -0.2040 -0.0797
 8058W        W23189  17.094   4.321   1.262 -0.0697  0.1611  0.3953
 8059W        W23190   2.721   2.279   1.378  0.1354  0.0602 -0.0446
 8060W        W23191   5.286   1.555   1.300  0.1178  0.1209 -0.4001
 8061W        W23192   0.595   7.852  15.968 -0.3885 -0.1815 -0.1109
 8062W        W23193   5.174  13.494  11.362  0.1052 -0.2074 -0.0275
 8063W        W23194  14.058   4.592  15.170 -0.0778  0.2931 -0.2365
 8064W        W23195  11.768  17.086   0.685  0.1756  0.1508  0.1471
 8065W        W23196   6.846   7.967   6.304  0.1173 -0.1679 -0.0107
 8066W        W23197   6.817  12.913   1.207 -0.0902 -0.4702 -0.1933
 8067W        W23198   2.599  15.137   2.249 -0.1127  0.0478  0.0381
 8068W        W23199   0.302  11.941   1.224 -0.2846  0.0020 -0.0138
 8069W        W23200   3.126  14.679  14.001  0.0215  0.0273 -0.3168
 8070W        W23201  16.188  15.138   0.388  0.0114  0.0542  0.2834
 8071W        W23202  16.307   1.240   1.306 -0.0713 -0.0029  0.0099
 8072W        W23203  10.693  17.818  10.641  0.2376  0.1392  0.1050
 8073W        W23204  17.692  16.350   6.288 -0.3054  0.1172  0.1132
 8074W        W23205   0.820  17.564   0.962 -0.0265  0.1443 -0.2352
 8075W        W23206   2.170   6.346   3.769 -0.0666 -0.0507 -0.0111
 8076W        W23207  12.184   1.359  13.420  0.2536  0.0008  0.0401
 8077W        W23208  17.184  12.818   0.853 -0.1402 -0.0163 -0.0506
 8078W        W23209  14.149   1.599  16.499  0.2527 -0.1906  0.2300
 8079W        W23210  13.460   3.405   2.409  0.0315 -0.1597  0.1495
 8080W        W23211  10.553  10.673  15.059  0.0849  0.1898 -0.2716
 8081W        W23212   2.627   0.652   2.322 -0.2481  0.1558 -0.1432
 8082W        W23213   4.481   6.026  14.383  0.2912  0.1086 -0.0053
 8083W        W23214  16.226  15.722   1.877 -0.1016 -0.1871  0.0706
 8084W        W23215   7.795   6.604  15.100 -0.0181 -0.0310 -0.0792
 8085W        W23216  11.571   1.861   3.284  0.0348 -0.3223 -0.0510
 8086W        W23217  10.743   7.385  15.055  0.1337  0.0645  0.0511
 8087W        W23218  15.861  16.358  15.028 -0.1189 -0.1474 -0.1055
 8088W        W23219  10.506  15.271  11.530  0.0421 -0.1721 -0.2004
 8089W        W23220  12.670  16.328  15.763 -0.0769 -0.0552  0.0050
 8090W        W23221   7.567  12.030  14.483  0.0847  0.1097  0.0217
 8091W        W23222  10.864  14.843  12.303  0.0507  0.1091 -0.1054
 8092W        W23223   9.497   3.384   5.377 -0.0215 -0.2548 -0.1421
 8093W        W23224   5.567   6.517   4.805  0.1936 -0.0572  0.0283
 8094W        W23225  10.559   6.630   4.245 -0.1693 -0.4309 -0.2439
 8095W        W23226  12.529   6.983   1.031  0.1759  0.2255  0.1810
 8096W        W23227  15.976   1.905  16.063 -0.0084 -0.1693 -0.1983
 8097W        W23228  10.140   9.575  15.825 -0.1135  0.0268  0.2468
 8098W        W23229   2.275   0.888  11.924  0.1867 -0.1110  0.1009
 8099W        W23230   2.477  12.112  14.212 -0.1223  0.1655 -0.1229
 8100W        W23231  14.086  14.305   0.024  0.1402  0.0536  0.1566
 8101W        W23232  17.811  16.576   1.368  0.1256  0.1933 -0.2033
 8102W        W23233   8.876   3.913   2.912  0.0616  0.2199  0.1908
 8103W        W23234   1.023   3.815   3.773 -0.4040  0.5430  0.2706
 8104W        W23235  16.367  17.628  13.022  0.2977  0.1117  0.1025
 8105W        W23236   1.357   2.201   4.202 -0.0491 -0.2157 -0.3991
 8106W        W23237   9.182  16.148   4.439  0.0665  0.0781  0.2038
 8107W        W23238  14.202   0.105   3.935 -0.0282  0.1058 -0.0671
 8108W        W23239   4.757   4.912  12.172  0.0356 -0.1903  0.3753
 8109W        W23240  16.509   5.980  12.866  0.0287  0.2066 -0.2348
 8110W        W23241   2.776  16.279  16.661  0.0805 -0.0776 -0.0265
 8111W        W23242   3.403   2.846   2.112 -0.2755 -0.0833  0.1739
 8112W        W23243   9.204   2.149  16.584 -0.1431  0.1626  0.2084
 8113W        W23244   9.651  10.938  13.955  0.2720  0.0321  0.0847
 8114W        W23245  11.426   5.075  15.387 -0.2225  0.2433  0.1219
 8115W        W23246   6.682  14.565   3.707 -0.1195 -0.0688 -0.0737
 8116W        W23247   8.789   9.286   4.227 -0.1900  0.1646  0.2519
 8117W        W23248   3.395   4.662   2.738 -0.0492  0.1000 -0.1838
 8118W        W23249   3.265  16.075  16.662 -0.0248  0.2263  0.0310
 8119W        W23250   7.015   2.556  13.577 -0.3190 -0.1352  0.0251
 8120W        W23251  13.863  10.968   1.108  0.2430 -0.2979 -0.1789
 8121W        W23252   6.229  15.483  12.310  0.0697 -0.0959 -0.0181
 8122W        W23253  11.800   6.000  14.667  0.2529  0.0495 -0.2029
 8123W        W23254  12.687   2.355  15.498  0.0878 -0.2659 -0.1112
 8124W        W23255  14.012   2.363  15.744 -0.0825 -0.2273 -0.3614
 8125W        W23256   9.919  13.007   1.955  0.0865  0.2012 -0.1317
 8126W        W23257   5.423  14.918  13.249  0.2062 -0.2887 -0.1555
 8127W        W23258  12.545  11.847   3.941  0.0806 -0.1537  0.2860
 8128W        W23259  15.879  16.433   1.583 -0.0598 -0.2239  0.3519
 8129W        W23260   6.464  15.834   3.778  0.1033  0.1629 -0.0369
 8130W        W23261  11.710   4.834  15.091  0.0486 -0.2072  0.1593
 8131W        W23262   5.270   4.549   5.530  0.3339 -0.0308 -0.3765
 8132W        W23263   9.406   5.635  16.164 -0.0797 -0.0692  0.0582
 8133W        W23264  10.145   1.597  15.442  0.1272  0.1812  0.1094
 8134W        W23265  12.153  11.613   9.965  0.0010  0.1583 -0.0785
 8135W        W23266   5.304  17.205  16.672 -0.3544  0.1761 -0.1822
 8136W        W23267   0.494   9.528   4.505  0.1330 -0.0334 -0.2527
 8137W        W23268   0.283   8.963  14.660  0.0530  0.1305 -0.0850
 8138W        W23269  17.865   1.405  12.098 -0.0393  0.0663 -0.0818
 8139W        W23270   4.284  15.333  13.436 -0.0094 -0.4281  0.2594
 8140W        W23271   8.732  16.326  15.097  0.0671 -0.0879 -0.2112
 8141W        W23272   5.640   6.753  14.433  0.3790 -0.2171  0.0325
 8142W        W23273  11.703   5.363   0.111  0.2645 -0.0712  0.1487
 8143W        W23274   8.262   4.408  12.486  0.0416  0.2090 -0.2954
 8144W        W23275  14.060  17.646   5.390 -0.0023  0.4964 -0.4738
 8145W        W23276   8.206  15.015  14.649 -0.3020  0.1231  0.0123
 8146W        W23277   6.882  11.180  15.320  0.1927  0.2512 -0.0999
 8147W        W23278  17.788   7.856  14.317 -0.2819  0.3318 -0.1935
 8148W        W23279   1.308   8.594   1.481 -0.1502 -0.3054 -0.3736
 8149W        W23280  13.444  13.563  15.774 -0.2135 -0.1713 -0.0481
 8150W        W23281  10.465  13.379  14.878  0.0711 -0.0735 -0.2059
 8151W        W23282  10.682   6.977   5.044 -0.0215  0.0648 -0.0600
 8152W        W23283   7.727   0.348   4.224 -0.1224  0.1985  0.2308
 8153W        W23284   6.557   8.160   2.539  0.1976  0.0604  0.0330
 8154W        W23285  15.127  14.983  16.166 -0.1285  0.0075 -0.0549
 8155W        W23286  12.481  15.091   0.928 -0.0283 -0.2545  0.1251
 8156W        W23287   7.746  15.348   6.041  0.2300  0.1344 -0.1639
 8157W        W23288   9.541   5.348  15.645 -0.0066  0.0180  0.1498
 8158W        W23289  12.303  12.879  14.692 -0.2146  0.1077  0.0242
 8159W        W23290  15.767  13.614   4.308 -0.1037  0.1224 -0.1885
 8160W        W23291  10.693   7.504   5.258  0.1275  0.0953  0.2318
 8161W        W23292  15.461   8.152  15.950 -0.0735  0.0929 -0.0789
 8162W        W23293  14.988  16.066   3.337 -0.0876  0.1260  0.0970
 8163W        W23294  17.232   2.199  14.341  0.1586 -0.0334 -0.0383
 8164W        W23295   3.561   2.305   3.753  0.1174  0.3733  0.2740
 8165W        W23296   4.832   2.693  15.877 -0.1922  0.1502 -0.0482
 8166W        W23297   4.664   1.237  11.635  0.2310  0.0656  0.0185
 8167W        W23298  10.968   3.157   2.712  0.2340 -0.1549  0.2194
 8168W        W23299  15.022  15.549   5.269  0.1346 -0.3347  0.0176
 8169W        W23300  16.208  10.578  16.027 -0.0965 -0.0606 -0.2938
 8170W        W23301  16.989   1.634  16.656  0.2121  0.1128  0.2708
 8171W        W23302   5.050  14.833   6.492 -0.0242  0.1695 -0.1625
 8172W        W23303  14.732  16.670   4.585  0.0675 -0.4745  0.1758
 8173W        W23304   2.827   0.051   6.541 -0.1007 -0.1523 -0.0566
 8174W        W23305  17.781   1.393   5.228 -0.3422  0.2287  0.0826
 8175W        W23306   1.733   8.364  13.481 -0.3393  0.3498 -0.1873
 8176W        W23307   8.952  13.592   1.799  0.1368  0.0308 -0.0760
 8177W        W23308   7.824   0.499  12.158  0.1127  0.1471 -0.1006
 8178W        W23309   4.948   8.610   3.820  0.0049  0.0002 -0.1498
 8179W        W23310  14.870  17.724   4.853 -0.0046  0.1060 -0.2755
 8180W        W23311   2.115   5.054   2.681  0.0540 -0.2635 -0.1180
 8181W        W23312  11.093   9.951  11.418  0.0810 -0.2173  0.1048
 8182W        W23313  10.515   6.805  16.162 -0.1829  0.3162 -0.1294
 8183W        W23314  12.679   1.046   5.175 -0.1263  0.2011  0.1001
 8184W        W23315  12.464  10.487   1.998  0.2810 -0.0430 -0.1757
 8185W        W23316   6.613   8.380   4.597 -0.1550 -0.0690 -0.2895
 8186W        W23317   8.350  16.192  13.395 -0.2192  0.1035  0.3075
 8187W        W23318   7.067  13.726   0.480 -0.3165  0.0886  0.1246
 8188W        W23319   5.462   0.138   4.763  0.1515 -0.1884  0.0729
 8189W        W23320   8.533   8.529  16.167 -0.0465  0.1182  0.3295
 8190W        W23321   9.782   2.262  11.827  0.4115 -0.0030  0.0238
 8191W        W23322  12.397   0.581  12.271 -0.0931 -0.0430 -0.1252
 8192W        W23323   5.003   7.735   4.919  0.0572 -0.0509  0.0621
 8193W        W23324  13.231  15.295  12.608  0.0967 -0.1336 -0.2301
 8194W        W23325   0.897   5.480   0.552 -0.2919  0.0039  0.1217
 8195W        W23326  12.889   9.381  16.463  0.0354  0.0317  0.0600
 8196W        W23327  16.398   3.419  11.976  0.0386  0.0492  0.0624
 8197W        W23328   4.837  15.629  16.028 -0.0242 -0.1854 -0.0072
 8198W        W23329  11.475   3.255   1.951  0.1041 -0.3248 -0.1463
 8199W        W23330  16.749  11.308   3.608  0.0555 -0.2834  0.0874
 8200W        W23331  16.390  11.128  16.319 -0.0124 -0.2433  0.0252
 8201W        W23332  15.304   3.729  16.251 -0.2349  0.5284 -0.1912
 8202W        W23333   2.265   4.202   0.006 -0.2170 -0.1561  0.0792
 8203W        W23334   4.649   1.206  13.916  0.1589 -0.0876  0.4477
 8204W        W23335  10.478   0.127   5.518  0.0670  0.3051 -0.2636
 8205W        W23336  12.956  12.406  10.445 -0.0950  0.0463 -0.1945
 8206W        W23337  16.122  17.081  14.827  0.0273  0.2143 -0.3881
 8207W        W23338  14.331   7.892   3.361 -0.2161 -0.3295  0.1040
 8208W        W23339   5.312  17.171  11.232 -0.2543  0.1899  0.1592
 8209W        W23340  14.344  15.076   5.781 -0.0039  0.3484 -0.0088
 8210W        W23341  14.376   8.355   0.400 -0.0455 -0.1465  0.0817
 8211W        W23342   6.137   3.689   4.435  0.2577  0.4332  0.1614
 8212W        W23343   3.882  17.782   3.524 -0.0189  0.2639  0.0175
 8213W        W23344  10.818  16.424   0.400 -0.1497  0.2719  0.0886
 8214W        W23345   4.611   9.417  14.115  0.1025  0.0513 -0.1888
 8215W        W23346   3.583  16.117   0.738 -0.2640  0.0148  0.0385
 8216W        W23347   7.107   9.899   1.778  0.0203  0.0327  0.2631
 8217W        W23348  14.325  11.200   6.122  0.3767 -0.1922  0.2050
 8218W        W23349   1.763  17.756   3.428  0.2395  0.4148  0.1613
 8219W        W23350  15.917   3.520   0.306 -0.0597 -0.1383 -0.0701
 8220W        W23351  15.017   0.633   4.238  0.0235  0.1476  0.4016
 8221W        W23352   3.201   8.254  15.732 -0.0105  0.0488  0.4933
 8222W        W23353   4.168   7.109   5.104  0.1676 -0.3328  0.1762
 8223W        W23354   8.782   2.748   0.588 -0.2961  0.4781 -0.2541
 8224W        W23355   9.082   3.764  13.098  0.0755  0.0079  0.1636
 8225W        W23356  13.005  12.521  15.352  0.0928 -0.1217 -0.2257
 8226W        W23357   7.892  12.074  15.484 -0.0441 -0.2620 -0.1405
 8227W        W23358   8.807   6.760   5.088 -0.3406  0.0614  0.2408
 8228W        W23359   0.874   2.267   3.405  0.1225  0.1410  0.0802
 8229W        W23360   3.813   1.701   2.714  0.0393  0.2227 -0.0470
 8230W        W23361  15.028  13.143  11.655  0.2730 -0.0528 -0.0657
 8231W        W23362   9.597   3.917  12.836  0.2012 -0.0005  0.0443
 8232W        W23363  10.864   9.957  15.161 -0.0193 -0.0924  0.1715
 8233W        W23364   3.099  15.448   4.494  0.0199 -0.1448  0.3097
 8234W        W23365   2.603   5.480  15.096  0.1944 -0.0269  0.1464
 8235W        W23366   8.228   9.616  14.756  0.0230  0.4142  0.1220
 8236W        W23367   0.391  10.561   3.471 -0.2080 -0.0420 -0.1498
 8237W        W23368   6.778   4.981   0.485 -0.3852 -0.0472 -0.3094
 8238W        W23369   2.546  16.189   0.370  0.2145 -0.2026 -0.2385
 8239W        W23370   6.725   7.018  15.665 -0.0187 -0.0766  0.1817
 8240W        W23371  16.186  15.977  15.178 -0.0853  0.2746 -0.0015
 8241W        W23372   7.538  12.628  15.469  0.0969 -0.0124  0.2581
 8242W        W23373  15.478   2.263  15.328 -0.0775 -0.3051 -0.1106
 8243W        W23374  15.326   8.024   4.163 -0.0581  0.0100 -0.2484
 8244W        W23375  13.794  13.658   2.290 -0.0877 -0.3100 -0.0535
 8245W        W23376   2.216   5.501   1.763 -0.1390 -0.4187  0.1385
 8246W        W23377   9.800   4.093  11.497 -0.1470 -0.0515 -0.0231
 8247W        W23378   1.502   7.509   5.467  0.0655 -0.1434  0.0159
 8248W        W23379   7.628   8.309   6.112 -0.1087  0.0457 -0.1402
 8249W        W23380   8.332   2.986  13.070  0.1710  0.0051  0.0836
 8250W        W23381   7.734  13.169   0.102  0.0029 -0.0622  0.0454
 8251W        W23382   1.407  14.916  14.968 -0.2499 -0.4483 -0.1568
 8252W        W23383  13.841   3.840  13.745  0.0947  0.0674 -0.0231
 8253W        W23384   5.106  16.710   4.924  0.3196  0.1285  0.0694
 8254W        W23385  12.908   1.181   0.797  0.0321  0.2790 -0.1172
 8255W        W23386   1.480   9.604   0.546 -0.1178  0.0762  0.0883
 8256W        W23387   5.982   4.365  14.668 -0.1393  0.1949  0.1682
 8257W        W23388  14.370  12.919   2.194  0.1032 -0.2710 -0.1179
 8258W        W23389  12.074  15.046  12.322 -0.2043  0.3778  0.1963
 8259W        W23390  12.768  16.375   0.056  0.0083 -0.1402 -0.0101
 8260W        W23391  12.987  13.592   4.739  0.1266  0.0850 -0.2140
 8261W        W23392  10.523  12.421  11.936  0.0519  0.1790  0.1058
 8262W        W23393   2.636  10.236  16.672  0.0352  0.0083 -0.3660
 8263W        W23394  12.713   5.317   1.296  0.1305 -0.1200 -0.1221
 8264W        W23395   0.333   3.238   2.409 -0.1506 -0.0972  0.2058
 8265W        W23396  16.715  11.736  13.558  0.2637 -0.1720 -0.1198
 8266W        W23397  17.405  16.085   0.176  0.0068  0.0596 -0.1141
 8267W        W23398   5.272   1.547  14.420 -0.1492 -0.0208  0.0245
 8268W        W23399   1.097   8.981  13.653 -0.2851 -0.4752 -0.0247
 8269W        W23400   8.292   9.208   4.826 -0.1548  0.3750 -0.1381
 8270W        W23401   4.701  17.181  15.467  0.0044 -0.1137  0.5453
 8271W        W23402  15.893  11.116   3.073 -0.1956  0.1217 -0.0325
 8272W        W23403   6.259  17.753   3.980  0.0719 -0.2148 -0.0193
 8273W        W23404  13.730  13.597   5.163 -0.0034  0.2618 -0.0013
 8274W        W23405   7.793  16.534   0.672  0.0493  0.0258  0.2785
 8275W        W23406   3.181  14.920   5.454 -0.2116 -0.0276  0.0515
 8276W        W23407   5.363  10.748   0.583 -0.0587 -0.0018 -0.1854
 8277W        W23408  13.759  16.167  15.074 -0.4194  0.2272  0.0669
 8278W        W23409  10.191   1.813  14.958  0.0751  0.2104 -0.0784
 8279W        W23410   3.695  16.295  12.518  0.0498 -0.1282  0.0326
 8280W        W23411   8.918  16.420  12.390 -0.0459 -0.1206 -0.0286
 8281W        W23412  14.311   6.825   3.420 -0.0574  0.2451 -0.0365
 8282W        W23413   7.694   6.081  16.472 -0.1719  0.2527  0.1141
 8283W        W23414   0.232   5.852   3.032  0.0865  0.3612 -0.0445
 8284W        W23415   1.905   7.857   0.421  0.0135 -0.0747  0.0488
 8285W        W23416   5.914   9.649  16.595  0.0346 -0.2540  0.0920
 8286W        W23417   0.526  10.958   4.540  0.1261 -0.1986 -0.1982
 8287W        W23418  13.348  13.304   4.897 -0.2296 -0.3611 -0.1284
 8288W        W23419   8.476   2.642  13.708 -0.0279 -0.0373 -0.0766
 8289W        W23420  15.372   9.805  13.313  0.2103  0.1557  0.2017
 8290W        W23421   7.317   7.640   4.413 -0.3276 -0.2724  0.0796
 8291W        W23422  11.721  15.657   2.684 -0.2295 -0.0142 -0.1886
 8292W        W23423   9.153   9.166  12.497  0.1543 -0.0442  0.0865
 8293W        W23424  10.331  15.059   2.175  0.1871 -0.0191 -0.3332
 8294W        W23425  16.216   4.235  16.250  0.1811  0.0823 -0.1314
 8295W        W23426  14.270  12.107   5.299  0.0900 -0.0488  0.1365
 8296W        W23427  14.382   6.535  11.740  0.1430  0.2217 -0.0183
 8297W        W23428   7.140  10.949   5.910  0.0119  0.0780  0.3287
 8298W        W23429  17.686   5.657  13.932  0.0952  0.2716 -0.0810
 8299W        W23430  17.455  11.772  15.626  0.1365 -0.3430  0.0628
 8300W        W23431  10.737  17.111   5.634  0.3542  0.0424 -0.3277
 8301W        W23432  10.920   2.021  12.821  0.1786  0.0312 -0.2818
 8302W        W23433   4.242  16.496  16.761  0.1186  0.0136 -0.0273
 8303W        W23434  17.301  13.727   0.464  0.1659 -0.1525 -0.3191
 8304W        W23435   5.709   6.761  15.677  0.0194  0.0225 -0.0137
 8305W        W23436  16.300  12.087  12.235 -0.1358 -0.1163  0.0560
 8306W        W23437  15.116  13.017   2.719 -0.0898 -0.1476 -0.1227
 8307W        W23438   6.262  16.148  15.946 -0.2563  0.0179 -0.0616
 8308W        W23439   2.766   6.283   1.594 -0.2219  0.1154 -0.0035
 8309W        W23440  12.834   3.783   1.916  0.2242 -0.4069 -0.0382
 8310W        W23441  10.158  12.473   5.659 -0.3595 -0.3110 -0.1140
 8311W        W23442   5.537  15.116   5.094  0.1723  0.1163 -0.0062
 8312W        W23443   2.926  10.235  15.604  0.2865  0.0094 -0.2242
 8313W        W23444   1.222  13.049   4.926  0.0758 -0.1396  0.0870
 8314W        W23445  11.794   3.612   4.286 -0.0351  0.1347  0.1701
 8315W        W23446  15.294   3.045   2.143  0.0813 -0.0536  0.2357
 8316W        W23447   3.026  17.100  15.436 -0.1395  0.1907 -0.2063
 8317W        W23448  14.278   5.762  15.992  0.1738  0.0848  0.0504
 8318W        W23449   6.481  17.722   4.498  0.0363 -0.1278 -0.0890
 8319W        W23450   9.232  11.972  16.118 -0.1393  0.1631  0.1991
 8320W        W23451   6.307   6.920  13.026  0.0751  0.2440 -0.1606
 8321W        W23452  12.417   5.434   2.600 -0.1702 -0.1931  0.0160
 8322W        W23453   7.859   1.239   2.944  0.2103 -0.0197 -0.0286
 8323W        W23454   7.277   3.512   1.494 -0.0550  0.2435 -0.2187
 8324W        W23455  15.402   4.194   4.966  0.1423  0.0563 -0.1122
 8325W        W23456   9.756   3.175  12.417 -0.3080 -0.0152 -0.0219
 8326W        W23457   4.685  12.393  14.484 -0.0453  0.1559  0.0075
 8327W        W23458  13.448   1.099  14.495 -0.0149  0.0801  0.2284
 8328W        W23459  17.590  11.506  12.046  0.1863 -0.0085  0.0591
 8329W        W23460   8.472   7.946   5.197 -0.1380  0.0923  0.2644
 8330W        W23461   5.968   8.423   0.745  0.2041 -0.0608 -0.0066
 8331W        W23462  12.929   0.918  13.050 -0.0428  0.2082  0.1923
 8332W        W23463  14.724   3.863  13.000  0.1580 -0.2986 -0.1895
 8333W        W23464   0.511  16.415   5.156 -0.2856 -0.0543 -0.0509
 8334W        W23465  14.710   5.596  11.641  0.0567 -0.1360 -0.1812
 8335W        W23466   7.162   1.951  10.100  0.0662 -0.0040 -0.1738
 8336W        W23467   8.610   7.726   5.729  0.2083  0.0312  0.0726
 8337W        W23468  14.434  13.978  11.072  0.0075  0.3290  0.1305
 8338W        W23469  11.394  12.255  11.983 -0.1141  0.1355 -0.1254
 8339W        W23470   4.730  13.673   3.415 -0.1038  0.1529 -0.2859
 8340W        W23471   6.390  16.624   1.345 -0.0686 -0.1930 -0.0833
 8341W        W23472   8.119   1.815   4.965  0.2317  0.0111  0.2347
 8342W        W23473   3.364   3.848  16.526  0.3852  0.0890  0.0048
 8343W        W23474  12.183  13.210  15.039  0.3571 -0.0946  0.1608
 8344W        W23475  13.615   2.331  13.347 -0.0827 -0.0484 -0.2132
 8345W        W23476   5.206  14.807   5.188  0.0990 -0.1743  0.0729
 8346W        W23477   7.615  17.636   1.280 -0.1895  0.0686  0.2625
 8347W        W23478   6.806  14.877  14.583 -0.0700 -0.1222  0.2167
 8348W        W23479  10.408   2.497   3.591  0.2358  0.2172 -0.1512
 8349W        W23480   2.340   9.169  14.071 -0.0036 -0.0114 -0.0674
 8350W        W23481   3.654   1.344  15.023 -0.2460  0.2328  0.1316
 8351W        W23482  11.085   6.737  12.016 -0.2534 -0.1419 -0.0037
 8352W        W23483   0.381  12.452   2.112  0.2039  0.0184  0.1229
 8353W        W23484  10.578  17.292   1.343  0.1553  0.0606  0.0034
 8354W        W23485  11.013  15.055  15.394  0.0892 -0.1377  0.3146
 8355W        W23486   9.598   4.958  12.835 -0.1274  0.1274  0.0317
 8356W        W23487   5.356   2.231   0.824 -0.3466 -0.0459  0.0668
 8357W        W23488  11.469  16.458   1.103  0.0219  0.0224  0.6444
 8358W        W23489  15.716   1.527   4.473  0.0097  0.2744 -0.0808
 8359W        W23490   5.131   5.327  10.929 -0.1150  0.1645  0.3490
 8360W        W23491  11.157  15.034   3.174 -0.1603 -0.1433 -0.2702
 8361W        W23492   0.407   5.306   0.685  0.0077  0.1458 -0.0103
 8362W        W23493   3.313   1.836   2.508 -0.0382  0.1609 -0.2052
 8363W        W23494   0.631  10.451  13.588  0.1685 -0.3110  0.1793
 8364W        W23495   2.321   6.567  13.488  0.1448 -0.0727  0.2415
 8365W        W23496   9.178   3.577   3.417  0.1160  0.2308  0.2528
 8366W        W23497   3.541   7.542  14.557  0.2205 -0.1686 -0.1472
 8367W        W23498   3.516  11.564   1.777 -0.3856  0.0749  0.2067
 8368W        W23499   5.683   2.322   3.988 -0.2062  0.4037 -0.0652
 8369W        W23500  14.780   0.802  14.479  0.1242  0.2326 -0.1463
 8370W        W23501  14.539   0.348   0.847  0.0096 -0.0121 -0.1031
 8371W        W23502   3.887   9.412   5.071  0.1071 -0.0059  0.3351
 8372W        W23503  16.243   1.175   0.333  0.3041 -0.0893  0.0182
 8373W        W23504   9.961   2.609   2.203  0.1572 -0.1818  0.0748
 8374W        W23505   6.614   7.521   5.854 -0.0386  0.2540 -0.0254
 8375W        W23506  14.635   5.508  14.220  0.2064  0.1687  0.1530
 8376W        W23507   6.426   4.076   1.735 -0.2129  0.0987  0.1193
 8377W        W23508   8.005   6.438   0.933  0.1213  0.1996 -0.0088
 8378W        W23509   2.078  14.564  12.651 -0.0091  0.2500  0.1829
 8379W        W23510   1.875  17.347   0.111 -0.1162  0.2516 -0.2248
 8380W        W23511   6.905  15.180  11.840  0.0969  0.2723 -0.0318
 8381W        W23512  14.921   9.677  11.834 -0.0004  0.1073 -0.1469
 8382W        W23513  13.855  15.589  15.940 -0.1044 -0.0165  0.2388
 8383W        W23514   4.983  10.185   4.708 -0.3588  0.1010  0.2009
 8384W        W23515   5.401   1.542   5.588  0.0416  0.0907 -0.0531
 8385W        W23516  11.572  11.419   3.449  0.2146  0.1220 -0.0747
 8386W        W23517  17.832   7.375   1.019 -0.2027 -0.0856  0.1583
 8387W        W23518  17.643   3.283   3.563 -0.0360 -0.1808 -0.1899
 8388W        W23519   7.939   6.297   1.436 -0.0832 -0.0496  0.0180
 8389W        W23520  11.242  12.788   2.345  0.1096  0.0162  0.1999
 8390W        W23521  10.058   0.787  15.074 -0.0519 -0.4281 -0.0743
 8391W        W23522  14.472   2.003  11.281 -0.0148 -0.0041  0.0275
 8392W        W23523   5.281  12.075   3.077  0.0636 -0.0222  0.0116
 8393W        W23524  13.241   5.871   4.009  0.1771 -0.1429  0.0908
 8394W        W23525  12.871   1.934  14.783  0.1562 -0.1883  0.2263
 8395W        W23526  13.000   5.718   0.245  0.3877  0.0143  0.0029
 8396W        W23527   8.799   8.348  16.674 -0.0964 -0.0829 -0.0730
 8397W        W23528   0.433   2.161   3.686  0.1018  0.0964  0.3059
 8398W        W23529  17.872   1.311  16.134  0.0973  0.2064 -0.1616
 8399W        W23530  14.439   0.235  11.279  0.0672  0.1384 -0.0981
 8400W        W23531  16.004   2.313   2.111 -0.0865 -0.0035  0.4045
 8401W        W23532   3.574  13.908   0.272  0.0780  0.3334  0.2225
 8402W        W23533   8.992  14.772   5.083  0.0105  0.4882  0.0145
 8403W        W23534  16.018  16.842   1.249 -0.0295 -0.2130 -0.1702
 8404W        W23535   4.413   4.891  13.756 -0.0962  0.1288  0.0627
 8405W        W23536  17.855  13.572   6.296 -0.2527  0.1381  0.1624
 8406W        W23537   6.402   0.658  10.973  0.0712  0.1740 -0.1849
 8407W        W23538  10.876   9.656   3.916  0.3370  0.1953 -0.0218
 8408W        W23539  12.029  17.039  11.748  0.2084 -0.0423  0.0270
 8409W        W23540   6.587   5.332   5.764  0.1034 -0.0382 -0.2337
 8410W        W23541   3.261  16.752  12.423 -0.0863  0.1601  0.0835
 8411W        W23542   6.111   9.133   4.794  0.1313  0.1014 -0.1338
 8412W        W23543   8.100  11.522   2.558  0.1563 -0.2354 -0.2120
 8413W        W23544   2.176   3.815   5.983 -0.1140 -0.0607  0.0501
 8414W        W23545   2.024  14.410   0.848  0.0339 -0.2863  0.1279
 8415W        W23546   6.610   7.259  12.778  0.0182 -0.0768 -0.3258
 8416W        W23547   5.215   0.712   1.415 -0.0571  0.3398 -0.1678
 8417W        W23548   2.280   2.439   3.962  0.3090 -0.0684  0.0046
 8418W        W23549   5.521   5.183  14.739  0.1135 -0.0361  0.2855
 8419W        W23550   5.763  14.962   0.729  0.1965  0.0513  0.1253
 8420W        W23551   8.147   9.390  14.179  0.2947 -0.0427  0.0405
 8421W        W23552   7.877  15.036  11.698 -0.3086 -0.0290  0.1371
 8422W        W23553  14.606  15.135   0.747  0.2791  0.4581  0.2180
 8423W        W23554   1.232  13.576  11.676  0.4076 -0.0019 -0.1779
 8424W        W23555  15.987  11.370   4.731  0.3086  0.2750  0.1853
 8425W        W23556   6.126  10.117   4.616 -0.2355 -0.3827  0.2591
 8426W        W23557   0.764   8.060  11.958 -0.0711  0.0618 -0.1901
 8427W        W23558   0.986   5.022  13.587  0.2063 -0.3105  0.0499
 8428W        W23559  16.747   9.583  15.127 -0.1570  0.2774  0.2638
 8429W        W23560  11.441  15.049   5.584  0.1621 -0.0992  0.0490
 8430W        W23561  13.941   9.668   1.661 -0.0873  0.2222  0.2089
 8431W        W23562   1.310  12.985  11.820 -0.3671 -0.0435  0.0724
 8432W        W23563   8.613   8.996  16.154 -0.0420 -0.0237  0.0525
 8433W        W23564   4.946  12.568   5.171 -0.2246  0.1304  0.1473
 8434W        W23565  10.784  16.252   4.673  0.0062  0.0176  0.1948
 8435W        W23566  12.341  10.191  12.919  0.1019  0.0803  0.1727
 8436W        W23567  14.452   4.635  12.443 -0.2199  0.2054  0.0056
 8437W        W23568   3.483   5.864   1.656  0.2443 -0.1634 -0.0965
 8438W        W23569  16.885  16.772   6.156  0.1281  0.0411 -0.0093
 8439W        W23570  14.138   6.124   0.806  0.2317 -0.1013 -0.0370
 8440W        W23571  16.420   2.490   5.226 -0.2849  0.3570 -0.3966
 8441W        W23572   2.436   1.976   1.620  0.2167 -0.1088 -0.0970
 8442W        W23573  13.126  17.307   0.025  0.1560 -0.0336  0.1718
 8443W        W23574   4.123  11.376   5.553 -0.2330  0.0097  0.3252
 8444W        W23575   5.177   4.481  13.539  0.3508 -0.0280 -0.0028
 8445W        W23576  13.634   2.096  12.059 -0.0381  0.1201  0.1999
 8446W        W23577  13.351   5.392   0.434  0.0707 -0.3218  0.1163
 8447W        W23578   5.127   1.272   3.476  0.2225  0.0258 -0.1540
 8448W        W23579   0.504  15.423   1.848 -0.1098  0.0167 -0.6181
 8449W        W23580   4.828   4.178   2.385 -0.1247  0.1139 -0.0006
 8450W        W23581   3.588   1.268  13.970  0.2432  0.2659  0.4318
 8451W        W23582   2.549   3.289  12.204  0.1024 -0.1222 -0.0273
 8452W        W23583   9.653  10.110   4.035 -0.3233 -0.2154  0.1391
 8453W        W23584  13.380  16.366  12.280  0.1260 -0.2128  0.1734
 8454W        W23585   8.120   8.209   1.140  0.1388  0.0719 -0.0497
 8455W        W23586  14.994  16.082  16.019  0.0153 -0.0628 -0.0608
 8456W        W23587  13.176  10.121  10.415  0.1515 -0.0213  0.1625
 8457W        W23588   0.101   2.656   0.863  0.4247  0.3860 -0.0108
 8458W        W23589  11.323   6.683  15.076 -0.1401  0.0900 -0.2042
 8459W        W23590  16.250  13.715  16.099  0.1469  0.0623 -0.2477
 8460W        W23591  13.656   4.871  11.462  0.0945 -0.0174 -0.0036
 8461W        W23592   4.334  17.467  16.702  0.1535  0.3593 -0.1372
 8462W        W23593   2.129  13.619  14.247  0.1450  0.0263 -0.0051
 8463W        W23594   0.421   7.079  13.198 -0.0962  0.4996 -0.4811
 8464W        W23595   0.887   4.612  16.442  0.1849 -0.1816  0.0016
 8465W        W23596  15.508  16.099   0.099 -0.2912 -0.2320 -0.1207
 8466W        W23597   4.326   8.584   1.461 -0.1250  0.1203 -0.1660
 8467W        W23598  12.343   2.005  13.489  0.0811 -0.2358  0.1425
 8468W        W23599  14.001   4.696   4.792 -0.1501  0.0883  0.0371
 8469W        W23600  10.704  10.710   1.459 -0.0952 -0.1474  0.0876
 8470W        W23601   8.650   1.644   0.640 -0.1085  0.0683  0.2599
 8471W        W23602   9.086   9.523   3.270 -0.0599  0.0943  0.2413
 8472W        W23603   1.072  15.830   2.686 -0.0340  0.1914  0.0891
 8473W        W23604  10.031  12.901   3.887  0.4961  0.0011  0.2285
 8474W        W23605  16.816   3.765   2.614  0.0623  0.3331  0.3783
 8475W        W23606   4.686  12.805   1.928 -0.1152  0.3137  0.0853
 8476W        W23607   5.663   3.438   5.421 -0.0231  0.0771 -0.2474
 8477W        W23608  11.658   7.820   5.264 -0.0543  0.0223  0.0837
 8478W        W23609   9.451   6.269   2.050 -0.2539 -0.1257  0.0007
 8479W        W23610   0.979  17.477  13.920  0.1010  0.2549  0.0302
 8480W        W23611   9.052  15.614   0.332 -0.4281  0.3405 -0.2450
 8481W        W23612   6.499   2.778   4.469  0.1449 -0.1697  0.0951
 8482W        W23613   7.405   9.128  15.556 -0.1618 -0.1411  0.0169
 8483W        W23614   4.972   6.110   2.554 -0.1905 -0.0422 -0.0995
 8484W        W23615  17.082   0.320  13.432  0.1548  0.0353  0.1107
 8485W        W23616  17.468  10.514  12.261  0.1347  0.2190  0.0800
 8486W        W23617  15.815  11.437   5.208  0.1682 -0.2482 -0.1312
 8487W        W23618   8.091  16.331   3.162 -0.2618  0.2571  0.0003
 8488W        W23619  14.488   1.432  16.142  0.0044  0.0861  0.0745
 8489W        W23620  12.105  10.978   4.701 -0.0098  0.1033  0.0032
 8490W        W23621   0.007  12.777   5.022  0.0669 -0.0205 -0.3771
 8491W        W23622  10.442   9.488   0.092  0.2326 -0.0427 -0.0068
 8492W        W23623  11.065  17.040  16.705  0.0982 -0.1917 -0.1568
 8493W        W23624  16.453  16.564   5.980 -0.0943 -0.1299 -0.1856
 8494W        W23625   7.124   2.969   4.437 -0.1895  0.2739 -0.0591
 8495W        W23626   8.251   2.305  12.401  0.1650 -0.2368  0.0288
 8496W        W23627  16.394  10.603  11.057  0.0461  0.0026 -0.0896
 8497W        W23628   1.616  15.238  13.613  0.0517  0.1017 -0.0801
 8498W        W23629   9.809   0.533  13.078 -0.0379  0.2911 -0.0455
 8499W        W23630   3.004   1.364   2.473  0.0815  0.0975 -0.1548
 8500W        W23631   6.353   3.666   0.197 -0.0165 -0.1086 -0.2290
 8501W        W23632   7.017  15.179  13.403 -0.0975  0.2943  0.0473
 8502W        W23633   3.193  16.024   1.783 -0.1419  0.2659  0.0945
 8503W        W23634  15.143  14.445  16.062 -0.2032 -0.2052 -0.0590
 8504W        W23635   5.242   6.860  16.667  0.0273  0.3181  0.1153
 8505W        W23636   0.768   5.780  14.110 -0.0211 -0.0854  0.0194
 8506W        W23637   8.072  11.985   4.724  0.0050  0.0241 -0.0260
 8507W        W23638  12.467   9.351   0.339  0.0742  0.0271  0.4614
 8508W        W23639   3.317   8.576  16.136  0.0427  0.1063  0.0747
 8509W        W23640   0.969  14.269   1.274 -0.3255  0.2928 -0.3353
 8510W        W23641  10.382   1.987   4.568 -0.0344 -0.0343  0.3563
 8511W        W23642  17.120  17.840   4.737 -0.0323  0.2265 -0.0184
 8512W        W23643  13.899  11.421   1.798 -0.1840  0.0911 -0.3842
 8513W        W23644   4.591  17.214   3.809 -0.0151  0.0212 -0.1877
 8514W        W23645   9.506   1.976   2.016 -0.2141  0.1775 -0.1541
 8515W        W23646   3.801   9.757   4.550 -0.0476  0.0066  0.1764
 8516W        W23647   3.668   2.146   2.335  0.1474  0.0487 -0.1583
 8517W        W23648  15.549   3.179   0.184  0.1253  0.2467  0.0873
 8518W        W23649   2.932   5.582  15.547 -0.2153  0.0375  0.1533
 8519W        W23650   4.902   5.511  13.121  0.1212  0.1148  0.3008
 8520W        W23651  13.388  10.620   0.486  0.3048  0.0346 -0.0356
 8521W        W23652   4.347   6.185   1.455 -0.2375 -0.2475 -0.1574
 8522W        W23653   0.983   5.758   3.603  0.1384  0.0578  0.1002
 8523W        W23654   3.998   8.304  14.812  0.3616 -0.1538 -0.1638
 8524W        W23655   3.354   8.933   5.706  0.0933  0.1239 -0.1147
 8525W        W23656   4.992   7.764  12.788  0.0645 -0.3587  0.0035
 8526W        W23657   9.258   5.529   1.249 -0.1471  0.0005 -0.1048
 8527W        W23658  13.896  15.821   0.490  0.1916  0.0730  0.1276
 8528W        W23659   0.051   6.062  12.301  0.2554  0.1489 -0.0736
 8529W        W23660  12.484  12.362  12.051  0.0609 -0.2625 -0.1884
 8530W        W23661   3.702   2.389   1.146  0.2931 -0.0381  0.1477
 8531W        W23662   8.747  13.468   0.452  0.1324  0.0051  0.4759
 8532W        W23663   4.090  17.218   4.176 -0.0402  0.0142 -0.1733
 8533W        W23664   8.209   5.168   5.547 -0.2040 -0.0584  0.4346
 8534W        W23665  14.836   5.744  14.654  0.1425 -0.0396 -0.2268
 8535W        W23666  16.589   0.923   3.533 -0.1170  0.0821 -0.3133
 8536W        W23667   3.942   4.392   5.622 -0.0806 -0.0052  0.0129
 8537W        W23668  15.545  14.598   4.128  0.0428  0.2173 -0.0537
 8538W        W23669   9.394   6.508   0.515 -0.2159 -0.2728 -0.2802
 8539W        W23670   2.652   0.839  16.524  0.1645 -0.1268  0.3908
 8540W        W23671   8.860   2.144   2.680 -0.2255  0.1613 -0.0100
 8541W        W23672   6.636  11.573   2.185  0.0738 -0.2169 -0.0004
 8542W        W23673   8.340  11.094   3.956 -0.0848  0.2408 -0.0958
 8543W        W23674   7.615   8.973  11.626 -0.0369  0.0394 -0.3178
 8544W        W23675  17.545   6.317   5.276 -0.0774  0.2988  0.1517
 8545W        W23676   0.895  16.648   5.411 -0.1522 -0.1233  0.1350
 8546W        W23677  14.186  16.808   2.747 -0.3094 -0.3197  0.0315
 8547W        W23678  11.229   1.506   2.046 -0.1518  0.1279 -0.0645
 8548W        W23679   2.849   5.780   3.356 -0.2091 -0.0891 -0.1254
 8549W        W23680  16.071   8.613   3.505 -0.1341 -0.2139 -0.1480
 8550W        W23681  15.297   0.120   3.007 -0.0262  0.0585  0.0662
 8551W        W23682   8.416  10.772   4.412 -0.0515 -0.0038 -0.3946
 8552W        W23683   5.391  11.022  12.511  0.1982 -0.2979 -0.0524
 8553W        W23684  11.870   9.975  13.046  0.1471  0.0000  0.1783
 8554W        W23685  14.969  10.576  16.685  0.0694  0.2540 -0.0675
 8555W        W23686  15.705  12.397   1.479  0.1237  0.1091  0.1329
 8556W        W23687  15.907   7.520  14.549  0.0431  0.2886  0.0377
 8557W        W23688   6.413   0.829   5.264  0.1762  0.3099 -0.1174
 8558W        W23689  11.360  12.273   2.744  0.0563 -0.0645 -0.3329
 8559W        W23690   3.176   7.078   3.493 -0.0340  0.1368  0.0582
 8560W        W23691   5.830   0.801  16.323 -0.3984 -0.0468  0.2150
 8561W        W23692  13.266  11.864  12.591 -0.0020  0.0561  0.0516
 8562W        W23693   9.048   9.623   0.169  0.0770  0.1429 -0.0440
 8563W        W23694   5.756   3.393  13.226 -0.1285 -0.0578 -0.0737
 8564W        W23695  13.500  11.536  13.801  0.1048 -0.1980  0.2379
 8565W        W23696  13.052   2.149  15.192 -0.1792  0.0008 -0.1317
 8566W        W23697   6.577  12.862   4.906 -0.1398  0.0870 -0.0439
 8567W        W23698  16.769  13.784   5.680 -0.1565  0.0796 -0.3378
 8568W        W23699   3.025   5.944   1.915  0.0377  0.3138  0.0294
 8569W        W23700  12.012   5.880   2.339 -0.2596  0.0908  0.1055
 8570W        W23701  16.397   5.149  12.372  0.2520 -0.0069  0.1993
 8571W        W23702   3.508  14.136   2.344  0.0299 -0.1647 -0.0993
 8572W        W23703   5.326  16.670  11.010 -0.1182 -0.0703 -0.0024
 8573W        W23704  12.992   2.184   1.631  0.0709  0.2398 -0.0971
 8574W        W23705   7.356   1.669  13.355 -0.2313  0.1103  0.2382
 8575W        W23706   0.794  13.177   0.835  0.3023 -0.1517 -0.0445
 8576W        W23707   5.890   2.688  11.657 -0.0016  0.2774  0.1874
 8577W        W23708   1.097   4.738  12.813 -0.0579 -0.2704 -0.1579
 8578W        W23709   2.069  13.974   1.287 -0.0471 -0.0201  0.2394
 8579W        W23710   6.922   5.628  15.855 -0.0346  0.0245 -0.0504
 8580W        W23711  13.171   0.046  16.076  0.2901 -0.2256  0.0407
 8581W        W23712  14.013   8.660   3.534  0.1647 -0.1830 -0.1791
 8582W        W23713   6.012   1.285  11.612 -0.2721  0.0401  0.1076
 8583W        W23714  11.822   4.194  15.905  0.1293  0.1382  0.1135
 8584W        W23715   8.007  10.556   4.819  0.0225 -0.2322  0.1585
 8585W        W23716   4.743   2.950  15.040 -0.0943 -0.2283 -0.2033
 8586W        W23717  13.540   9.024  15.977 -0.2750 -0.2033  0.0673
 8587W        W23718  16.547   9.580   2.590 -0.1908  0.0264 -0.1125
 8588W        W23719  14.585   2.603  14.510 -0.2546 -0.0561  0.1359
 8589W        W23720  16.038   2.229  11.289  0.1825 -0.1020  0.2143
 8590W        W23721   0.130   9.893   0.610  0.1974  0.0470  0.1825
 8591W        W23722   7.553  16.136  12.212  0.1610 -0.1909 -0.0129
 8592W        W23723   7.374  14.108  11.398  0.2037  0.2244  0.1637
 8593W        W23724  15.141  17.136  16.043 -0.1735 -0.1516 -0.0751
 8594W        W23725   2.062   6.934   2.384 -0.1454  0.1226 -0.2964
 8595W        W23726  17.446   4.686   2.082 -0.1240 -0.1622  0.2495
 8596W        W23727  10.355   5.814   5.574  0.1473 -0.0001  0.0397
 8597W        W23728   8.859   9.920  16.037  0.0030  0.0291 -0.1029
 8598W        W23729   0.417   6.879  10.735 -0.1453  0.1369 -0.0082
 8599W        W23730   9.513  15.749   2.209  0.1031 -0.1126 -0.0740
 8600W        W23731   3.381   3.904   5.095 -0.1031  0.0742  0.0776
 8601W        W23732   9.868   3.973   4.027  0.2100  0.2534 -0.0238
 8602W        W23733   2.460   0.407  13.812  0.1975 -0.3072  0.1550
 8603W        W23734   6.437   3.855  13.604 -0.0532 -0.0376  0.1491
 8604W        W23735  11.501  12.580  11.498  0.0571  0.0142 -0.1431
 8605W        W23736   3.370  12.198   4.355  0.2846 -0.2461 -0.0462
 8606W        W23737   4.640  16.259   0.870  0.1150  0.1878  0.1829
 8607W        W23738  14.707   4.537   3.471 -0.0350  0.0051  0.2224
 8608W        W23739   0.915  16.816   1.667  0.0188 -0.2015  0.1204
 8609W        W23740   0.382  11.582  13.634 -0.0306  0.0544 -0.0259
 8610W        W23741   1.297  16.456   1.483 -0.1151 -0.0484 -0.0578
 8611W        W23742  12.896   9.459  11.588  0.2512 -0.1404  0.1346
 8612W        W23743  16.987   9.468   4.002 -0.1732 -0.2263 -0.0216
 8613W        W23744   9.446   3.474  12.784  0.1155 -0.3596  0.0941
 8614W        W23745  13.642  13.259  12.103 -0.1125  0.2692  0.0286
 8615W        W23746  10.423  14.700   0.891 -0.0998  0.0225  0.1461
 8616W        W23747  11.109   5.149  14.266 -0.1768  0.0506 -0.1635
 8617W        W23748   6.420  12.946   3.249  0.0606 -0.0308 -0.1013
 8618W        W23749   5.363  16.426  14.236 -0.4086 -0.0931  0.0196
 8619W        W23750   9.662   7.120   3.427 -0.0218 -0.1076 -0.2625
 8620W        W23751  15.867   8.985  14.050  0.1426 -0.0873  0.1221
 8621W        W23752  16.159  15.421   3.931 -0.0270 -0.2069 -0.3525
 8622W        W23753   9.557  12.584  12.265 -0.1661  0.1847 -0.0686
 8623W        W23754   9.196   4.584   1.076 -0.2436 -0.0923  0.0560
 8624W        W23755   5.780   7.023  14.822 -0.0899 -0.2697 -0.1464
 8625W        W23756   6.817  17.192   5.887 -0.0034  0.0564 -0.1140
 8626W        W23757  16.781   3.407   3.246 -0.2992  0.0336  0.2469
 8627W        W23758  13.089  13.962  12.473  0.0428 -0.1165 -0.2164
 8628W        W23759   8.100  15.025   5.816 -0.1327 -0.0240  0.1218
 8629W        W23760  13.947   6.486  14.839  0.2583 -0.0372  0.0688
 8630W        W23761  16.356   2.250   1.648  0.3397  0.1278 -0.2806
 8631W        W23762   6.162  12.865  12.349  0.0235 -0.2129  0.1110
 8632W        W23763  17.408   2.532   3.348 -0.0591  0.0501  0.1234
 8633W        W23764   4.734  10.166  14.545 -0.1470 -0.1756  0.3956
 8634W        W23765   3.216  12.915   5.929 -0.0670  0.0958  0.0553
 8635W        W23766  16.975  15.237   5.310 -0.0849  0.1006  0.1078
 8636W        W23767  13.311   1.596   0.642 -0.2205 -0.5189  0.1848
 8637W        W23768  16.565  13.175  16.596 -0.1198  0.2145  0.1329
 8638W        W23769  10.278  11.366   4.407  0.1667  0.0815  0.2038
 8639W        W23770  17.683  16.103   5.560  0.0635  0.1421  0.0943
 8640W        W23771  14.585   2.362  14.981 -0.2636  0.0170  0.3248
 8641W        W23772  12.690   5.038  16.479  0.3111 -0.1351  0.2271
 8642W        W23773   9.315  15.677   4.661 -0.0782 -0.0087  0.0480
 8643W        W23774   0.620   2.658   5.172  0.1363  0.0441  0.1223
 8644W        W23775  13.593  14.729  13.027  0.0257 -0.2969 -0.1696
 8645W        W23776   5.737   3.835   4.115  0.0220  0.2594 -0.1163
 8646W        W23777  14.662   9.882  11.405  0.0245 -0.1176 -0.0129
 8647W        W23778  12.043   0.085  12.067 -0.0618  0.0868  0.0706
 8648W        W23779  14.470  10.163   3.518 -0.2090 -0.4117 -0.1297
 8649W        W23780   4.910  10.111  12.733 -0.0113 -0.1798  0.1876
 8650W        W23781  14.028  11.682  14.637 -0.0274  0.1009 -0.3205
 8651W        W23782   4.053  17.744  11.401 -0.1614 -0.0324  0.1035
 8652W        W23783  13.558   8.898   3.739  0.1190 -0.0216 -0.1156
 8653W        W23784   8.070   9.116  11.783 -0.0723  0.1493  0.0372
 8654W        W23785   0.037   3.166  15.782  0.1096  0.0858 -0.0460
 8655W        W23786   5.204   1.773  14.867  0.3904 -0.0312 -0.0661
 8656W        W23787   8.901   0.062  16.493 -0.1299  0.1113 -0.0385
 8657W        W23788  16.830  12.969   1.379 -0.3430 -0.0276  0.0410
 8658W        W23789   0.510  10.564  16.191 -0.2073  0.0361  0.0770
 8659W        W23790   1.657   4.621  12.909  0.3951  0.1516  0.1984
 8660W        W23791   4.734  17.706  16.692  0.2259  0.2861  0.0575
 8661W        W23792   3.766  14.642  15.651 -0.1830  0.2148  0.5360
 8662W        W23793  10.288   4.744  11.961 -0.1151 -0.1927  0.3075
 8663W        W23794   8.515  11.195  11.559  0.3014  0.0752  0.0629
 8664W        W23795  13.220  12.843   4.642  0.1801  0.4127  0.1874
 8665W        W23796  13.354   2.673  11.956 -0.3171 -0.3173  0.1874
 8666W        W23797  14.940   6.847   6.187 -0.0382 -0.1042  0.1120
 8667W        W23798  12.411   9.871   3.171  0.0286  0.2022  0.2028
 8668W        W23799   8.324  15.073   1.353 -0.0826  0.0027  0.0105
 8669W        W23800  15.805   7.105  14.921  0.1355  0.0136  0.3003
 8670W        W23801  12.937   6.539  16.678  0.0742  0.1227 -0.4442
 8671W        W23802   3.260  10.946  15.474 -0.1289  0.0871 -0.1147
 8672W        W23803   5.237   5.749  11.931  0.3892 -0.0290 -0.0291
 8673W        W23804  15.309  17.748   0.497 -0.1162  0.3670  0.0535
 8674W        W23805  16.842   6.013  15.149 -0.0768 -0.1444 -0.0639
 8675W        W23806   0.055   6.761  15.422 -0.3396  0.0463 -0.2974
 8676W        W23807  10.633  14.782  16.524 -0.3807 -0.3335 -0.2101
 8677W        W23808   6.209  14.105  12.164  0.0746  0.0767  0.0202
 8678W        W23809   5.296  13.449  14.380  0.1486  0.2427  0.2957
 8679W        W23810   3.588   1.463   4.733 -0.0170  0.0083  0.1996
 8680W        W23811   3.884   5.518   4.835  0.0616  0.2146 -0.0079
 8681W        W23812   2.217  14.075   0.348  0.4132 -0.0221 -0.1936
 8682W        W23813  13.924   2.400  13.724  0.4101 -0.1030  0.2064
 8683W        W23814  16.196  17.114   2.530 -0.0985 -0.0208  0.0046
 8684W        W23815   6.479   1.513   3.954 -0.1689  0.2715 -0.0731
 8685W        W23816  17.230  13.543  15.979 -0.0443 -0.1717 -0.3674
 8686W        W23817  12.557  13.810   2.665 -0.4004  0.0106  0.1139
 8687W        W23818  17.625   7.970  12.299 -0.0992  0.2301 -0.0268
 8688W        W23819  17.296  14.544   4.233 -0.0267  0.0509 -0.2454
 8689W        W23820  16.538   2.543  15.940 -0.0519 -0.1778  0.1184
 8690W        W23821   0.217   6.188   4.536 -0.1833 -0.4586  0.0405
 8691W        W23822  16.896  13.434  15.575 -0.0940  0.0749 -0.1686
 8692W        W23823  15.136  14.697  14.215  0.0153  0.0822  0.0504
 8693W        W23824  15.219  13.204   2.012 -0.0678  0.3423  0.1917
 8694W        W23825  10.087   2.230  11.403 -0.0554 -0.1768  0.3685
 8695W        W23826   5.576   1.249  14.680 -0.4005 -0.2261  0.2967
 8696W        W23827  13.024  11.694  16.328  0.0178 -0.1320  0.1737
 8697W        W23828  12.480  11.378  12.159  0.1455  0.1416 -0.1218
 8698W        W23829   5.811   5.325  15.157 -0.0089  0.0821 -0.1733
 8699W        W23830   5.955   3.139   4.322 -0.0428 -0.2036  0.1987
 8700W        W23831  13.839   2.653  11.547 -0.0295 -0.0115  0.0536
 8701W        W23832  11.653   5.676   2.101 -0.0094  0.3119  0.1712
 8702W        W23833   2.359   9.314   1.487  0.0416  0.0687 -0.1335
 8703W        W23834  11.594  14.525   1.926  0.1204 -0.0794 -0.0317
 8704W        W23835  11.952   4.342  15.431 -0.1907  0.2173  0.0507
 8705W        W23836   8.544  13.767   2.115  0.2162 -0.1577  0.2324
 8706W        W23837   7.778   5.942  15.902  0.0714 -0.0148  0.0809
 8707W        W23838   7.851   2.458  11.671 -0.0723 -0.2147 -0.0101
 8708W        W23839  15.858  11.979  15.907 -0.4042 -0.0289  0.1756
 8709W        W23840   3.664  13.687  12.537 -0.1338  0.1581  0.2052
 8710W        W23841  14.882  17.693  13.022  0.1185 -0.2818 -0.0173
 8711W        W23842  11.663  12.505  15.595  0.0794 -0.3035  0.1060
 8712W        W23843  14.569   5.504  15.601  0.1564 -0.1421 -0.0589
 8713W        W23844   8.782  15.036  12.050 -0.0459  0.0391 -0.1283
 8714W        W23845   6.750  17.462   3.127 -0.1346 -0.3142 -0.0030
 8715W        W23846   6.267   5.592   3.409  0.0897 -0.0085 -0.0431
 8716W        W23847  14.822   1.264  12.271  0.1290 -0.1419 -0.0667
 8717W        W23848  12.464   2.795   1.586  0.2470  0.2817 -0.0389
 8718W        W23849   8.198  10.127   1.056  0.3084  0.0832 -0.1668
 8719W        W23850   4.059   8.718  11.087 -0.1403  0.0024 -0.0783
 8720W        W23851  16.050   1.324  14.566 -0.1760  0.2107 -0.1009
 8721W        W23852   2.810  10.040   3.527  0.1231 -0.0264  0.0506
 8722W        W23853   6.466  16.086   2.961 -0.1042 -0.1396 -0.2606
 8723W        W23854  12.447   7.442  16.153  0.1728 -0.2832 -0.0387
 8724W        W23855   2.996  13.903  11.969 -0.0632  0.1932  0.1420
 8725W        W23856   9.145   6.814  11.865  0.1394 -0.0218  0.1191
 8726W        W23857   6.611   0.367  13.918  0.1053 -0.0646 -0.4995
 8727W        W23858   1.704   4.390  13.946 -0.0355 -0.0742  0.1166
 8728W        W23859   0.496   5.318  13.471  0.0156 -0.0977  0.2248
 8729W        W23860   1.983   9.814   2.953 -0.1897  0.0395  0.1149
 8730W        W23861   0.517  14.428   1.597 -0.0458  0.2375  0.0345
 8731W        W23862  17.669   5.141  13.386 -0.2679  0.4270  0.1658
 8732W        W23863  12.800  12.786  12.878  0.1613 -0.1624 -0.2707
 8733W        W23864   7.000   4.669   3.115 -0.0273 -0.0896  0.2947
 8734W        W23865   2.945   5.708  16.690 -0.1222 -0.2055 -0.3076
 8735W        W23866   6.768  13.069  13.327 -0.0739 -0.2631 -0.2640
 8736W        W23867  13.627  12.471   3.209 -0.0344  0.3110 -0.3285
 8737W        W23868   3.343  10.969   1.174  0.1027 -0.0967  0.0168
 8738W        W23869   4.792  10.076  13.219 -0.0192  0.0394  0.0268
 8739W        W23870   6.060   3.498  12.820 -0.3114 -0.1816  0.2745
 8740W        W23871  11.667  15.752   3.536 -0.0705 -0.3121  0.0270
 8741W        W23872  13.690   4.921  15.399  0.2527 -0.0324 -0.3379
 8742W        W23873   7.521   5.911   1.230 -0.1059  0.1779 -0.2144
 8743W        W23874   7.045   3.228  16.722  0.2124  0.1477 -0.2738
 8744W        W23875   2.803  16.250   6.114 -0.1189  0.0818 -0.3158
 8745W        W23876  12.177  16.257   0.341  0.0746  0.0805 -0.0827
 8746W        W23877   2.592  12.910   0.941  0.0424 -0.0241 -0.0710
 8747W        W23878  12.060   8.287  12.687 -0.0118  0.5100  0.1016
 8748W        W23879  10.915  11.462   3.850 -0.0490  0.2682 -0.0640
 8749W        W23880   1.819   3.856   4.000 -0.0087 -0.1456  0.0324
 8750W        W23881  10.929   3.604   3.610  0.2181 -0.1910  0.2853
 8751W        W23882   8.027  14.342  10.892  0.3215  0.0232 -0.1936
 8752W        W23883  16.475   8.394   2.038  0.2193 -0.1738 -0.4512
 8753W        W23884   8.921  14.993  15.479 -0.1112  0.0672 -0.0174
 8754W        W23885  17.083  17.709  16.431  0.0939 -0.1792  0.0102
 8755W        W23886  12.216   1.197  11.363 -0.1972  0.2337  0.0910
 8756W        W23887   8.586   7.397   5.325  0.1909 -0.0599  0.1475
 8757W        W23888   7.582  10.953  15.076  0.0670  0.1290 -0.0039
 8758W        W23889   7.418  14.678  15.947 -0.0929 -0.1316 -0.1804
 8759W        W23890   7.793  10.301   3.342  0.0768  0.1027 -0.2059
 8760W        W23891   4.077  11.512   1.207 -0.2420 -0.2782  0.0915
 8761W        W23892  13.810  11.406   4.866  0.2747 -0.1335  0.0657
 8762W        W23893  13.295  14.973   0.152  0.0443 -0.1851 -0.0850
 8763W        W23894  11.797  17.733  14.555 -0.1779  0.1067  0.1844
 8764W        W23895  15.973  13.471   0.490  0.3201  0.1178  0.0424
 8765W        W23896  16.277  13.018   3.982  0.2412 -0.0427  0.2828
 8766W        W23897   3.699  16.647  13.571  0.0248 -0.0853 -0.0697
 8767W        W23898   3.619   7.977  13.485  0.1465 -0.4654 -0.0525
 8768W        W23899  13.129   2.097   0.534  0.0131  0.0327  0.0294
 8769W        W23900  16.323  15.592  15.439  0.0323 -0.1055 -0.2199
 8770W        W23901  12.941   9.154   3.136 -0.2127 -0.0275 -0.1292
 8771W        W23902   7.324   4.798   0.566 -0.0359  0.4378 -0.1010
 8772W        W23903   4.658   3.132   0.135 -0.1126  0.3517  0.1059
 8773W        W23904  16.671   9.362   3.028  0.3139  0.0141 -0.0630
 8774W        W23905  17.083   3.661  13.225  0.0304 -0.2884  0.2517
 8775W        W23906   3.239  14.202   0.706  0.0465  0.3018  0.1328
 8776W        W23907   1.450   9.110   2.603 -0.0001 -0.2181  0.3094
 8777W        W23908  15.994  16.042  11.668 -0.2238 -0.1861 -0.3155
 8778W        W23909  14.830  17.512  11.401 -0.0317  0.2022 -0.0124
 8779W        W23910   2.294  15.117  12.537 -0.0087 -0.2027 -0.1110
 8780W        W23911  15.401  16.361   5.110 -0.1169 -0.3154 -0.1291
 8781W        W23912  16.078   0.826  14.174 -0.1538 -0.0403 -0.1230
 8782W        W23913   4.575   6.512   6.394 -0.2099  0.1829  0.1018
 8783W        W23914   0.531   3.751  16.335 -0.1745  0.1258  0.1585
 8784W        W23915   0.683   5.819  15.949 -0.2975  0.0578 -0.0922
 8785W        W23916  17.046   4.544  12.146 -0.0007 -0.1679  0.0442
 8786W        W23917   5.568  13.925   1.869 -0.1830  0.1711  0.3427
 8787W        W23918   8.889  14.824  13.825 -0.0065 -0.2572  0.2478
 8788W        W23919   3.310  10.794   0.020 -0.1633 -0.0903  0.1175
 8789W        W23920   8.691  15.023   2.246 -0.3450 -0.2207 -0.0775
 8790W        W23921   8.910  16.429   2.313 -0.0369 -0.1223  0.0410
 8791W        W23922   9.684  15.404   2.546 -0.1046  0.2384  0.0473
 8792W        W23923   8.981   8.110   5.729 -0.4617  0.1456  0.0077
 8793W        W23924   9.098  15.942   0.737 -0.1556 -0.5611 -0.1931
 8794W        W23925   1.829   3.527   6.237  0.0038 -0.0037 -0.1818
 8795W        W23926  15.436  17.259   5.262  0.0920  0.1343 -0.0896
 8796W        W23927   8.100   1.560  13.474  0.0013 -0.1979 -0.1020
 8797W        W23928   8.938  15.206   1.776  0.0137  0.2523 -0.1144
 8798W        W23929   6.774   6.334   3.299 -0.2098 -0.1163 -0.2315
 8799W        W23930  16.119   7.826   1.124  0.2523  0.1277 -0.1977
 8800W        W23931  15.635   5.250   2.233 -0.0616 -0.0787  0.0818
 8801W        W23932  10.084  16.265  16.010  0.1486 -0.0572 -0.0041
 8802W        W23933   2.623   3.308  13.147 -0.2639 -0.0444 -0.0488
 8803W        W23934  11.766   3.488  12.863  0.1723 -0.2393  0.0218
 8804W        W23935  15.487   5.883  11.142  0.1800 -0.0888 -0.1708
 8805W        W23936   2.876  10.025  14.277 -0.0152 -0.1104 -0.0617
 8806W        W23937   4.656   6.697   0.469  0.1555  0.1408  0.1040
 8807W        W23938   2.518  16.489  12.808  0.1528 -0.2001 -0.0381
 8808W        W23939  15.465   8.065   6.187 -0.1894  0.0515  0.4307
 8809W        W23940   4.157   3.159   2.716  0.1533 -0.3980  0.0921
 8810W        W23941  15.826   1.282   0.595 -0.2050  0.2264  0.0294
 8811W        W23942   6.680  14.769   0.377  0.0054 -0.2313  0.1163
 8812W        W23943   1.933  13.585   4.383 -0.0058  0.0083  0.2838
 8813W        W23944   7.711   2.780   3.810  0.4671  0.3824  0.1111
 8814W        W23945   0.240  10.015   1.136 -0.2590 -0.0460 -0.1433
 8815W        W23946  10.728   2.145  12.071 -0.1032 -0.1689 -0.0161
 8816W        W23947   2.711  11.258  14.559  0.1502 -0.1179 -0.1347
 8817W        W23948   4.497   6.220  12.140 -0.2233  0.1685  0.0982
 8818W        W23949   3.864  17.573  14.811 -0.0754 -0.0388  0.1261
 8819W        W23950  13.821   3.356  10.744 -0.2437  0.1402 -0.0117
 8820W        W23951  14.579  10.933   0.063 -0.1377  0.0100 -0.0850
 8821W        W23952  15.507  17.517   6.577  0.1295  0.1586 -0.0315
 8822W        W23953  16.511  13.939  14.024  0.1244  0.0410  0.2317
 8823W        W23954  16.055   6.179   3.937  0.0755 -0.0830 -0.2800
 8824W        W23955   4.469   9.770  12.961  0.2131  0.1822  0.1365
 8825W        W23956   5.700  12.864   2.038  0.0810  0.0418 -0.0485
 8826W        W23957   6.502   6.611   1.951 -0.2302 -0.1588 -0.2562
 8827W        W23958   5.387  16.028  14.540  0.2396  0.1596  0.0679
 8828W        W23959  12.744  10.782  11.180  0.0924 -0.2704 -0.2162
 8829W        W23960   8.072   0.453   2.370  0.3440 -0.2375  0.1946
 8830W        W23961   7.594  12.213  13.184 -0.3410  0.0108 -0.2004
 8831W        W23962  13.002  12.059   1.911 -0.3209 -0.0706 -0.1122
 8832W        W23963   2.714  12.490   2.526  0.0730 -0.0448 -0.0512
 8833W        W23964  14.357  15.139   1.719 -0.2291 -0.0668  0.2409
 8834W        W23965   6.747  10.531  11.346  0.2064  0.0107 -0.0238
 8835W        W23966   1.687  10.457   1.068  0.1274  0.0649  0.2994
 8836W        W23967   4.301   5.470   0.316  0.0080  0.2804 -0.1193
 8837W        W23968   5.757   7.277   1.088  0.1391 -0.1838  0.0675
 8838W        W23969  10.440   6.257   5.348  0.0198 -0.1325 -0.0050
 8839W        W23970   2.904  17.383   2.607  0.1688  0.4385 -0.1440
 8840W        W23971  10.001  15.842  16.286  0.0232 -0.2918  0.2211
 8841W        W23972  12.967   8.442  16.415 -0.1610  0.0063 -0.1667
 8842W        W23973   1.409  17.309   2.505  0.0583 -0.0396 -0.0730
 8843W        W23974  11.438  14.083  16.006 -0.0531 -0.2459  0.0089
 8844W        W23975  11.896   9.013   2.302 -0.0381 -0.1200 -0.2331
 8845W        W23976   0.461   0.760   5.651  0.0315  0.1202  0.4277
 8846W        W23977  15.824  13.181  14.837 -0.0511 -0.3304  0.0054
 8847W        W23978  10.150  16.800  13.581 -0.2554  0.1298 -0.1995
 8848W        W23979   8.489   0.598   5.106 -0.1483  0.3175  0.1165
 8849W        W23980  13.194  16.900   3.483 -0.0229 -0.0728  0.0161
 8850W        W23981  15.253  14.996  13.180 -0.2539 -0.1643 -0.2149
 8851W        W23982   6.421  15.487  14.050  0.0384 -0.2393 -0.1987
 8852W        W23983   2.455  13.944   5.156 -0.1261  0.1132 -0.2135
 8853W        W23984  17.075   3.838   5.180  0.0038 -0.2167  0.1817
 8854W        W23985  16.149  10.214  12.440 -0.4381 -0.3495  0.2812
 8855W        W23986  12.871  13.507  16.574  0.1586  0.0566 -0.1289
 8856W        W23987   5.905   3.685  16.217 -0.0079  0.1688 -0.1568
 8857W        W23988   8.532  10.566  15.224  0.0200 -0.1346 -0.0977
 8858W        W23989   3.499  11.354   3.742 -0.0857  0.1148  0.0968
 8859W        W23990  16.603   4.515   4.375  0.0260 -0.1438  0.3478
 8860W        W23991   7.143   5.424   3.932  0.1047 -0.2432  0.2009
 8861W        W23992   7.213  14.866   4.584 -0.1329 -0.0176  0.4405
 8862W        W23993   6.690   5.061  14.783 -0.2304 -0.3619  0.2163
 8863W        W23994   6.197  15.532   0.236 -0.1929  0.0855  0.0740
 8864W        W23995   7.873  12.338   4.996  0.1583  0.0020 -0.0152
 8865W        W23996   5.741  11.899  15.440 -0.0224 -0.1454  0.0963
 8866W        W23997  10.282  17.559  14.573  0.4234 -0.0127 -0.2983
 8867W        W23998  10.233   1.292  13.088  0.1593  0.1262  0.1881
 8868W        W23999   1.952  16.503  13.867  0.0318  0.3251 -0.0279
 8869W        W24000   0.406  15.937   3.976 -0.2755 -0.3466  0.0455
 8870W        W24001   8.191   1.982  13.208  0.3153  0.2395  0.0843
 8871W        W24002   7.722   5.278  15.490 -0.1673  0.1727  0.1416
 8872W        W24003  13.489   0.433   5.218 -0.0161 -0.0093 -0.4879
 8873W        W24004   3.441  12.283  16.088  0.0242  0.0890  0.0502
 8874W        W24005   3.711   7.771   5.472 -0.2994 -0.3456 -0.1119
 8875W        W24006   3.242   3.290   4.152 -0.4033  0.1250 -0.0340
 8876W        W24007  12.719  13.265  14.905 -0.1081  0.1275 -0.0947
 8877W        W24008   9.363   4.691  15.844 -0.0766 -0.1571  0.0177
 8878W        W24009   1.949  12.321   1.179 -0.0966 -0.0095 -0.0940
 8879W        W24010  13.772  17.517   4.894  0.1897 -0.1627  0.3969
 8880W        W24011   9.832   1.421   5.117  0.2782 -0.3118 -0.1298
 8881W        W24012  12.179   9.368  12.092  0.1115 -0.0711  0.2029
 8882W        W24013  10.268  16.958  14.066  0.4045 -0.3831  0.2206
 8883W        W24014   3.860   8.147  16.466 -0.0754 -0.0566  0.2155
 8884W        W24015  17.522   3.618   1.572 -0.1365  0.0360  0.1308
 8885W        W24016   7.060  14.230  16.338  0.2909  0.2015 -0.0031
 8886W        W24017   6.358  15.873  12.657  0.1005  0.0802 -0.1917
 8887W        W24018  14.575   7.756  12.379 -0.1303 -0.0890  0.3391
 8888W        W24019  13.168  17.449   1.867 -0.1387  0.2881 -0.0610
 8889W        W24020   7.744   4.191  11.389  0.0609  0.0353 -0.2037
 8890W        W24021  16.725   1.196  12.788  0.0105 -0.0861 -0.2113
 8891W        W24022  11.785   0.511   1.444  0.2155 -0.1349  0.0039
 8892W        W24023   3.237  11.784   2.973  0.1248 -0.0104 -0.1352
 8893W        W24024   9.978   6.870  16.012 -0.0824  0.0096 -0.1873
 8894W        W24025   5.075   0.445  15.707 -0.0368 -0.1357  0.3284
 8895W        W24026   5.839   7.343   2.743 -0.1370 -0.0855  0.3938
 8896W        W24027  12.633  13.196   1.293 -0.0622 -0.2088 -0.0480
 8897W        W24028   3.058   3.079  14.356  0.0640  0.1771 -0.3098
 8898W        W24029   1.123  11.621   3.341 -0.0065  0.0892  0.0790
 8899W        W24030   2.911   6.303   3.331  0.0713  0.0501 -0.0585
 8900W        W24031   5.572   0.962   0.046  0.1846 -0.1351 -0.0728
 8901W        W24032   7.793   9.449   1.467  0.3034  0.1529  0.1282
 8902W        W24033   3.739   5.769   5.378  0.2296  0.0996  0.1599
 8903W        W24034   8.479  16.623  16.066  0.1385 -0.2037  0.0696
 8904W        W24035   8.025  10.647   3.072  0.1750  0.1678  0.4781
 8905W        W24036   2.299  15.383   0.322 -0.0802 -0.1582 -0.1529
 8906W        W24037  11.840  16.572   4.737 -0.0348  0.1596  0.1150
 8907W        W24038   0.178   5.641   5.255  0.0770 -0.1154  0.1581
 8908W        W24039   5.640   4.364   3.105 -0.1428 -0.2942 -0.0597
 8909W        W24040   1.804   9.725  16.217  0.0785  0.0063  0.0834
 8910W        W24041   8.097  10.901  15.942  0.1564 -0.0378 -0.1503
 8911W        W24042   3.916   4.679   3.740 -0.0982  0.1325  0.0916
 8912W        W24043  16.045  15.546  13.358  0.1100 -0.3457 -0.3841
 8913W        W24044   7.616   6.098  15.020  0.1615 -0.0225  0.1801
 8914W        W24045   4.229   6.280   0.537 -0.0187  0.0528 -0.0778
 8915W        W24046   4.664  16.015  16.360 -0.2299  0.1324  0.0481
 8916W        W24047   7.078   5.705   2.843  0.1328 -0.1305  0.1790
 8917W        W24048   6.143   6.851   2.844 -0.1620 -0.1051  0.3442
 8918W        W24049   2.863  10.344  11.103  0.0734  0.1078 -0.0720
 8919W        W24050  16.675   0.110  16.612 -0.1885  0.1794 -0.0804
 8920W        W24051   3.195  13.520   1.174  0.1097  0.0878  0.1975
 8921W        W24052   8.456   2.011   1.345 -0.0944 -0.0240 -0.0189
 8922W        W24053  11.003   5.247  12.834  0.0906 -0.1539  0.0781
 8923W        W24054   4.366   8.060   3.214  0.1403  0.2021 -0.0200
 8924W        W24055   4.662  13.370  13.294  0.0360  0.0457 -0.0664
 8925W        W24056   0.590   8.209   4.431  0.1380  0.2576  0.3365
 8926W        W24057   6.700   6.241   4.403 -0.0341 -0.0425 -0.4463
 8927W        W24058  13.642  17.289   3.891  0.0548  0.0523  0.1027
 8928W        W24059   9.502  17.229  16.368  0.1398 -0.1190  0.1898
 8929W        W24060   1.298  17.531  11.535  0.0897 -0.3863  0.2919
 8930W        W24061  11.407  13.540  13.970 -0.1098 -0.3224 -0.0350
 8931W        W24062   9.807   3.915   0.027 -0.3660 -0.3093 -0.0091
 8932W        W24063   2.273   1.838  11.971  0.1731  0.1323 -0.0770
 8933W        W24064   9.433   4.665  14.620 -0.0776 -0.0621 -0.1321
 8934W        W24065   8.885   3.987   0.990 -0.2095  0.2358 -0.4466
 8935W        W24066   0.485   1.892   4.698 -0.0013  0.2429 -0.0709
 8936W        W24067  16.584   5.693   2.447  0.2460  0.1749 -0.1612
 8937W        W24068  10.082   6.345   2.715  0.0455  0.0421 -0.0843
 8938W        W24069  15.436   5.884  15.468  0.0496  0.0968 -0.0386
 8939W        W24070  13.819  14.247  12.184  0.0414  0.1170  0.2146
 8940W        W24071  11.987   4.659   5.153  0.0224 -0.3294 -0.1059
 8941W        W24072  16.674   9.184   1.528 -0.1570 -0.0777 -0.0107
 8942W        W24073  15.002  13.506   1.563 -0.2907  0.1181 -0.3801
 8943W        W24074  17.224   4.329   5.166 -0.0950 -0.0754  0.0877
 8944W        W24075   9.094   8.262   0.300 -0.1135  0.2212  0.2620
 8945W        W24076   0.329   5.038  14.755 -0.1055 -0.2146  0.2033
 8946W        W24077   9.266  15.442  16.638  0.0526 -0.0194 -0.0390
 8947W        W24078  17.673   5.881  16.730  0.0025 -0.1811 -0.1347
 8948W        W24079   0.059   2.204  15.478 -0.0270  0.1163  0.0694
 8949W        W24080   6.251  16.770  15.166 -0.2824 -0.2886 -0.0703
 8950W        W24081  17.836   2.940  11.342 -0.2843 -0.2223  0.0639
 8951W        W24082   4.912   8.960   4.188  0.1681  0.0285 -0.2480
 8952W        W24083   1.486  16.849   5.984 -0.0138 -0.3973 -0.0509
 8953W        W24084  14.741  12.774  15.972  0.1452 -0.2671 -0.0607
 8954W        W24085   0.364   1.550   1.416 -0.0377 -0.0960 -0.0072
 8955W        W24086   0.584   3.691  13.402  0.0875  0.0865 -0.1371
 8956W        W24087  17.173   9.786  11.177  0.0886  0.0074 -0.0360
 8957W        W24088  10.613  13.727   5.436  0.0177  0.2439  0.0528
 8958W        W24089   1.779  11.267  11.817 -0.0408  0.0596  0.1205
 8959W        W24090  13.112  12.905   5.713 -0.0180 -0.2667 -0.0747
 8960W        W24091   8.586  15.857  14.202 -0.1248  0.1781  0.1089
 8961W        W24092   1.144   7.391  12.635 -0.0250  0.1455  0.0663
 8962W        W24093  17.462   4.685   1.307 -0.0757  0.0115  0.0052
 8963W        W24094  14.227  12.749   0.666  0.0352 -0.0637 -0.1647
 8964W        W24095   2.785  12.173   0.175  0.0387 -0.3397 -0.1486
 8965W        W24096   6.074   8.644   2.727  0.0215 -0.0724 -0.0682
 8966W        W24097  14.908   1.001   3.820  0.1534  0.4222 -0.3593
 8967W        W24098  16.613   5.729  14.745 -0.2544 -0.1118  0.1727
 8968W        W24099   8.639   5.265   1.301 -0.1690 -0.0031  0.2816
 8969W        W24100   0.205   0.406   5.929  0.2185 -0.1810 -0.0551
 8970W        W24101   1.066   0.084   2.894 -0.0812 -0.2349 -0.1365
 8971W        W24102  10.303  11.309   6.004  0.0808  0.1617  0.1233
 8972W        W24103   8.832  12.502   5.648  0.1280 -0.1123  0.2121
 8973W        W24104   5.316  12.861   1.091  0.1628 -0.2202  0.3325
 8974W        W24105  16.483  16.690   1.053  0.1747 -0.3132  0.0121
 8975W        W24106  15.648   1.308  15.333  0.1296  0.2850 -0.0100
 8976W        W24107   6.078  10.363  15.873 -0.1822  0.2916 -0.0352
 8977W        W24108   3.302   0.802  12.082 -0.4022  0.0788 -0.1873
 8978W        W24109  12.420   2.127  14.031 -0.1012  0.1616  0.1692
 8979W        W24110  15.893  13.615  14.569  0.4295  0.0018  0.1587
 8980W        W24111  10.095   4.515  14.574  0.2296  0.0437 -0.1064
 8981W        W24112  13.899   6.532  10.875 -0.2177 -0.0556 -0.0253
 8982W        W24113  14.673   6.533   5.022  0.2196 -0.1060 -0.2906
 8983W        W24114  10.949  11.318  13.069  0.2718 -0.0969  0.2032
 8984W        W24115  13.216   5.872   4.504 -0.0139  0.0595  0.1652
 8985W        W24116  14.709  11.572  13.895  0.1656 -0.0237  0.0833
 8986W        W24117  12.271   4.537  12.869 -0.2201  0.1139  0.4404
 8987W        W24118   5.432  13.429  11.975 -0.2037  0.2241 -0.1002
 8988W        W24119   8.543  16.668  14.163  0.0316  0.0953 -0.0537
 8989W        W24120   7.956   8.967   1.576  0.4652 -0.0362 -0.0579
 8990W        W24121   9.101  11.502  13.219  0.1626 -0.1867 -0.1894
 8991W        W24122   9.294  12.408   2.911  0.0858 -0.0300  0.2540
 8992W        W24123   3.296  16.983  14.828 -0.1740  0.0348 -0.1829
 8993W        W24124  17.085   3.906  14.712  0.1712 -0.1448 -0.1549
 8994W        W24125   1.467  11.287  12.272 -0.1802 -0.0190  0.1140
 8995W        W24126  10.677  14.467  13.461  0.0821 -0.0264 -0.0224
 8996W        W24127   8.711   4.454   4.534  0.1020  0.0014 -0.0427
 8997W        W24128   8.186   2.866  10.722  0.1368 -0.0164 -0.1126
 8998W        W24129   6.510  14.681  12.878  0.0523 -0.2227 -0.1259
 8999W        W24130   7.822  14.418   2.068 -0.0905  0.1037  0.1377
 9000W        W24131  11.898   9.890   3.971  0.0010  0.0246  0.2102
 9001W        W24132   8.622  16.516   1.857  0.2241  0.0199  0.0828
 9002W        W24133  15.885  14.557  16.645 -0.1337  0.0271 -0.0220
 9003W        W24134   3.809   4.059  14.702 -0.2350 -0.0100  0.2287
 9004W        W24135  16.954   1.925   4.949  0.4334  0.1279  0.1765
 9005W        W24136   1.478  12.801  13.208  0.2112  0.1394 -0.0682
 9006W        W24137   8.246   8.208  14.922 -0.2173 -0.0271  0.2171
 9007W        W24138  16.935   1.704  13.132  0.1390  0.1266  0.1043
 9008W        W24139   1.333   2.519   3.759 -0.0192  0.1125  0.2636
 9009W        W24140   8.385   4.397   0.229 -0.0601 -0.2331  0.0100
 9010W        W24141   9.075   9.947  15.026  0.1039  0.2625  0.0049
 9011W        W24142  11.519   5.810  10.600 -0.1696  0.0696 -0.1806
 9012W        W24143   7.529   9.592   4.760  0.2318  0.0168  0.0304
 9013W        W24144   3.266  10.315   2.483 -0.0061 -0.0332  0.1133
 9014W        W24145   1.758   9.667  15.114 -0.1232  0.0427 -0.0042
 9015W        W24146  15.661  15.525   1.008 -0.1074  0.2336  0.0711
 9016W        W24147  15.480   3.476  10.998  0.0772  0.0860 -0.2907
 9017W        W24148  16.826  12.113   5.497 -0.0242  0.0113 -0.4124
 9018W        W24149  15.000   4.606   1.299 -0.1494  0.1145 -0.0237
 9019W        W24150  17.814  15.150   2.007 -0.2096  0.3366  0.0536
 9020W        W24151   3.299  13.965   1.507  0.0348  0.1211 -0.1071
 9021W        W24152   3.463   7.010  11.252 -0.0710  0.0102 -0.2024
 9022W        W24153   4.520   7.406   2.153 -0.3294 -0.1065 -0.3360
 9023W        W24154   7.429   6.461   2.055 -0.0016 -0.1527 -0.1238
 9024W        W24155   1.978  16.013  16.102  0.1654 -0.2435 -0.0732
 9025W        W24156   1.646  10.514  14.437  0.1466  0.2775 -0.1359
 9026W        W24157   0.649   6.550   5.299  0.1804  0.0846 -0.4487
 9027W        W24158  11.441  17.539  11.262  0.1010 -0.1434  0.0373
 9028W        W24159   7.114   8.471   4.228  0.0985 -0.0624  0.1281
 9029W        W24160  17.459   0.551   2.698  0.0746 -0.1562  0.1772
 9030W        W24161  13.825   1.346   1.752 -0.0373 -0.1322  0.2201
 9031W        W24162   6.602  14.124  16.771 -0.0512  0.0857  0.0629
 9032W        W24163   9.941   1.113   1.842  0.0984 -0.1537  0.0832
 9033W        W24164  14.257   0.078   0.293  0.2550 -0.1670 -0.3592
 9034W        W24165   0.787   4.182   0.399  0.0157  0.0031 -0.2195
 9035W        W24166  17.357   6.944  13.472  0.1082  0.2608 -0.0119
 9036W        W24167   5.598  10.940  16.143  0.1186  0.2159  0.0092
 9037W        W24168  10.522  10.966   1.014  0.1182 -0.0790 -0.0336
 9038W        W24169   9.984  13.208  14.676 -0.1547 -0.0911 -0.2947
 9039W        W24170  16.691  17.266   0.630 -0.1587  0.3592  0.1444
 9040W        W24171   5.791  16.820  11.813  0.1331 -0.3403  0.0306
 9041W        W24172   5.988   6.058   2.894  0.1443  0.0758  0.0355
 9042W        W24173  11.650   6.549  13.300 -0.3169  0.0338  0.0585
 9043W        W24174  14.843  11.833   5.806  0.3344  0.0024 -0.1848
 9044W        W24175   8.509  13.633   4.799  0.2659 -0.0953  0.1021
 9045W        W24176  16.470   8.055  15.830 -0.2023  0.3317 -0.0920
 9046W        W24177   6.903  11.410   5.975  0.1793 -0.1355  0.2935
 9047W        W24178   4.484   9.642  16.369 -0.1954 -0.1235 -0.0849
 9048W        W24179  13.418   7.138  13.558  0.0015  0.1924 -0.1821
 9049W        W24180  12.121  11.787   3.720  0.1845 -0.0327  0.1367
 9050W        W24181   4.807  15.160  16.656 -0.1191  0.0897  0.1200
 9051W        W24182   1.658  14.323   1.219  0.1609 -0.0839  0.0554
 9052W        W24183  16.338  10.443   4.722  0.1141 -0.0440  0.0050
 9053W        W24184   5.477   5.582   5.280  0.1615 -0.2514 -0.0782
 9054W        W24185  14.787  11.576   2.067  0.0969 -0.2349 -0.0964
 9055W        W24186  12.766  17.263   2.674 -0.1199  0.0644  0.0642
 9056W        W24187   3.809  12.579  16.037  0.2307 -0.2676  0.1174
 9057W        W24188  17.203   0.274   1.463  0.1183  0.0576  0.1437
 9058W        W24189   3.018   6.776   4.683  0.0747 -0.1090 -0.3434
 9059W        W24190  17.579   7.119   3.440 -0.1213  0.0838  0.1067
 9060W        W24191  14.945   1.207  11.233 -0.0691  0.2984 -0.2730
 9061W        W24192   5.003  11.867  13.319  0.2189 -0.0303 -0.1445
 9062W        W24193   8.542  12.921  12.726  0.0960 -0.2346 -0.0548
 9063W        W24194  17.426   3.009   4.894 -0.1523 -0.2591  0.2858
 9064W        W24195  13.045  16.567  11.331  0.0228  0.3340  0.0632
 9065W        W24196   1.520  13.871   1.065  0.1137 -0.3001 -0.1403
 9066W        W24197  12.533  13.516   5.666 -0.0224 -0.0318 -0.0057
 9067W        W24198   1.484  10.741  13.610 -0.1842  0.0945 -0.0768
 9068W        W24199   4.245   1.871   1.826  0.0002 -0.1569  0.0372
 9069W        W24200  17.722  13.325   4.869 -0.0371 -0.0974  0.3233
 9070W        W24201  15.621  10.552   4.998 -0.0171 -0.0256  0.0856
 9071W        W24202  12.742   7.218  11.040 -0.1032 -0.0793  0.0842
 9072W        W24203  13.265   8.187  11.841  0.1366  0.2100  0.2623
 9073W        W24204   4.605   5.258   0.767 -0.0597 -0.0206  0.2753
 9074W        W24205  17.212  14.912   0.133 -0.0125 -0.3295  0.1588
 9075W        W24206  15.682  10.389  14.359  0.1233 -0.1930  0.0582
 9076W        W24207   7.842   5.525   4.447 -0.1228 -0.0499 -0.0372
 9077W        W24208   9.444   5.846   3.001  0.0254  0.1145 -0.0240
 9078W        W24209   0.930   1.224  16.407 -0.0314  0.2082  0.0417
 9079W        W24210   5.166   8.567  13.342  0.1377  0.2798 -0.0940
 9080W        W24211   8.032  17.285   5.259 -0.1800  0.3706  0.0502
 9081W        W24212   0.679   6.504   2.442 -0.1027 -0.0114 -0.0729
 9082W        W24213  17.219  13.455   1.346 -0.1745  0.1064  0.2168
 9083W        W24214   3.759   4.321   3.475 -0.0753 -0.3147 -0.0520
 9084W        W24215   9.338  10.375   3.595  0.1672  0.0925  0.2249
 9085W        W24216  16.892   0.940   6.712  0.1736  0.2071 -0.1543
 9086W        W24217  10.497  14.676  10.816  0.3770  0.1677 -0.0013
 9087W        W24218   5.965  12.026   0.840  0.1088 -0.2173  0.0948
 9088W        W24219   9.785  12.795  15.896 -0.0831 -0.1770  0.0662
 9089W        W24220  11.641  10.361   4.804  0.1322  0.2475  0.3994
 9090W        W24221  13.185   5.002   2.596 -0.0835  0.1147  0.1041
 9091W        W24222  16.985   1.245  13.376  0.3292 -0.2843  0.0579
 9092W        W24223   5.287  15.693   0.702  0.1309  0.1515 -0.1447
 9093W        W24224   0.575   5.522   2.866 -0.1849 -0.0939 -0.0623
 9094W        W24225   5.410   7.332  15.762  0.0379 -0.3281  0.0558
 9095W        W24226  16.650  11.497  11.840 -0.0004  0.0022  0.1859
 9096W        W24227   7.448  17.561   3.724  0.1154 -0.2945 -0.0101
 9097W        W24228   3.454  10.891   3.215  0.1771  0.0108  0.4066
 9098W        W24229   0.102  14.863  16.472 -0.1124 -0.3280 -0.2891
 9099W        W24230  11.906   0.017   1.477 -0.2547 -0.0499  0.0541
 9100W        W24231  10.871  12.956   1.913 -0.0318 -0.2895  0.1487
 9101W        W24232  17.063   7.720   3.305  0.1710  0.0945  0.3099
 9102W        W24233  16.070  16.656   0.763 -0.0664 -0.3121 -0.0993
 9103W        W24234   5.852   9.046  11.447  0.1560  0.0836 -0.3256
 9104W        W24235  17.335   6.628   0.365  0.2090 -0.1138  0.1876
 9105W        W24236   3.051   1.236   3.344  0.0556  0.0553 -0.0807
 9106W        W24237  12.758  14.953  15.975  0.0132  0.2093  0.2579
 9107W        W24238  13.848  10.486  15.227  0.1364  0.1112  0.1614
 9108W        W24239   9.424   0.267  15.338 -0.0875 -0.0401  0.1549
 9109W        W24240  13.458  11.808   4.060 -0.0163  0.2486  0.2131
 9110W        W24241  15.182   9.471   4.263 -0.1074 -0.1311 -0.1706
 9111W        W24242   4.198   0.252  15.487 -0.0315  0.0526 -0.0764
 9112W        W24243  14.855   7.675   0.091 -0.1543 -0.1698 -0.1869
 9113W        W24244   7.767   3.113  12.462  0.2742  0.1356  0.2318
 9114W        W24245   9.921   0.827  15.656 -0.0963  0.3223  0.0006
 9115W        W24246   9.629  10.915   4.487 -0.1963 -0.1705  0.0423
 9116W        W24247  14.372  14.056   2.671  0.0436  0.1559  0.0691
 9117W        W24248  11.702   8.903  14.709  0.0379  0.1558  0.2437
 9118W        W24249   9.527  16.048   2.760  0.1893  0.0793  0.0966
 9119W        W24250   4.200  13.827  13.677 -0.1259 -0.2182  0.2286
 9120W        W24251  14.279   5.900  15.487  0.1416  0.1860  0.0692
 9121W        W24252   4.044   7.234  10.200  0.1811 -0.2147  0.1889
 9122W        W24253   5.633   3.545   4.489 -0.3734  0.1770 -0.1313
 9123W        W24254   5.145   3.607   2.925 -0.1016  0.1333 -0.2282
 9124W        W24255   4.982   8.466   0.961 -0.0444  0.1353 -0.0425
 9125W        W24256   9.500   1.257   0.562 -0.1956 -0.4344  0.1871
 9126W        W24257   2.952   0.978   2.760 -0.0291  0.2114 -0.0821
 9127W        W24258   0.277   5.719   1.954  0.0658  0.7095 -0.1876
 9128W        W24259  16.026   7.557  15.686  0.1150 -0.0537  0.1743
 9129W        W24260  13.884  15.431   4.070 -0.3370 -0.3189  0.0093
 9130W        W24261   1.320   1.096   5.298  0.0121 -0.0038  0.0341
 9131W        W24262   4.016  10.858  12.020 -0.0759  0.0261  0.5782
 9132W        W24263   3.555   4.322  16.312 -0.1751 -0.1531 -0.0917
 9133W        W24264   3.973   3.364  16.270  0.0017 -0.2084  0.0616
 9134W        W24265   6.400   9.313  12.396  0.0782 -0.4430  0.1184
 9135W        W24266  15.600  10.973  12.055  0.1588 -0.3470  0.1711
 9136W        W24267  16.799   7.203   5.436 -0.2313  0.2537  0.1869
 9137W        W24268  10.994  14.503  13.087  0.3009 -0.2266 -0.1344
 9138W        W24269   1.352  14.966   0.200  0.2121 -0.2742 -0.2600
 9139W        W24270  17.526  16.069   0.787  0.0681  0.1416  0.0929
 9140W        W24271  14.634   2.812  13.112  0.0150 -0.1714  0.0462
 9141W        W24272   6.443  17.798  16.245 -0.2486 -0.0976 -0.2759
 9142W        W24273   8.407  10.045  15.706  0.0194  0.2943  0.0614
 9143W        W24274  16.179  13.011  15.464 -0.3329  0.0609 -0.1504
 9144W        W24275   2.041   1.428  13.551  0.1233 -0.1134  0.0757
 9145W        W24276  17.431   0.003  13.175 -0.0745  0.1266 -0.2547
 9146W        W24277  11.839  14.014   2.154  0.1899 -0.4301  0.0070
 9147W        W24278   1.075  13.473   4.300  0.2121 -0.1329 -0.0366
 9148W        W24279   3.657   8.505  11.742 -0.0258 -0.3059 -0.3276
 9149W        W24280  15.823  11.801   1.407 -0.1116  0.0572  0.1047
 9150W        W24281  13.377   4.090   2.508  0.0127 -0.0322 -0.1088
 9151W        W24282   6.717  16.238  16.198  0.1679 -0.0180  0.0961
 9152W        W24283  11.933   0.214  10.355  0.0131  0.2822  0.2412
 9153W        W24284  15.278   4.223  12.926 -0.1504  0.0199 -0.2787
 9154W        W24285   6.292   6.722  15.656  0.1250  0.1542  0.3464
 9155W        W24286   2.953   4.736   2.448  0.1270  0.2663  0.0453
 9156W        W24287   4.161   9.493  14.795 -0.0536  0.0453 -0.1706
 9157W        W24288   1.020   5.634   1.554 -0.2238 -0.0243 -0.1263
 9158W        W24289  11.676   6.074   3.959  0.3010 -0.1660  0.2035
 9159W        W24290   2.691   4.411   0.160  0.2626  0.1446  0.0790
 9160W        W24291   3.034   3.237   2.262  0.0185 -0.0993 -0.3103
 9161W        W24292  13.462  16.751   4.427  0.1493  0.5582  0.1588
 9162W        W24293  10.033   5.080  13.049 -0.1020 -0.2874 -0.0880
 9163W        W24294  12.719   9.851  14.041 -0.2281  0.1310 -0.1544
 9164W        W24295   6.732  10.305  13.704 -0.0720  0.1206  0.1098
 9165W        W24296  11.595   1.413   5.016 -0.1047 -0.0062  0.1477
 9166W        W24297  15.276  14.108  12.129  0.2349 -0.1128  0.1477
 9167W        W24298   0.290  14.351  13.170 -0.0616  0.3089 -0.1608
 9168W        W24299  12.731  12.634  14.893 -0.0306 -0.2034  0.2263
 9169W        W24300  16.866  10.272  16.453  0.2856  0.4256 -0.2561
 9170W        W24301   0.617  15.934   6.732 -0.2611  0.1557 -0.0194
 9171W        W24302   5.869   6.227  15.023  0.2302  0.0840  0.0484
 9172W        W24303  15.555   0.280  10.702  0.0462 -0.6339 -0.0483
 9173W        W24304  11.150  17.226  14.771 -0.1155  0.1915 -0.0898
 9174W        W24305   4.289   4.866  14.251  0.0399 -0.1284  0.2587
 9175W        W24306   7.197   5.911  15.155  0.2071 -0.0425 -0.0480
 9176W        W24307   2.039  15.625   3.841 -0.2875  0.1366  0.1152
 9177W        W24308   6.558   9.793   5.935  0.1607  0.3026  0.0768
 9178W        W24309  12.428   5.363   4.092 -0.0088  0.2426  0.4347
 9179W        W24310   2.002  13.320  13.827 -0.1296 -0.0271  0.0145
 9180W        W24311   1.702   2.791  12.214  0.0507 -0.2351  0.1283
 9181W        W24312  12.442   5.847  12.230  0.0298 -0.1562  0.1726
 9182W        W24313   5.343   4.267   2.329  0.0741  0.0782  0.0842
 9183W        W24314  10.602  14.833   4.901 -0.1171  0.0646 -0.1473
 9184W        W24315   2.866   6.079   5.509  0.2548  0.3230 -0.0678
 9185W        W24316   6.570  12.539  12.479  0.0165 -0.0391 -0.2596
 9186W        W24317  10.335   8.438   0.248 -0.4803  0.2058 -0.0025
 9187W        W24318  15.122   7.623  12.191 -0.0317 -0.2174  0.0234
 9188W        W24319  15.688   8.929   1.681 -0.2613 -0.0855  0.5617
 9189W        W24320  10.040   1.868  11.735  0.2912 -0.1821 -0.0615
 9190W        W24321  13.994   5.032   1.898  0.0060 -0.0419  0.1978
 9191W        W24322   7.043  15.991  12.239  0.0674 -0.2035 -0.1423
 9192W        W24323   3.968   9.625  16.418  0.0112 -0.1709  0.1799
 9193W        W24324   0.777  14.887   4.581 -0.1538 -0.0476 -0.1418
 9194W        W24325  15.635   9.537  15.486  0.1480  0.0973 -0.0186
 9195W        W24326   8.644   3.947   2.472  0.0361 -0.4412  0.0005
 9196W        W24327   8.106   2.809  14.026 -0.2407 -0.1807  0.0255
 9197W        W24328  13.883   6.147  10.046 -0.0563 -0.0889 -0.2556
 9198W        W24329   9.909   8.285   3.221 -0.0527 -0.1515  0.0651
 9199W        W24330   1.696  14.160   3.437 -0.0620  0.2992 -0.2083
 9200W        W24331   9.492   1.973   4.331  0.1639  0.3025 -0.1257
 9201W        W24332   7.543  13.569  13.549 -0.0914 -0.0891  0.0920
 9202W        W24333  14.213  14.470   2.871  0.1842 -0.1195  0.0872
 9203W        W24334  12.209   0.421   2.191  0.0012  0.1909  0.0850
 9204W        W24335   6.559  12.814  11.712  0.0324  0.0701 -0.0790
 9205W        W24336   1.693  17.829  15.686 -0.1334 -0.1453  0.2009
 9206W        W24337  17.079   3.669   1.312  0.0195 -0.1165  0.0067
 9207W        W24338   6.617   6.345   1.534  0.0407  0.0325 -0.2404
 9208W        W24339   5.437   8.164  13.434  0.3209  0.0032 -0.2750
 9209W        W24340  14.744   2.693   0.135  0.1977  0.3596 -0.2868
 9210W        W24341  15.990  13.476   2.390 -0.0916 -0.2060 -0.2282
 9211W        W24342  15.279  14.747  12.729  0.1353  0.0080 -0.1478
 9212W        W24343   6.171   1.066  15.452  0.2015  0.3273 -0.1531
 9213W        W24344   1.997  13.903  15.615  0.2833 -0.0043 -0.2610
 9214W        W24345   4.824  16.597  13.421 -0.0674  0.1873  0.2174
 9215W        W24346  11.580   0.783   4.474 -0.1635 -0.0289 -0.1374
 9216W        W24347   3.777   7.452   5.106 -0.1182  0.0287 -0.2409
 9217W        W24348   9.948  16.675   6.177 -0.1003 -0.1685  0.1462
 9218W        W24349  12.597  15.333  15.671  0.0437 -0.0742 -0.2975
 9219W        W24350   7.441  10.537  14.824 -0.0233  0.0024  0.0632
 9220W        W24351   0.088   2.124   0.040  0.1114 -0.2576  0.0550
 9221W        W24352  11.282  16.748   0.318  0.1887  0.0574  0.1034
 9222W        W24353  12.634   7.442  12.735  0.0691 -0.2824  0.0236
 9223W        W24354   5.325   4.474  14.044  0.0855  0.3029 -0.2061
 9224W        W24355  17.404   2.750  11.329 -0.0295 -0.1427  0.2380
 9225W        W24356   2.630   0.141  15.330  0.2492 -0.0057 -0.2042
 9226W        W24357  16.063   6.150  13.151  0.0779  0.2103 -0.0061
 9227W        W24358   4.058   9.434   3.046  0.4699  0.0964  0.1539
 9228W        W24359  11.972   5.659  10.768  0.3601  0.1411 -0.2383
 9229W        W24360  12.369   8.117   0.753 -0.0691  0.1421  0.0559
 9230W        W24361   6.007   0.849  13.929 -0.1835  0.2754  0.2459
 9231W        W24362   3.912   3.854   5.992 -0.0111  0.1150  0.1521
 9232W        W24363  15.764  16.924   2.353 -0.1422  0.0426  0.1163
 9233W        W24364   1.126  12.100   4.523  0.0695  0.0646 -0.0237
 9234W        W24365  17.808   7.010  12.556 -0.1450 -0.2713  0.1935
 9235W        W24366   2.440   0.660  13.361 -0.0089  0.0070 -0.0765
 9236W        W24367   2.110  15.113   3.811  0.0791 -0.0199  0.4850
 9237W        W24368   5.002   1.278   5.391 -0.0178 -0.0936 -0.0797
 9238W        W24369   1.264  15.520   1.354  0.1509 -0.1018  0.0581
 9239W        W24370  15.955   8.081  13.525  0.0755 -0.0694  0.2190
 9240W        W24371   5.807   4.506   2.588  0.0638  0.0232 -0.1085
 9241W        W24372  17.459   5.900  13.523  0.0846  0.0870  0.1308
 9242W        W24373   3.741   8.398   1.507  0.1895 -0.1260 -0.2878
 9243W        W24374   3.474  11.219  11.331  0.3180 -0.1506 -0.1142
 9244W        W24375   9.619  11.497  15.098  0.0603  0.0814  0.3432
 9245W        W24376   0.210  12.239   3.676 -0.0530  0.2049  0.2643
 9246W        W24377   9.058   3.308  11.005  0.0712  0.1448  0.0159
 9247W        W24378  11.223   2.342  16.511 -0.1327 -0.3338 -0.1945
 9248W        W24379   2.008   8.705  11.213  0.3880 -0.2203 -0.1068
 9249W        W24380   7.468  12.350   0.520 -0.1884  0.1188 -0.0104
 9250W        W24381   9.280   0.020   1.166 -0.2849  0.0763 -0.1235
 9251W        W24382   8.378   6.703   3.241  0.0278 -0.0655 -0.1013
 9252W        W24383  15.661   5.274  14.605 -0.0211 -0.0664  0.0240
 9253W        W24384  11.072  10.086  14.665 -0.3253  0.2597 -0.0704
 9254W        W24385  17.533  17.391  15.740  0.0790  0.1160 -0.0374
 9255W        W24386  10.631  14.863  13.100 -0.1801  0.0066 -0.3365
 9256W        W24387  16.223   4.294  14.005 -0.0248 -0.1118 -0.0080
 9257W        W24388   0.382   9.546  11.648 -0.1227  0.4131  0.1395
 9258W        W24389   6.676   0.721   3.675  0.0562  0.0277 -0.1437
 9259W        W24390  16.055   2.097   0.785  0.1765 -0.2476 -0.1364
 9260W        W24391  15.297   1.743   4.733  0.1579 -0.0634 -0.0333
 9261W        W24392  15.855   4.194  11.173  0.0061 -0.0382 -0.3101
 9262W        W24393  17.119  15.263   2.650  0.0727  0.0703  0.0780
 9263W        W24394   9.726   2.224  12.421  0.0514  0.0754  0.0918
 9264W        W24395   9.243  14.954   4.540  0.0719  0.1716  0.3411
 9265W        W24396  10.595   2.290  11.196  0.1643  0.2547  0.0817
 9266W        W24397   8.697  11.499  16.731 -0.2582  0.0651  0.0768
 9267W        W24398   9.759  16.912  13.117  0.4051 -0.2229  0.1049
 9268W        W24399   1.505  14.408   5.365 -0.1517 -0.1988 -0.1075
 9269W        W24400   8.354   0.060  11.288  0.0337  0.1955 -0.0970
 9270W        W24401   3.047  17.092   4.034 -0.1318  0.3229 -0.1894
 9271W        W24402   1.124   1.138   6.890  0.0320  0.0700  0.1089
 9272W        W24403  11.091   6.642  12.522 -0.2150 -0.1524  0.2344
 9273W        W24404   6.982  17.668   4.545 -0.1507  0.1530  0.1103
 9274W        W24405  11.711   0.241   4.056  0.1120 -0.0309  0.1577
 9275W        W24406   2.054   1.156  10.820  0.0153  0.2428 -0.2591
 9276W        W24407   6.252   8.807  11.601  0.1182 -0.1446  0.2613
 9277W        W24408   5.037   6.613   6.141 -0.0078  0.0678  0.0301
 9278W        W24409  10.715  13.751  16.659 -0.3578  0.6188  0.0429
 9279W        W24410  12.298  17.367   4.731  0.0766 -0.4783 -0.1321
 9280W        W24411  10.201  14.526  16.432  0.0546 -0.3343 -0.0010
 9281W        W24412  16.009  10.013   0.577  0.0530 -0.2057 -0.0886
 9282W        W24413   0.169  14.038   2.426  0.1703 -0.2237  0.0220
 9283W        W24414   3.618   6.345  13.515 -0.0643  0.2137  0.0007
 9284W        W24415   6.460  11.758   1.585  0.2096  0.0407  0.1604
 9285W        W24416   7.009   5.149  13.566 -0.0326  0.2953 -0.2859
 9286W        W24417   9.182  10.838   3.210 -0.1861  0.0431  0.1101
 9287W        W24418  12.921   2.230   6.353 -0.0819 -0.1592 -0.4132
 9288W        W24419   9.996  13.505   0.527 -0.1127  0.0080  0.0382
 9289W        W24420  12.839  12.554  12.403  0.0427 -0.3361 -0.1767
 9290W        W24421   8.387  12.995  15.749 -0.0878 -0.2970 -0.0096
 9291W        W24422   6.915  10.763  11.778 -0.0738  0.2453 -0.2016
 9292W        W24423   0.896   1.569   3.222 -0.0932  0.1175  0.3557
 9293W        W24424  14.837  12.751  12.025  0.2214 -0.0338  0.0229
 9294W        W24425   8.563   2.291  14.531 -0.2152  0.2351  0.1989
 9295W        W24426  12.107   5.156  16.000  0.0187 -0.2372 -0.1356
 9296W        W24427   6.064   7.416   3.688  0.2862  0.0068 -0.1245
 9297W        W24428   1.160   1.725  14.379  0.6685  0.0303  0.0919
 9298W        W24429  17.148   1.156   0.046  0.3760  0.0309 -0.3631
 9299W        W24430   6.095  12.590   0.777  0.3335 -0.1367 -0.1372
 9300W        W24431   4.829   2.461   0.881  0.1912  0.1365  0.0836
 9301W        W24432   9.716   9.324  11.305 -0.1286 -0.1735  0.2255
 9302W        W24433   7.341  15.597  15.895 -0.2929 -0.0304 -0.3065
 9303W        W24434  12.934   0.579   3.550  0.2092  0.0018  0.0677
 9304W        W24435  14.071  12.172  15.435  0.0144 -0.3215 -0.1711
 9305W        W24436   7.681   4.110   5.015  0.1853  0.0201 -0.3180
 9306W        W24437   0.860  16.880  15.317  0.1560  0.0011 -0.3309
 9307W        W24438  13.616  14.468   4.382 -0.0530  0.0387  0.2959
 9308W        W24439   6.260   7.686   2.936  0.1260  0.0779  0.0368
 9309W        W24440  12.735  13.093   0.807  0.1603  0.1064  0.1792
 9310W        W24441  16.109  10.838   0.568  0.0834  0.3339  0.2368
 9311W        W24442  17.743   8.729   4.952  0.1557  0.3063 -0.0203
 9312W        W24443   7.930  17.759   3.557  0.0915  0.0824  0.2065
 9313W        W24444  16.417   8.279  11.576  0.0070  0.0697 -0.3192
 9314W        W24445   1.640   7.179   4.673  0.0230 -0.0467  0.0925
 9315W        W24446  14.155  11.473   2.319  0.2634  0.0071 -0.3371
 9316W        W24447   6.342   7.607   4.582 -0.1320 -0.0499 -0.1809
 9317W        W24448   1.735   9.086  16.673 -0.0708 -0.2948  0.0268
 9318W        W24449   5.421   9.571  11.097 -0.0771  0.4324 -0.1726
 9319W        W24450   7.942  15.757   1.849  0.0866 -0.3955 -0.0343
 9320W        W24451  14.038   3.451   3.122  0.2380  0.2875  0.0831
 9321W        W24452   6.363  14.474  11.523  0.0299  0.0239 -0.0248
 9322W        W24453  16.965   3.541   4.162  0.1745 -0.1453  0.1624
 9323W        W24454  14.125   4.431  14.683 -0.3091 -0.1128 -0.0726
 9324W        W24455   1.288  11.121  16.056  0.0104 -0.2462 -0.2989
 9325W        W24456  12.984   7.707   4.555 -0.3229 -0.1037  0.0963
 9326W        W24457  12.229  13.424   4.269  0.3280  0.0480  0.1714
 9327W        W24458  17.089  15.087   0.716  0.1097 -0.1716  0.0826
 9328W        W24459  12.015   1.463  15.213 -0.0404 -0.0451  0.0172
 9329W        W24460   4.980  13.153   1.775 -0.1638 -0.2941  0.3658
 9330W        W24461   0.498   9.524  13.036  0.0797  0.1786 -0.2119
 9331W        W24462   8.203  11.713  15.399  0.1238  0.1271 -0.0681
 9332W        W24463   8.494  11.818   2.688  0.0895 -0.0080  0.0406
 9333W        W24464   3.107  11.204   0.304  0.1671  0.2225 -0.2171
 9334W        W24465  17.848  12.094  15.718 -0.0386 -0.1362 -0.1884
 9335W        W24466  12.343  17.287  15.339 -0.1156 -0.1568 -0.2650
 9336W        W24467   9.198   7.583  12.295  0.4120  0.1671 -0.0107
 9337W        W24468   7.180  11.122   6.357  0.0364 -0.0607  0.1721
 9338W        W24469   6.809  15.996  15.755 -0.0670  0.2160  0.1815
 9339W        W24470  11.060  17.150   3.540  0.0662 -0.1860  0.1234
 9340W        W24471   1.475  14.976  15.505  0.1883  0.0924 -0.1419
 9341W        W24472   1.680   7.376  10.797 -0.1127 -0.2570  0.2397
 9342W        W24473  14.735  14.182   2.259  0.0512  0.2996 -0.1480
 9343W        W24474   6.120  10.890   4.061  0.2531  0.1153  0.1064
 9344W        W24475   7.195   0.460  16.595 -0.0596 -0.0711  0.2485
 9345W        W24476   1.488   8.083   5.423  0.3240  0.2173  0.2047
 9346W        W24477  12.906   8.682  12.109  0.0337  0.2687 -0.1883
 9347W        W24478   5.294   6.819   2.737 -0.1177 -0.0512 -0.0648
 9348W        W24479   8.792  13.630  15.244 -0.2393 -0.1335 -0.3026
 9349W        W24480   0.615   9.679   0.259  0.0078 -0.0284 -0.1624
 9350W        W24481   8.684   5.701  12.217  0.0667 -0.5793 -0.2004
 9351W        W24482   9.866  13.720   2.843  0.2293  0.0669 -0.0001
 9352W        W24483  10.520  16.676  15.870  0.0129  0.0135  0.0307
 9353W        W24484   1.339  11.501   3.800 -0.2851  0.0216 -0.0506
 9354W        W24485   2.051   8.513  15.880  0.0101 -0.1199  0.0158
 9355W        W24486  11.006   0.714   4.619 -0.5439  0.4401 -0.0905
 9356W        W24487   2.492  10.076  11.527 -0.1049 -0.1106  0.5585
 9357W        W24488   3.637  17.808   3.024  0.0754  0.2781 -0.0265
 9358W        W24489  13.161  17.121   3.938 -0.0876  0.1040 -0.2442
 9359W        W24490  17.848  15.057   3.512 -0.1985  0.2592  0.2624
 9360W        W24491  16.826   5.855  11.949 -0.1480  0.2312  0.0471
 9361W        W24492   8.045   6.926  12.564  0.0425  0.3335 -0.3380
 9362W        W24493  11.521  17.876   0.777  0.1253  0.1429 -0.1260
 9363W        W24494  17.836   9.846   3.752  0.0046 -0.1096 -0.0089
 9364W        W24495  11.730  10.937  11.468 -0.2209  0.1799 -0.0376
 9365W        W24496  11.243  17.137  16.212 -0.0024  0.0701  0.0696
 9366W        W24497   2.018  17.241   3.516 -0.1471 -0.2149  0.3986
 9367W        W24498   6.851   0.945   3.244 -0.0959 -0.0581 -0.2065
 9368W        W24499   1.035   0.856   1.632  0.1411  0.2103  0.2092
 9369W        W24500   8.563   1.198  11.416 -0.3693 -0.1560  0.2495
 9370W        W24501   8.673  13.391  16.592 -0.1945 -0.1661  0.0011
 9371W        W24502   5.910   0.132   1.971 -0.0244  0.1219  0.1570
 9372W        W24503  11.366  16.172  13.473 -0.0105 -0.1037  0.2870
 9373W        W24504   2.460   6.555  14.000  0.0344 -0.1110  0.1375
 9374W        W24505  14.546  11.823  12.517 -0.2524  0.0571 -0.0719
 9375W        W24506   2.394   4.555   1.135 -0.3030 -0.0648  0.3168
 9376W        W24507  14.751   2.970  11.012 -0.1320  0.1958 -0.2904
 9377W        W24508  15.168  13.818   5.607 -0.0413  0.0377  0.2377
 9378W        W24509  16.493  14.329  13.396 -0.2366 -0.0149  0.1082
 9379W        W24510  16.989   9.872   2.566  0.1559  0.0715  0.0234
 9380W        W24511   3.345   4.635   0.178  0.1351 -0.2098  0.0811
 9381W        W24512   8.438  17.458  11.576 -0.2019 -0.1071  0.0007
 9382W        W24513  17.397   1.718  13.954  0.0055  0.1060  0.1087
 9383W        W24514  11.093   5.063  16.205 -0.2034 -0.1923  0.1945
 9384W        W24515  11.198  13.438  11.372  0.1001 -0.3719 -0.2285
 9385W        W24516   8.783   6.467  12.130  0.1049 -0.1059 -0.1263
 9386W        W24517  11.102  14.629   0.872 -0.4145 -0.2500  0.3310
 9387W        W24518  11.603   2.340   4.450  0.2447  0.1685 -0.2808
 9388W        W24519   1.214  10.135  15.759  0.2398  0.1140 -0.0408
 9389W        W24520  14.899   7.284  15.454  0.1246  0.1246  0.1371
 9390W        W24521   8.843  17.020  12.336 -0.1180 -0.0052  0.1171
 9391W        W24522   7.795  10.884  13.422  0.0670 -0.1464 -0.1940
 9392W        W24523   1.855   0.104   4.088 -0.2030  0.0340  0.2335
 9393W        W24524   5.374   2.136   0.243 -0.0046 -0.2308 -0.1327
 9394W        W24525   7.489   7.189   1.841 -0.0994 -0.0547  0.3983
 9395W        W24526  15.541   8.840   0.157  0.0962 -0.1098 -0.0621
 9396W        W24527   8.687   2.184  14.022 -0.0045  0.2088  0.0332
 9397W        W24528  11.453  17.757  13.117 -0.3544  0.0887 -0.1043
 9398W        W24529   7.231   3.989   5.210  0.2634  0.0807 -0.1941
 9399W        W24530  16.081  11.568  16.008  0.1526  0.0694 -0.0649
 9400W        W24531   8.902   9.156   1.662  0.4666  0.2122  0.1875
 9401W        W24532   7.789   9.142  12.891 -0.1774 -0.1432 -0.1631
 9402W        W24533  15.716   5.968  12.785  0.0497 -0.1595  0.0126
 9403W        W24534   9.157  13.672  12.051  0.1141 -0.2473  0.0111
 9404W        W24535   9.041  11.258  15.143  0.1949 -0.2366 -0.1225
 9405W        W24536   5.803   2.070  14.164 -0.3891  0.1046 -0.1088
 9406W        W24537   7.557  12.961   4.402  0.0048 -0.0030 -0.1274
 9407W        W24538   3.228   8.567   3.433  0.0789 -0.0427 -0.2059
 9408W        W24539   9.332   4.844  12.393 -0.1221 -0.2275 -0.1171
 9409W        W24540   9.282   7.941  16.715  0.1616  0.0318 -0.1824
 9410W        W24541  10.711   0.968   3.018  0.2055  0.1802  0.1902
 9411W        W24542  13.084  11.953  15.535  0.1781 -0.1701 -0.0771
 9412W        W24543  10.798   4.564   0.746 -0.1227 -0.0637 -0.2386
 9413W        W24544   5.180   2.354   4.260 -0.1429 -0.1641  0.0197
 9414W        W24545   9.916  11.307   1.168  0.1027 -0.2986  0.2159
 9415W        W24546   8.224   7.435   4.412 -0.2186  0.3622  0.0438
 9416W        W24547   7.128   7.707  13.535 -0.2642  0.0073  0.3315
 9417W        W24548  10.836   9.135  11.748  0.1436 -0.0644 -0.0201
 9418W        W24549  17.110   8.721  11.714 -0.1483  0.0985  0.4008
 9419W        W24550   4.958  17.796   1.122 -0.0538 -0.1895 -0.1559
 9420W        W24551  13.089  11.924  10.689  0.0823 -0.1739 -0.0089
 9421W        W24552   1.066  17.861  11.934 -0.1032 -0.3302  0.0869
 9422W        W24553  14.316  10.667   5.037  0.1759 -0.0623  0.0327
 9423W        W24554  11.192   4.868   2.943  0.1401  0.1499 -0.0999
 9424W        W24555  16.347  12.218   5.391 -0.0549  0.1529  0.0711
 9425W        W24556  17.036  13.911   3.837  0.1047  0.2824  0.1287
 9426W        W24557  11.384   5.919   4.430 -0.4408 -0.1224  0.1376
 9427W        W24558   1.516  15.765   2.423  0.2336 -0.1012 -0.1561
 9428W        W24559  12.169   7.387  13.553 -0.0007  0.1849  0.0419
 9429W        W24560   5.838   7.356   4.504  0.5602 -0.0465  0.1470
 9430W        W24561  12.294   7.275  14.452  0.3355 -0.2616 -0.1727
 9431W        W24562  15.050  10.871  13.532  0.1594 -0.0714 -0.3150
 9432W        W24563  12.952   8.248  13.738  0.0165 -0.1920 -0.0789
 9433W        W24564  13.024   1.377   5.382 -0.1882  0.2386 -0.0234
 9434W        W24565   3.751  11.299   0.803  0.2803 -0.0584 -0.0720
 9435W        W24566   3.892  16.745  15.440 -0.0904  0.1754  0.0495
 9436W        W24567  16.508   2.852   4.598 -0.0808  0.3327  0.2461
 9437W        W24568   9.229   2.082  15.619 -0.0935 -0.2395 -0.0472
 9438W        W24569  15.074  14.016   6.061 -0.1544  0.0991  0.2093
 9439W        W24570  10.493   9.492  11.406  0.0217 -0.1767 -0.0409
 9440W        W24571   8.376   1.809  16.377  0.3162  0.1145 -0.2773
 9441W        W24572  12.058   2.988  14.033 -0.1010  0.1240  0.0574
 9442W        W24573   6.864  16.704   5.783 -0.2949 -0.0255  0.0416
 9443W        W24574   4.776  10.806   0.436  0.1140 -0.2997  0.3364
 9444W        W24575  16.783  11.282   0.846  0.1310  0.0459 -0.0976
 9445W        W24576   2.474   9.932   6.372  0.1332 -0.2280 -0.0361
 9446W        W24577   2.020   1.333   1.988 -0.0350  0.1190  0.3139
 9447W        W24578  12.568  12.283  15.293  0.2242 -0.3993 -0.0169
 9448W        W24579  14.053  13.444  15.020  0.2982 -0.1547 -0.3416
 9449W        W24580   0.367  13.340   1.610 -0.1672  0.2265  0.0091
 9450W        W24581  16.246   4.722  13.387  0.1044 -0.0798  0.0720
 9451W        W24582   6.741  16.783   1.955 -0.1460 -0.0481 -0.1006
 9452W        W24583  10.169   8.518  14.395  0.0770  0.1177  0.0709
 9453W        W24584  15.147   0.394  14.204  0.2657 -0.1538  0.1891
 9454W        W24585  12.645  10.540   4.553  0.0677  0.3438 -0.0541
 9455W        W24586  16.462   7.696   1.722 -0.2162  0.3998 -0.0671
 9456W        W24587   7.189  16.326   5.670  0.0385 -0.0284 -0.0015
 9457W        W24588   5.631   8.091  11.195  0.0897 -0.1792  0.2695
 9458W        W24589   3.551  17.731  13.838 -0.1360  0.0469 -0.0787
 9459W        W24590  16.013   6.259  13.647  0.1730 -0.1867 -0.1122
 9460W        W24591   6.828   9.831  16.442  0.1293  0.2465 -0.3148
 9461W        W24592  13.019   8.024   1.764  0.3552 -0.1417  0.1787
 9462W        W24593  11.570  12.614   6.001 -0.1068  0.1151 -0.0138
 9463W        W24594  14.701   4.507  12.892 -0.2455 -0.2619  0.2488
 9464W        W24595   7.540   0.080  11.367 -0.0513  0.1611 -0.2132
 9465W        W24596   4.588   0.982   5.215 -0.0541  0.2498 -0.1869
 9466W        W24597  10.010   9.541   5.110 -0.0100  0.2588  0.0444
 9467W        W24598   8.920   9.958  11.932 -0.2610  0.1912 -0.1048
 9468W        W24599  14.208   3.060  12.863 -0.2199  0.2165  0.0529
 9469W        W24600  17.379   3.842   2.477 -0.1488  0.2122 -0.3696
 9470W        W24601   0.215   1.438   4.750 -0.0526  0.2111  0.2254
 9471W        W24602   4.906  15.064  12.404  0.0075 -0.1175 -0.1544
 9472W        W24603   6.243  12.336  13.158 -0.1041 -0.0006  0.1345
 9473W        W24604  13.985  13.722  16.556 -0.2485 -0.0756 -0.1708
 9474W        W24605  13.658   3.360  13.690  0.1108 -0.1304  0.0849
 9475W        W24606   8.293  15.617  16.042 -0.0200 -0.1765 -0.0989
 9476W        W24607  10.768  14.113  15.135  0.0128 -0.0766  0.0222
 9477W        W24608  10.615   8.561  13.182 -0.2601  0.1594  0.2002
 9478W        W24609  13.849   1.582   3.908  0.3947 -0.1131  0.2879
 9479W        W24610  16.232   6.436  16.456 -0.5773 -0.2683  0.2579
 9480W        W24611   1.578  16.481  14.229  0.0637  0.0323 -0.0082
 9481W        W24612   4.444   5.746   1.172 -0.1721 -0.0965  0.0588
 9482W        W24613  12.173   6.077   3.776 -0.0013  0.1152 -0.0496
 9483W        W24614   4.306   9.007   3.120  0.1059  0.2030  0.3000
 9484W        W24615   5.882  17.370  12.646  0.1679  0.0334  0.3414
 9485W        W24616  14.306   8.892  12.913 -0.1924  0.2927  0.4140
 9486W        W24617   6.881  17.179  14.620 -0.0722 -0.1286 -0.2608
 9487W        W24618   2.087   1.617   0.648  0.0470 -0.0868 -0.2370
 9488W        W24619   3.132  17.037   1.510 -0.0998  0.2988  0.3670
 9489W        W24620   3.853   7.870  11.630  0.3595  0.1002 -0.0362
 9490W        W24621   5.432   8.956  14.755 -0.2809  0.0179 -0.0615
 9491W        W24622   3.583   3.324  16.644  0.1136  0.0024  0.0220
 9492W        W24623   2.217   2.366   6.286  0.0618 -0.0753 -0.0834
 9493W        W24624  14.039   0.784   2.525 -0.5520  0.2044 -0.1629
 9494W        W24625  11.747  12.807   2.287  0.2397  0.2733  0.0452
 9495W        W24626   0.875   0.387  16.758 -0.1743 -0.1702 -0.0317
 9496W        W24627   2.285  17.689  12.922  0.2662  0.2096  0.2827
 9497W        W24628   8.771   5.612  13.237 -0.2196  0.2424 -0.1272
 9498W        W24629   5.191   1.096   3.990 -0.0280  0.0239 -0.2173
 9499W        W24630  13.589  13.992   4.233  0.1670  0.3265 -0.0658
 9500W        W24631   0.845  16.778   4.314  0.0084  0.1195 -0.1394
 9501W        W24632   2.086   1.462   6.789  0.0093 -0.0930 -0.1309
 9502W        W24633   5.739  17.725   2.507  0.0719  0.2467  0.1394
 9503W        W24634   0.116   4.941  15.673  0.0665 -0.1744  0.2919
 9504W        W24635   5.082  14.116   1.713  0.1984  0.2522  0.3649
 9505W        W24636  10.260   4.011   2.947  0.0440  0.1516 -0.0735
 9506W        W24637   9.326  10.994  16.620 -0.1876  0.3776 -0.3186
 9507W        W24638  10.279   6.248   2.226 -0.0897 -0.0723  0.1635
 9508W        W24639   5.404   7.580   4.549 -0.3603 -0.0745 -0.1341
 9509W        W24640  12.033  14.481   0.208  0.1467 -0.1662  0.3334
 9510W        W24641  15.536  15.830  11.564 -0.1707  0.1324 -0.0061
 9511W        W24642  16.344  17.380  11.427  0.0056 -0.2740  0.2637
 9512W        W24643   3.712   5.940  13.807 -0.0928  0.0017 -0.0987
 9513W        W24644  12.078   8.609   3.334 -0.0304  0.0532 -0.0093
 9514W        W24645  14.303  17.441   4.925 -0.4292 -0.0148  0.1586
 9515W        W24646   9.648  14.418  11.887  0.2353  0.0412  0.0753
 9516W        W24647  17.694   0.532  13.534 -0.0602 -0.0458  0.0126
 9517W        W24648   9.444  17.073   0.666  0.0243  0.2241  0.0792
 9518W        W24649   6.569   0.275  12.609 -0.2344 -0.0364 -0.0613
 9519W        W24650   9.849  11.951   4.025  0.0606  0.2047  0.0579
 9520W        W24651   3.566   8.848   2.465 -0.0616 -0.0605  0.1900
 9521W        W24652  15.007  12.354  13.194 -0.1845 -0.0733  0.0567
 9522W        W24653   3.912   7.960   1.817 -0.0051  0.1398  0.3389
 9523W        W24654   4.673  15.531  15.102 -0.1607 -0.1426 -0.2316
 9524W        W24655  10.557  15.819   0.250 -0.0845  0.2804 -0.1690
 9525W        W24656  12.900   0.387  12.271 -0.2343 -0.6151 -0.3155
 9526W        W24657  10.017  13.959  14.413  0.0651 -0.0398 -0.0735
 9527W        W24658   0.695   5.539   5.160 -0.1162  0.0354 -0.0661
 9528W        W24659  15.808   1.516  15.767  0.1283  0.0022 -0.1215
 9529W        W24660   2.860  12.160  13.586 -0.0773 -0.1350  0.0290
 9530W        W24661   6.679  15.585  13.160  0.0458 -0.0946  0.0028
 9531W        W24662   4.284   9.792  15.436  0.0169  0.2236 -0.2065
 9532W        W24663   2.713   4.140  11.478 -0.0462 -0.0237 -0.2328
 9533W        W24664  13.794   8.942  13.235  0.5075 -0.1223 -0.0571
 9534W        W24665   5.124   8.771   3.404 -0.1233 -0.2090 -0.1853
 9535W        W24666  15.384   1.773  15.352  0.2155 -0.1462 -0.0648
 9536W        W24667  10.930  14.225  15.995 -0.1316  0.2445 -0.0843
 9537W        W24668   7.385  11.363   3.498 -0.1412  0.1028 -0.0335
 9538W        W24669   7.753   1.082   0.007 -0.0325 -0.5180  0.0006
 9539W        W24670   2.636  12.507   3.101  0.1099 -0.0319  0.1159
 9540W        W24671  11.076   3.082   1.682 -0.2982 -0.0801 -0.2720
 9541W        W24672  10.922   4.438  10.141  0.0515 -0.1081  0.1368
 9542W        W24673   8.678  15.875   1.268 -0.1536  0.1508 -0.1895
 9543W        W24674  15.401  15.250  14.139  0.1689 -0.1732 -0.2112
 9544W        W24675   8.566   9.852   4.964 -0.2456 -0.2803 -0.1754
 9545W        W24676   7.096   4.095  15.569  0.2273  0.0330 -0.1400
 9546W        W24677  11.912  13.334   0.060 -0.1911 -0.2939 -0.3605
 9547W        W24678  10.010   9.900  15.439  0.0788  0.0527 -0.1027
 9548W        W24679  17.660   2.954   4.025  0.0094 -0.1593 -0.2554
 9549W        W24680  10.637  11.158  16.175 -0.2120 -0.1872  0.0645
 9550W        W24681  15.597   7.360  11.014 -0.0227  0.1498 -0.0193
 9551W        W24682   7.940   5.689   3.442 -0.1476 -0.0339 -0.0883
 9552W        W24683  14.280   9.666  13.646 -0.1483 -0.1174 -0.6510
 9553W        W24684  11.037   1.546  12.912 -0.0383  0.0284 -0.2125
 9554W        W24685  16.944  11.034  12.221 -0.0377  0.0528  0.1157
 9555W        W24686   3.224  10.471   2.985 -0.1701 -0.0617  0.1001
 9556W        W24687  12.167  13.643   2.897  0.1459 -0.2085 -0.0495
 9557W        W24688   6.122   8.585  12.875 -0.1772  0.3274  0.0165
 9558W        W24689   8.529  10.814   0.896  0.2040 -0.4313  0.0723
 9559W        W24690  15.690   8.178   3.901 -0.0950 -0.0813 -0.1544
 9560W        W24691   2.105   4.888  12.635  0.1254 -0.0453  0.0237
 9561W        W24692   6.711  14.632   4.544 -0.3206 -0.2830 -0.1376
 9562W        W24693   7.843   8.633   3.600 -0.0814  0.0966  0.0868
 9563W        W24694   2.388   5.399  14.646  0.2218  0.0487 -0.2228
 9564W        W24695  13.522   5.540  15.011  0.0090 -0.0648 -0.0210
 9565W        W24696  11.299  17.015   5.626 -0.0368  0.1735 -0.2032
 9566W        W24697  16.761  12.579   0.605 -0.2017 -0.1305 -0.0774
 9567W        W24698  17.802  15.983   4.609 -0.0061 -0.0070 -0.0913
 9568W        W24699   3.280  14.467   1.126  0.1204 -0.0178 -0.0076
 9569W        W24700   3.420   4.283   5.489 -0.2113  0.1986 -0.1018
 9570W        W24701   6.721   8.613  11.508  0.1637  0.0334 -0.1489
 9571W        W24702  13.203   2.588  13.353 -0.3145 -0.1239  0.1156
 9572W        W24703  15.309   1.554  11.413  0.0025 -0.0849 -0.2353
 9573W        W24704   6.436   1.443   1.053  0.1666 -0.0003  0.4107
 9574W        W24705  10.654   0.551  12.790  0.1919 -0.1689  0.1140
 9575W        W24706  10.272  13.170  15.318 -0.1800 -0.1767 -0.2053
 9576W        W24707   1.270   7.169   0.268  0.0504 -0.0675  0.3205
 9577W        W24708  11.900  17.122  12.738 -0.0312  0.1503  0.0448
 9578W        W24709   7.895  13.893  13.723  0.1387  0.1196  0.1662
 9579W        W24710   7.879   7.065  15.944 -0.1424 -0.5353  0.1164
 9580W        W24711   6.871   5.601   0.534 -0.1245 -0.1645  0.1179
 9581W        W24712  13.045  16.506   3.248  0.0831 -0.1850  0.0260
 9582W        W24713  10.276  12.385   0.863  0.1452  0.0684  0.4202
 9583W        W24714  15.474   0.827   1.606 -0.0552  0.1671 -0.0796
 9584W        W24715  14.868  15.047   1.822 -0.0186 -0.0377  0.1487
 9585W        W24716   7.402   4.538  11.110  0.2949 -0.1013 -0.1185
 9586W        W24717  15.905   2.072  13.689 -0.3794 -0.2671 -0.1340
 9587W        W24718  15.175  10.725  15.217  0.1899 -0.0821 -0.0299
 9588W        W24719  13.975   6.137  14.042  0.2960  0.0072  0.1416
 9589W        W24720  17.303  16.081  12.867  0.1400 -0.1878 -0.4374
 9590W        W24721   0.903   4.236   1.044  0.1999 -0.1720  0.2026
 9591W        W24722  15.536  16.583  15.357  0.1865  0.0043 -0.0052
 9592W        W24723  12.053   7.773  14.580  0.0217 -0.2000  0.0613
 9593W        W24724   0.797  17.580   3.113  0.2180  0.3160 -0.1912
 9594W        W24725  17.625  12.213  13.409  0.0693 -0.1332 -0.3813
 9595W        W24726  10.794  15.282   4.882 -0.2458 -0.3496  0.0430
 9596W        W24727   9.235  12.646   4.053  0.2444  0.0186 -0.0033
 9597W        W24728   4.413  17.877   2.594 -0.3089  0.0498 -0.2412
 9598W        W24729   1.470  12.118  16.340  0.0020  0.1286  0.1360
 9599W        W24730   0.446  13.684  16.037  0.3689  0.1552  0.1149
 9600W        W24731  14.635   2.845  16.410  0.1529 -0.1128  0.0048
 9601W        W24732  15.366   8.704   4.861  0.0179  0.0467  0.1723
 9602W        W24733   1.556   2.452  16.642 -0.0389  0.0631  0.1991
 9603W        W24734   1.140   2.619  11.507  0.1841  0.0674 -0.0048
 9604W        W24735   9.312   7.496  15.712  0.1619 -0.1664 -0.1684
 9605W        W24736   7.222   2.432   0.875 -0.2439  0.1870 -0.1710
 9606W        W24737  11.463  14.783  15.453 -0.0595 -0.3281 -0.1450
 9607W        W24738  15.376   5.808   4.054  0.0948  0.2364  0.2258
 9608W        W24739  12.782  13.574  14.147 -0.0039 -0.0042 -0.1954
 9609W        W24740   0.807   8.077  15.180  0.1523 -0.1371 -0.1104
 9610W        W24741   0.692   5.570  14.615 -0.0284  0.1091 -0.0505
 9611W        W24742   3.338  15.664   2.630 -0.0743 -0.0350 -0.1408
 9612W        W24743   4.734  14.048  16.407 -0.0809 -0.2179  0.0761
 9613W        W24744   9.477   9.628   5.148 -0.0127  0.5894 -0.1051
 9614W        W24745  16.456   4.198  13.520 -0.0960 -0.0625 -0.1813
 9615W        W24746   7.203  11.109   1.521  0.0333 -0.0811  0.1623
 9616W        W24747   8.743   6.906  16.091 -0.3184 -0.2602 -0.1751
 9617W        W24748  12.224   4.943   3.733 -0.0922  0.1680 -0.2128
 9618W        W24749  15.657   5.122  15.710  0.3619  0.1452  0.1617
 9619W        W24750   9.326  12.697   0.002 -0.2056 -0.3357 -0.1589
 9620W        W24751   8.266  11.544   4.916 -0.2536 -0.1367  0.0540
 9621W        W24752  13.626  14.508   2.931 -0.0851 -0.0089 -0.2807
 9622W        W24753   3.273  16.918  13.828 -0.2178 -0.2071  0.0954
 9623W        W24754  11.117   0.945   5.135 -0.0016  0.1631 -0.0230
 9624W        W24755  14.998   3.613  13.606  0.0164 -0.1729  0.2263
 9625W        W24756   9.935   7.938   1.355  0.0316 -0.1729 -0.0675
 9626W        W24757   4.698   4.850  11.680 -0.1455  0.1416  0.0445
 9627W        W24758  15.824  16.996   2.886 -0.0981 -0.1059 -0.2528
 9628W        W24759  13.684   5.369  11.382  0.2741  0.0085 -0.0297
 9629W        W24760   2.473   1.279   2.349 -0.1740 -0.1807 -0.1235
 9630W        W24761  16.307  13.552  13.700  0.0391 -0.1693 -0.1165
 9631W        W24762  14.178  12.543   2.472  0.1230 -0.0296 -0.1657
 9632W        W24763  14.131  13.683  13.108 -0.0855 -0.2720  0.1655
 9633W        W24764   2.407  13.038   1.717 -0.3384 -0.2320  0.3206
 9634W        W24765   0.581   5.847   0.756  0.0355  0.0706 -0.0776
 9635W        W24766  15.423  15.228   4.413  0.0706 -0.0997 -0.0299
 9636W        W24767   4.798   7.561   3.960  0.0917 -0.2034 -0.0548
 9637W        W24768  11.341  13.348  13.513 -0.2358 -0.0638 -0.0810
 9638W        W24769  16.714  13.870  13.476  0.0818  0.1747  0.2911
 9639W        W24770  16.426  17.868  12.202 -0.4384 -0.0675 -0.3061
 9640W        W24771  13.751   7.215   2.402  0.0906 -0.1599 -0.1684
 9641W        W24772  13.958  11.173  13.139 -0.2938 -0.0386  0.1771
 9642W        W24773  17.306   4.310  13.415 -0.0975  0.2072  0.1263
 9643W        W24774  16.250   0.086  15.333 -0.2040 -0.0131 -0.3733
 9644W        W24775  11.346   2.252   1.765 -0.1317  0.2112 -0.0420
 9645W        W24776   5.100   4.012   4.229 -0.0220  0.0575  0.0961
 9646W        W24777  11.017   3.564   1.859  0.0480 -0.0055  0.0850
 9647W        W24778   5.860  17.380  12.084 -0.0683  0.0556 -0.1267
 9648W        W24779   6.153  13.035  13.750  0.0184  0.1510 -0.0870
 9649W        W24780   5.227   8.619  10.544  0.0365  0.0124  0.1870
 9650W        W24781  13.401   6.587   1.238  0.0784 -0.1734 -0.2131
 9651W        W24782  16.385   0.506  16.754 -0.1796  0.1039  0.0271
 9652W        W24783   3.466   5.663   0.204 -0.1224  0.2788 -0.1973
 9653W        W24784   3.428   9.101  14.735  0.1372  0.2574 -0.1686
 9654W        W24785  13.225   2.925  12.839  0.2458  0.0961 -0.0697
 9655W        W24786   3.962  16.911   4.961  0.2143  0.3023 -0.0772
 9656W        W24787  12.888   1.332   2.241 -0.1992 -0.3094  0.3815
 9657W        W24788   7.072   0.615  11.796 -0.1461 -0.2011 -0.1281
 9658W        W24789   9.218  12.385  16.399  0.0239 -0.0852  0.2601
 9659W        W24790   7.642   8.279  15.752 -0.3148 -0.0001  0.1353
 9660W        W24791   3.485   1.851   0.346 -0.3459  0.1975 -0.1200
 9661W        W24792  17.846   5.077  15.187 -0.0520 -0.0025  0.0705
 9662W        W24793  14.553   7.795  13.558 -0.1174  0.0677  0.0057
 9663W        W24794   5.790   4.775   3.754  0.0110  0.3084 -0.3175
 9664W        W24795   0.359   2.704  14.591  0.0533 -0.0237 -0.0209
 9665W        W24796  11.908  15.712  15.710  0.0250  0.1528 -0.0755
 9666W        W24797   7.384   8.009  11.142  0.3005  0.0211  0.1024
 9667W        W24798  13.339  16.943  16.604 -0.1132  0.3317  0.0592
 9668W        W24799  11.351  16.626  16.193  0.2371  0.3646 -0.2353
 9669W        W24800   3.294  10.632   4.663 -0.0909  0.0644  0.2204
 9670W        W24801   9.045   0.487  16.242 -0.2789  0.0661  0.2055
 9671W        W24802   1.711  14.180  16.485  0.0676 -0.1837  0.0613
 9672W        W24803  10.843  15.442   1.082 -0.1015 -0.0591 -0.1002
 9673W        W24804   6.611   8.454   5.066 -0.2113  0.1735  0.1304
 9674W        W24805   5.314   7.014   1.321  0.2840 -0.1657 -0.1340
 9675W        W24806  17.300   7.695  16.481 -0.0976  0.0121 -0.2296
 9676W        W24807   8.061   6.596   4.086 -0.1067  0.1956 -0.0250
 9677W        W24808  14.446   8.811  15.941 -0.2000  0.1176 -0.1576
 9678W        W24809  10.246  12.935  16.280  0.3136  0.0827  0.0950
 9679W        W24810   0.917  14.898  15.275 -0.0208 -0.1925  0.3407
 9680W        W24811  13.208   4.284  14.331 -0.1156  0.1438 -0.2354
 9681W        W24812   2.715  17.403  11.954  0.2230 -0.1503  0.1743
 9682W        W24813   7.375   4.964  12.557 -0.1418  0.0763 -0.0028
 9683W        W24814   0.430   6.219  13.064  0.1034  0.1272  0.0681
 9684W        W24815   0.780   2.683  12.376 -0.0439  0.4003 -0.1463
 9685W        W24816   2.954   2.847  11.499 -0.1042 -0.2309 -0.1518
 9686W        W24817  14.318   2.039   2.452  0.1006 -0.0228 -0.0646
 9687W        W24818  15.995   0.647   4.766  0.2593  0.0175 -0.0809
 9688W        W24819   7.047   9.017  16.166 -0.1446  0.1326  0.2189
 9689W        W24820   2.537   7.704  10.901 -0.2772 -0.1236  0.0060
 9690W        W24821   9.376   2.590  15.786  0.2760  0.0661 -0.1197
 9691W        W24822   5.967   2.694   1.255 -0.2832 -0.0058  0.2239
 9692W        W24823  14.248   9.658  12.258  0.1294 -0.0147 -0.1394
 9693W        W24824  11.763  14.500  12.010 -0.0251  0.1627  0.0601
 9694W        W24825  12.825  12.339   1.003 -0.0676  0.1648 -0.1553
 9695W        W24826   5.509   3.532   3.531  0.6476  0.1412 -0.2019
 9696W        W24827   6.196  15.068  12.740 -0.3215  0.0012  0.2672
 9697W        W24828  13.011  11.053  13.188 -0.0955  0.0308 -0.0077
 9698W        W24829   2.456  13.287   5.717 -0.2333 -0.2714  0.0725
 9699W        W24830   8.008  14.777  13.658  0.4006  0.1163  0.2359
 9700W        W24831  15.885   3.461   2.807  0.2599 -0.1319  0.1620
 9701W        W24832  13.479  13.727  14.643 -0.4612  0.2156  0.1944
 9702W        W24833   7.291   2.434  15.058 -0.0448 -0.0345  0.0534
 9703W        W24834  15.965   1.330  14.022 -0.1306  0.1903 -0.1504
 9704W        W24835  11.182  13.280   1.633 -0.2961 -0.3474  0.1194
 9705W        W24836   4.030   8.392  15.663 -0.2957  0.4256 -0.1572
 9706W        W24837   2.646   8.323   4.597 -0.2590 -0.0354  0.2858
 9707W        W24838  12.531  17.393  15.803  0.0849  0.1274 -0.1703
 9708W        W24839  17.165  15.014  14.393 -0.0055 -0.0708  0.1652
 9709W        W24840  12.908   6.004   5.138  0.1283 -0.3194 -0.1873
 9710W        W24841   6.683   3.638   3.765 -0.1967  0.2711  0.1032
 9711W        W24842   8.497   9.449   1.918 -0.0288  0.4212  0.0070
 9712W        W24843  17.502  10.739   1.308 -0.0999 -0.0466 -0.2928
 9713W        W24844  10.859   8.137  15.197 -0.0929 -0.0783 -0.0990
 9714W        W24845   0.229   1.140   3.847 -0.4046  0.2176  0.2214
 9715W        W24846   5.984   4.887  14.755  0.0721 -0.0422 -0.0271
 9716W        W24847   1.390   5.080  12.041  0.2284  0.1543 -0.0803
 9717W        W24848   3.152   7.335   1.052 -0.3795 -0.0224  0.0485
 9718W        W24849   0.006   6.537   3.106  0.0280  0.0861  0.0385
 9719W        W24850  17.213  15.600   4.123  0.1839 -0.2724  0.2255
 9720W        W24851   2.821   7.200   3.820 -0.4188 -0.2140  0.3432
 9721W        W24852   7.704   8.509  14.235 -0.0381 -0.0343 -0.1156
 9722W        W24853  17.279   4.347  11.678 -0.0054  0.1742  0.1777
 9723W        W24854   6.315   1.239  14.151 -0.0791  0.1474  0.2054
 9724W        W24855  14.247   7.208   0.372 -0.0547  0.0022  0.2695
 9725W        W24856   3.625   0.826  12.470  0.3603  0.0058 -0.0099
 9726W        W24857  11.645  12.871   5.588 -0.1935  0.0546 -0.0867
 9727W        W24858   2.863  10.304   1.499  0.0876 -0.1125 -0.2904
 9728W        W24859  13.805  17.604   0.394  0.0594  0.1131  0.2707
 9729W        W24860   7.956  15.800  12.556  0.1564 -0.1070  0.0711
 9730W        W24861   5.514  15.831  10.444  0.0297 -0.1388 -0.2570
 9731W        W24862   3.140   3.598   3.745 -0.0843  0.0067 -0.0534
 9732W        W24863  10.729  14.849   2.873  0.1029 -0.1743  0.2989
 9733W        W24864  12.096  13.878  15.485  0.0272  0.0139 -0.0431
 9734W        W24865  17.455   0.534  14.839 -0.0625 -0.1209  0.1892
 9735W        W24866  13.205   7.543   0.969 -0.2063  0.2885 -0.0545
 9736W        W24867  11.159   6.352  13.070 -0.1666 -0.1174  0.1744
 9737W        W24868   2.962   0.083  12.760  0.0712  0.1194  0.0246
 9738W        W24869  10.440  16.880   0.403  0.1450 -0.5128 -0.1416
 9739W        W24870   8.521  10.920   5.962  0.0256 -0.1842  0.0098
 9740W        W24871   8.033   6.813   3.663 -0.2518  0.0737 -0.1169
 9741W        W24872  13.421   2.383   4.820 -0.4653 -0.1171  0.0471
 9742W        W24873   4.332  16.273   4.100 -0.1104 -0.2649  0.2580
 9743W        W24874  15.212   8.313   5.601 -0.0168 -0.2800 -0.1748
 9744W        W24875  13.633   6.861  14.717 -0.2079  0.2679 -0.2512
 9745W        W24876   1.744  13.059   3.392 -0.1893  0.2266  0.2389
 9746W        W24877   2.796  16.889  15.081  0.1347 -0.2098  0.0163
 9747W        W24878   9.089  14.854  15.055  0.0596  0.0357  0.4405
 9748W        W24879  15.959   8.553  14.306  0.0243  0.2671  0.0981
 9749W        W24880  14.081   5.531  12.633 -0.0936  0.2940 -0.0082
 9750W        W24881  14.814  14.040  13.942 -0.1175 -0.1263 -0.1478
 9751W        W24882   3.224   1.652  15.012 -0.2354 -0.1232 -0.1545
 9752W        W24883  16.517   2.079  16.136 -0.5270  0.2094 -0.1065
 9753W        W24884  14.172  11.468  12.311  0.1282 -0.1435 -0.0529
 9754W        W24885   7.664  13.345  14.501  0.1133  0.0435  0.3376
 9755W        W24886   9.795   7.052   2.477  0.1098  0.0797 -0.2813
 9756W        W24887   9.775  11.486  15.706 -0.1372 -0.1339  0.0972
 9757W        W24888   4.156  11.238   2.975  0.3017 -0.0709 -0.2495
 9758W        W24889  16.053  10.474   4.299 -0.2510  0.2103  0.1427
 9759W        W24890   8.386  15.121  16.609  0.0727 -0.0722  0.1873
 9760W        W24891   8.801   2.609   1.914 -0.1152  0.0457 -0.2505
 9761W        W24892   5.261  10.603  12.718 -0.2819  0.2158 -0.1160
 9762W        W24893  17.340   0.279   4.337 -0.2245  0.2501  0.1375
 9763W        W24894   9.507   5.015   3.547  0.3082 -0.4745 -0.1180
 9764W        W24895   7.239  10.729   1.836  0.0683  0.2069 -0.0072
 9765W        W24896  12.631   5.514  14.588 -0.2507  0.0230 -0.2701
 9766W        W24897  17.005  11.527   1.205 -0.2014  0.0806  0.1544
 9767W        W24898   3.494   1.032   1.773 -0.1123  0.0391  0.2527
 9768W        W24899   8.171  11.431   3.061 -0.2994 -0.0986  0.1608
 9769W        W24900   9.182   6.424   1.662  0.1105 -0.0824  0.1738
 9770W        W24901   6.725   8.528   5.638 -0.0962 -0.1889  0.1122
 9771W        W24902   9.833   7.871   4.673 -0.0193  0.0678 -0.3905
 9772W        W24903   3.684   9.156  12.921 -0.1804 -0.3612  0.0087
 9773W        W24904   8.771  15.018  13.346 -0.1114 -0.2696  0.0178
 9774W        W24905  14.865   1.535   1.311 -0.1996 -0.0066  0.1605
 9775W        W24906   2.195   4.548   1.653  0.1668 -0.0781  0.1129
 9776W        W24907   2.982   4.151  15.522  0.0045 -0.3152  0.0357
 9777W        W24908  15.529   4.609  12.718  0.1549 -0.1899  0.0519
 9778W        W24909  16.229   8.038   5.678  0.2422 -0.1096 -0.2315
 9779W        W24910   6.446  13.703  16.589  0.0403  0.0399 -0.2820
 9780W        W24911  10.228   1.730  10.958  0.1931 -0.1718 -0.1063
 9781W        W24912   0.044   0.182   3.403 -0.0227 -0.3100 -0.1097
 9782W        W24913  10.833   9.012   4.837 -0.0432  0.2891  0.0766
 9783W        W24914  11.461  17.845  13.593 -0.0343  0.1032 -0.0406
 9784W        W24915  14.725   3.808  10.490 -0.1356 -0.1192 -0.1569
 9785W        W24916   2.112   5.228  16.606  0.0658 -0.0632 -0.0409
 9786W        W24917  12.978   7.513   5.027 -0.1535 -0.0246 -0.1840
 9787W        W24918  11.676  13.445   4.356  0.0998 -0.0012  0.0209
 9788W        W24919   9.936   7.345  11.780 -0.1635  0.0747 -0.2197
 9789W        W24920   4.145  10.388   2.515 -0.0911  0.0726 -0.2091
 9790W        W24921   6.196  11.961   4.766 -0.1208 -0.1130 -0.1548
 9791W        W24922  15.675   5.616  15.845  0.0819 -0.2341 -0.3295
 9792W        W24923  16.564  12.343   6.648 -0.0658  0.0569 -0.2918
 9793W        W24924  11.764   8.909   3.861 -0.2116 -0.0354  0.1264
 9794W        W24925   3.814   1.929  13.649 -0.3403  0.3093  0.0642
 9795W        W24926   0.824  10.852   1.740 -0.0815 -0.1229  0.2265
 9796W        W24927  10.023  15.444  16.500 -0.0570 -0.0547 -0.2496
 9797W        W24928   9.320   1.624   1.736 -0.0774  0.1643 -0.0045
 9798W        W24929   8.297  17.276  12.470 -0.0900 -0.0655 -0.3089
 9799W        W24930  12.754   1.691   5.777 -0.0569  0.0386 -0.1613
 9800W        W24931  10.904  15.789   2.358 -0.0216 -0.2282  0.1545
 9801W        W24932   6.527   4.769   0.032  0.0535 -0.4034 -0.1460
 9802W        W24933  12.904  12.111  12.214  0.1666  0.0912 -0.1188
 9803W        W24934   1.077   6.612   5.111 -0.0252  0.0979  0.0632
 9804W        W24935  14.901  14.186  13.405  0.1003  0.2333 -0.0008
 9805W        W24936   4.054   0.179  12.494 -0.0033 -0.3155  0.0249
 9806W        W24937   4.960  11.481  16.407  0.2287  0.1728 -0.0014
 9807W        W24938   9.002   0.823   4.414 -0.0893 -0.3391  0.0504
 9808W        W24939  10.198   7.429  15.254  0.1166 -0.2265  0.0152
 9809W        W24940   0.403   0.770  13.246  0.0656  0.3549  0.0663
 9810W        W24941  11.237   6.134   1.845 -0.2625  0.2754 -0.3159
 9811W        W24942  16.554  10.267   6.067  0.4271  0.0287  0.1997
 9812W        W24943   4.555   4.924   3.156 -0.2136 -0.0200 -0.5476
 9813W        W24944   1.679  15.727  16.445  0.0562  0.0643 -0.0396
 9814W        W24945  11.110   0.806   0.291  0.2165  0.1413 -0.0641
 9815W        W24946   8.311  16.174  13.926  0.0807  0.0154 -0.1106
 9816W        W24947  11.242   9.682  13.512 -0.0831 -0.1101  0.0070
 9817W        W24948   4.444   7.494  11.007  0.1619 -0.1022 -0.1997
 9818W        W24949  11.206  17.445  12.094 -0.3086  0.1851 -0.0783
 9819W        W24950   1.993  11.480   2.101 -0.2011 -0.0354 -0.1569
 9820W        W24951   5.303  10.355   0.925  0.0691  0.0087  0.3386
 9821W        W24952  11.471   0.338  10.633 -0.2812 -0.0323  0.1921
 9822W        W24953  17.875  11.566   4.066  0.0480  0.0841  0.2278
 9823W        W24954   0.965   9.097   1.621  0.1063  0.2014 -0.1703
 9824W        W24955  14.630   1.532   2.663  0.3083 -0.3251  0.0831
 9825W        W24956   6.812  17.260  15.793 -0.1160  0.1186  0.0308
 9826W        W24957  11.237   0.800  13.615 -0.2020 -0.1447 -0.0297
 9827W        W24958  12.495   3.952  12.504 -0.1149 -0.0193 -0.0451
 9828W        W24959  14.943  16.989  14.613 -0.0602 -0.1609  0.4279
 9829W        W24960   0.623   6.817   1.373  0.2523 -0.1583 -0.1550
 9830W        W24961   4.738   1.950   4.153 -0.1743 -0.2065 -0.1666
 9831W        W24962   4.682   3.092   4.263 -0.1350  0.2463  0.0387
 9832W        W24963  16.540  12.525   5.738  0.1532  0.0547  0.3380
 9833W        W24964   5.671  15.946   2.774 -0.2747  0.1059 -0.0841
 9834W        W24965   3.862   5.308  16.249 -0.0008 -0.0665  0.1076
 9835W        W24966   3.460  11.288  16.709  0.1498 -0.0883  0.0500
 9836W        W24967  10.047   3.583  12.533 -0.1261 -0.1765 -0.0646
 9837W        W24968  10.323  11.416  13.828 -0.4951 -0.0246  0.2204
 9838W        W24969   2.418   0.780  16.042  0.1341  0.1336 -0.2188
 9839W        W24970   2.029   2.476  16.590 -0.2204 -0.1831 -0.3342
 9840W        W24971   6.631  15.067   1.272  0.0262 -0.2598  0.0915
 9841W        W24972   4.914   7.289  13.547  0.0338 -0.1163  0.1061
 9842W        W24973   2.540   6.498  14.517 -0.2146  0.2316  0.0592
 9843W        W24974   8.387   7.588  13.456 -0.0225  0.0778  0.2489
 9844W        W24975  10.545   6.241  14.698 -0.2256  0.2205  0.2313
 9845W        W24976  11.527  13.374   3.509  0.1019 -0.2373 -0.2653
 9846W        W24977   4.358  10.790   3.110  0.1140 -0.1599 -0.0133
 9847W        W24978   2.781   1.496  12.980  0.4126 -0.4016 -0.0869
 9848W        W24979   7.470   8.342  16.600 -0.0195  0.0403  0.0410
 9849W        W24980   6.254  11.332   0.591  0.1623  0.0809 -0.1364
 9850W        W24981   7.783  11.483  14.829  0.2089 -0.2301  0.1444
 9851W        W24982  13.959  15.823  13.788  0.0980 -0.2592  0.1406
 9852W        W24983   3.802  14.394   6.091  0.3689  0.2797  0.0762
 9853W        W24984  11.508  12.770  16.054  0.0880  0.0590  0.0968
 9854W        W24985   0.314   9.501   5.079 -0.0719  0.0816 -0.1299
 9855W        W24986   1.789   2.535   1.339 -0.0828  0.1687  0.0498
 9856W        W24987  10.696   6.440  12.904 -0.0846 -0.0673  0.0665
 9857W        W24988   0.351   7.949   4.800  0.2904  0.1385  0.1586
 9858W        W24989  11.587  17.034   4.732 -0.2390  0.2579 -0.0524
 9859W        W24990   2.954   4.498   5.819  0.0324  0.2405  0.0135
 9860W        W24991   3.225   1.803  14.498 -0.0683  0.0676 -0.0070
 9861W        W24992  17.791   0.500   3.055  0.0840 -0.1599 -0.0517
 9862W        W24993   7.993   9.864  14.344  0.2258  0.1683 -0.0441
 9863W        W24994  15.406  17.200   1.589  0.0818  0.1871 -0.1360
 9864W        W24995   2.041  15.782  13.203  0.1603  0.0780  0.3945
 9865W        W24996   5.383   4.741   4.655  0.0475 -0.1424 -0.1361
 9866W        W24997  11.623   4.247  14.941 -0.0776  0.1866  0.0122
 9867W        W24998   3.962   9.081   4.641 -0.1177  0.1412  0.0264
 9868W        W24999  13.925  14.865   1.296 -0.2804  0.0110  0.1225
 9869W        W25000   9.325  10.308  12.265 -0.2631  0.0197 -0.1940
 9870W        W25001   3.053   6.768   0.885 -0.1669  0.0338 -0.1310
 9871W        W25002   7.514   5.374  15.053 -0.0177 -0.4193 -0.0843
 9872W        W25003  15.503   4.429   3.609  0.1144 -0.0348  0.0551
 9873W        W25004   7.754   1.153  12.257 -0.0025 -0.1199  0.0052
 9874W        W25005   1.176  14.514  11.352 -0.0539 -0.2980  0.1071
 9875W        W25006   7.886  17.520  16.534 -0.2081  0.2087 -0.0430
 9876W        W25007   1.229  16.783   3.078 -0.0252  0.0888  0.0489
 9877W        W25008   5.926  13.157   3.159  0.5318 -0.0258  0.0256
 9878W        W25009  14.357  10.819  11.312 -0.3029  0.1130 -0.1028
 9879W        W25010  13.144  12.748   4.079  0.0870  0.0757  0.0648
 9880W        W25011  11.564  17.786  15.624  0.0642 -0.0723 -0.2473
 9881W        W25012   9.959  13.688  10.545 -0.4704  0.1726  0.0800
 9882W        W25013  11.288  11.470   0.643 -0.0533  0.1574  0.1361
 9883W        W25014   2.369   2.474   2.908  0.0508  0.3576 -0.1276
 9884W        W25015  17.872  16.922  15.372 -0.2046 -0.2455  0.1559
 9885W        W25016   4.986  13.909  15.008 -0.0802 -0.0204 -0.2562
 9886W        W25017   8.099   1.545  11.029  0.1768 -0.2790  0.0600
 9887W        W25018  11.211  11.092   3.519  0.1035  0.0226 -0.1269
 9888W        W25019  10.891  16.340   1.127 -0.1399 -0.0750  0.3603
 9889W        W25020   4.202   8.058   1.401  0.1689  0.1453  0.0741
 9890W        W25021   2.516  10.374  15.943  0.0084  0.0256  0.2922
 9891W        W25022  12.043  15.329  16.010 -0.0378  0.1533  0.1519
 9892W        W25023  16.313   6.306  11.657 -0.2504 -0.2970 -0.1467
 9893W        W25024  11.531   1.884   6.204 -0.2254  0.0585 -0.1908
 9894W        W25025   9.546  16.998   4.556 -0.2536 -0.1543 -0.2575
 9895W        W25026  13.402   4.790  14.334  0.2416 -0.1056  0.3626
 9896W        W25027   2.684  11.937  12.748  0.1906  0.0230  0.0593
 9897W        W25028  15.194  14.876   0.254 -0.1089 -0.0710 -0.0501
 9898W        W25029  10.096  16.717   0.024  0.0102 -0.3338  0.2085
 9899W        W25030   3.850   7.911   0.909  0.1321  0.3280 -0.1529
 9900W        W25031  14.176   5.149   5.816  0.2190  0.1658 -0.1505
 9901W        W25032  11.794  17.403   4.466 -0.1863 -0.3705 -0.2368
 9902W        W25033  16.536   8.788  14.886  0.1564  0.2451 -0.0543
 9903W        W25034  14.165   9.769  11.199  0.1045  0.1079  0.0430
 9904W        W25035  10.140   9.979  12.774  0.4204  0.1404  0.1690
 9905W        W25036  14.098  13.303  15.529 -0.0747  0.2259 -0.0401
 9906W        W25037   0.629   9.953   1.537 -0.0234  0.1206  0.1683
 9907W        W25038  11.462   4.211  14.487  0.3562  0.1876  0.3643
 9908W        W25039  14.036   7.095  16.331 -0.3105  0.2923  0.2004
 9909W        W25040   3.757   5.416   3.074 -0.0461  0.2795  0.2030
 9910W        W25041   9.048   0.089   1.941  0.0603 -0.0553  0.1993
 9911W        W25042  16.280  15.574   0.619 -0.1163 -0.1028 -0.0377
 9912W        W25043  16.296   8.350   1.253 -0.1650  0.5350 -0.1425
 9913W        W25044   9.271  17.769   4.710 -0.0920  0.2245 -0.0140
 9914W        W25045   6.422   6.225  15.809 -0.0767 -0.2257  0.1798
 9915W        W25046  10.005   4.266  12.886 -0.2782  0.2674  0.1676
 9916W        W25047   9.655   6.271   4.712  0.0638  0.3543 -0.1361
 9917W        W25048  15.930  14.695  15.651 -0.0214  0.0067 -0.2682
 9918W        W25049   4.622   1.503   2.534  0.0398  0.1027  0.0035
 9919W        W25050  16.293  12.430  13.523 -0.1836  0.0654 -0.0827
 9920W        W25051  15.546  13.104  10.713  0.3023  0.1949 -0.2647
 9921W        W25052   1.262  12.454   2.995  0.0189 -0.2093  0.1536
 9922W        W25053   7.047  14.624   0.772  0.1286  0.0697 -0.1413
 9923W        W25054   4.969  15.839   1.142  0.2316 -0.0803  0.1342
 9924W        W25055   5.966  15.330   3.039  0.0994  0.0938 -0.0835
 9925W        W25056   0.826   5.483   1.998 -0.0871  0.1734 -0.0479
 9926W        W25057  14.023  16.356  11.382 -0.0313 -0.0888  0.1425
 9927W        W25058   7.407   7.845  11.743 -0.1246  0.2355 -0.1133
 9928W        W25059   6.455  12.322   0.513 -0.1226 -0.1609  0.0839
 9929W        W25060   7.607   1.648  12.531 -0.2454 -0.2054  0.0857
 9930W        W25061   3.227   7.649  15.653 -0.2156 -0.0400 -0.0117
 9931W        W25062  15.234   0.010  15.392  0.4240 -0.0203 -0.3884
 9932W        W25063   4.764   7.104   3.680 -0.1427 -0.1652 -0.2507
 9933W        W25064   9.965   9.939  11.841 -0.0343  0.1013  0.2178
 9934W        W25065  11.134   6.873   3.639  0.0458  0.5110  0.2389
 9935W        W25066   3.390   5.958   4.093 -0.1717 -0.2060  0.2289
 9936W        W25067  14.538  13.344  15.921 -0.1054  0.2233 -0.3342
 9937W        W25068  15.121   4.150   2.984 -0.1736  0.0519 -0.0917
 9938W        W25069  14.236   9.358  14.099  0.1089  0.1304  0.1407
 9939W        W25070  11.852   1.784   0.725  0.0891 -0.0399  0.1191
 9940W        W25071  13.688   9.347   1.354  0.0932 -0.2890  0.1782
 9941W        W25072   1.785  11.747  15.544 -0.3035  0.2343  0.1551
 9942W        W25073   2.668   6.608   4.368 -0.1624 -0.0944 -0.0096
 9943W        W25074  17.330   7.476   1.149 -0.3440 -0.0613 -0.0091
 9944W        W25075   1.478   8.522   4.296  0.0808 -0.0769  0.1608
 9945W        W25076   5.066  11.294   0.981 -0.0676 -0.1490 -0.1957
 9946W        W25077   7.553   6.229   4.114  0.3015  0.3058  0.0920
 9947W        W25078  15.310   3.080  11.497  0.1388  0.0094 -0.1171
 9948W        W25079   6.040   7.703   4.140 -0.2237 -0.0401  0.2490
 9949W        W25080   8.588   4.874   4.826 -0.0371  0.1378  0.1202
 9950W        W25081  12.531   4.921   6.482 -0.0283  0.1274 -0.1724
 9951W        W25082   4.659  16.036  14.106  0.1656 -0.2052 -0.0284
 9952W        W25083  14.442   1.766   5.043  0.1653  0.2649  0.1387
 9953W        W25084  10.749   7.282   1.397 -0.0100 -0.1300 -0.0694
 9954W        W25085   3.408  14.743   3.685 -0.1082 -0.2687  0.3740
 9955W        W25086   4.670  16.601  15.661  0.2805 -0.1139 -0.1557
 9956W        W25087   8.436  12.961  16.399 -0.2930  0.0171  0.2164
 9957W        W25088   9.385  11.970   5.916 -0.1942  0.1490  0.2859
 9958W        W25089  12.165   8.828  13.825 -0.1241  0.1082  0.0597
 9959W        W25090  16.718   6.441   3.605 -0.0557 -0.0196 -0.3121
 9960W        W25091   0.808  14.971  16.168 -0.0547  0.0406 -0.2304
 9961W        W25092  10.970   7.021   5.510  0.0642 -0.2125  0.2440
 9962W        W25093   2.698   5.133  15.424  0.1192  0.1237 -0.0203
 9963W        W25094  11.506   7.561   1.945  0.2120 -0.0978 -0.0024
 9964W        W25095   1.853   5.392   0.645  0.0540 -0.0007 -0.1824
 9965W        W25096   3.046   3.783   0.681  0.0661 -0.0423 -0.0252
 9966W        W25097   7.967  12.115   5.771  0.0232 -0.0736  0.1196
 9967W        W25098  10.346  16.319   0.170 -0.3249  0.1346 -0.3677
 9968W        W25099   1.295   1.292   2.346  0.0043 -0.0928 -0.1109
 9969W        W25100   6.904   2.534   2.829  0.0014  0.3421 -0.0709
 9970W        W25101   4.837   1.674  14.567 -0.1259  0.3219 -0.0906
 9971W        W25102   7.023  16.303  15.453 -0.0936 -0.4167 -0.0705
 9972W        W25103   8.418  10.273  14.414 -0.4015  0.3157  0.2523
 9973W        W25104   8.022  12.980   0.962  0.0585  0.2634 -0.0119
 9974W        W25105   4.747  15.044   2.755 -0.2783 -0.2469 -0.2212
 9975W        W25106  13.582  17.881   3.635 -0.0653  0.2835  0.0160
 9976W        W25107   6.094   6.018  16.176  0.1269 -0.2247 -0.1736
 9977W        W25108  17.478   5.157   0.385  0.1472  0.1117  0.0087
 9978W        W25109  12.373   8.611   4.351 -0.0463  0.0507 -0.0348
 9979W        W25110   7.815  10.162  15.701 -0.1720 -0.0747 -0.0080
 9980W        W25111   8.506  15.929   5.648 -0.0708 -0.0699 -0.1189
 9981W        W25112   3.427  12.266   3.887 -0.0016 -0.0812  0.1508
 9982W        W25113  10.699   4.016  13.934  0.3630  0.0597  0.2582
 9983W        W25114   5.706   7.662   2.347  0.0170  0.1898 -0.0516
 9984W        W25115   0.357  14.451  12.446  0.1610  0.0012  0.2938
 9985W        W25116   6.726  17.251   4.488 -0.2323 -0.1701 -0.0537
 9986W        W25117   8.740  14.531  15.335  0.3182 -0.1717 -0.1608
 9987W        W25118  10.523   0.643   5.154 -0.0927 -0.0097  0.0134
 9988W        W25119  15.914  14.989  12.051 -0.1379 -0.0144 -0.0957
 9989W        W25120  12.735   7.863  16.602 -0.1180  0.1547  0.1162
 9990W        W25121   5.881   7.223  11.209 -0.0596  0.2638  0.1019
 9991W        W25122  15.680  15.229   0.056 -0.1659  0.3077  0.0427
 9992W        W25123   2.972   2.101   4.564 -0.1345 -0.2853  0.1277
 9993W        W25124  17.612  15.258  16.231 -0.1968 -0.1787  0.1449
 9994W        W25125   1.689   4.921  16.588  0.2730  0.1817 -0.0593
 9995W        W25126  13.424   4.515  13.935  0.2441 -0.1999  0.1286
 9996W        W25127   0.045   9.655  12.004  0.1999  0.1186 -0.0666
 9997W        W25128  15.664   5.739  11.698 -0.0839 -0.1103  0.4279
 9998W        W25129  14.744   6.645   3.767  0.1888  0.0842  0.2014
 9999W        W25130  13.326  11.489  14.273 -0.1377 -0.0129  0.0774
10000W        W25131   1.719   5.656  15.823  0.2201  0.3611  0.0309
10001W        W25132   7.238   3.854   0.518 -0.0224 -0.0411  0.3124
10002W        W25133  14.975  16.856   1.408 -0.0516 -0.0788 -0.0933
10003W        W25134   2.138   3.353   1.983 -0.0422 -0.2191 -0.0468
10004W        W25135   2.575  11.642   4.849  0.0238 -0.1470  0.2307
10005W        W25136  14.476   5.730   1.606  0.1339 -0.3808 -0.0477
10006W        W25137   5.922  15.744   0.593 -0.2589 -0.0702 -0.2167
10007W        W25138   7.080  10.749   4.235 -0.2433 -0.1058  0.2527
10008W        W25139   4.219  17.237   0.405  0.2461 -0.3386 -0.0224
10009W        W25140  12.678   9.816   0.095  0.2923  0.4657 -0.4635
10010W        W25141   7.784   0.399  14.729 -0.0272  0.0196 -0.0339
10011W        W25142   3.835  14.313   1.410  0.0197 -0.3315  0.2812
10012W        W25143   7.279   4.978  16.580 -0.2661 -0.1573 -0.0533
10013W        W25144   7.964   8.723   6.204 -0.3204 -0.0820  0.0673
10014W        W25145   1.739   5.181  12.795  0.3146  0.2192 -0.0404
10015W        W25146  10.969   9.524   0.682 -0.1731  0.1121 -0.2386
10016W        W25147  14.729   3.066  13.576 -0.1674  0.0259  0.2439
10017W        W25148   7.080   8.811  12.786 -0.0778 -0.0915  0.0208
10018W        W25149   2.906   6.568  15.215 -0.1077  0.0320  0.4714
10019W        W25150   0.324  12.296  13.457 -0.3760 -0.1463  0.3742
10020W        W25151   0.017   8.648  15.614 -0.2204  0.2735  0.1092
10021W        W25152   0.310  14.075   3.348  0.2669  0.0663  0.1021
10022W        W25153   7.514  16.862   4.038  0.1773 -0.0604 -0.1897
10023W        W25154  10.092   6.382  14.450 -0.0668  0.1471  0.1301
10024W        W25155   8.447   5.857  14.142 -0.1724  0.1064 -0.0966
10025W        W25156  15.630   0.866   0.301  0.0934 -0.1605 -0.1795
10026W        W25157   6.304   9.889   1.009  0.1967  0.1916  0.0451
10027W        W25158   7.371   9.801   0.341 -0.0967  0.2755  0.1152
10028W        W25159  16.066   5.771   2.900 -0.0361 -0.1214  0.1417
10029W        W25160   5.561   9.882   3.623 -0.1264  0.1301 -0.1912
10030W        W25161   8.787   2.844   5.159  0.2930  0.0299  0.2165
10031W        W25162   2.382  11.755   4.432  0.1712  0.1256  0.3116
10032W        W25163  10.033  15.517  12.186 -0.2012 -0.6497 -0.0983
10033W        W25164   5.236   2.530  12.381 -0.1869  0.1415 -0.1736
10034W        W25165  11.411  12.550   5.191  0.4034 -0.0033 -0.1801
10035W        W25166   6.637  15.604   2.163 -0.0273  0.2426 -0.3340
10036W        W25167  16.936  15.586   0.130  0.0117 -0.2892  0.1349
10037W        W25168   2.936   0.702   4.601 -0.2216 -0.0093 -0.0223
10038W        W25169  14.126  11.849   0.991  0.1951 -0.3473 -0.1848
10039W        W25170   5.291  16.131   2.966  0.0880 -0.0200 -0.1165
10040W        W25171  14.062  12.920   6.529 -0.1152  0.0065 -0.1180
10041W        W25172  14.841   2.701   3.389  0.4351 -0.0598 -0.0572
10042W        W25173   4.816   2.909   3.704 -0.1821  0.0264 -0.0778
10043W        W25174   7.297  15.235   1.614  0.4490 -0.1041 -0.3944
10044W        W25175   9.653   4.348   2.050 -0.0002  0.3963  0.1782
10045W        W25176  17.379   5.373   3.732  0.0565  0.0022 -0.2285
10046W        W25177   2.642   3.710   5.274 -0.0031 -0.0660 -0.1040
10047W        W25178  16.693   8.173   2.452 -0.2678 -0.0889 -0.2998
10048W        W25179  11.121   3.083  13.161 -0.1457  0.0226 -0.0301
10049W        W25180   0.495  15.357   6.697 -0.0085 -0.0160 -0.1449
10050W        W25181  12.560   1.254   3.462 -0.0717 -0.1260  0.0519
10051W        W25182  14.528   3.772  13.497  0.4203  0.0463  0.2857
10052W        W25183  16.057   3.921  16.617  0.0850 -0.0388  0.0852
10053W        W25184  16.756   4.200   5.097 -0.0554 -0.1577 -0.2096
10054W        W25185  13.039  16.913   5.497  0.1612 -0.1395  0.1695
10055W        W25186  17.384  12.886  14.417 -0.0197 -0.1201 -0.0177
10056W        W25187   0.634   2.911   2.140 -0.2068 -0.0239  0.1551
10057W        W25188   8.018  10.227   5.623 -0.1775  0.0077  0.2764
10058W        W25189  12.750  12.430   5.023  0.2284  0.1706 -0.1052
10059W        W25190   2.515  10.696   1.697  0.2880 -0.1163  0.1049
10060W        W25191   1.020   6.468   4.564  0.0764 -0.1680 -0.0056
10061W        W25192  12.722   4.643   2.664 -0.2104 -0.3015  0.0004
10062W        W25193   6.351   9.005  14.208  0.1622  0.0260  0.4003
10063W        W25194  13.618   8.674  15.618  0.0321  0.2559  0.3614
10064W        W25195  16.863   5.026   4.561 -0.2465  0.1260  0.0930
10065W        W25196   7.053  15.815   1.810 -0.1238  0.0563  0.0393
10066W        W25197   4.027  14.106   2.171 -0.2068 -0.1181 -0.0360
10067W        W25198   0.034   0.894   5.894 -0.1779 -0.2572 -0.2486
10068W        W25199  14.316   9.202  12.502  0.1543 -0.0310  0.1656
10069W        W25200  16.494  11.816  11.106 -0.1351 -0.1535 -0.0398
10070W        W25201  17.599  14.083   6.005  0.2289 -0.0024  0.0366
10071W        W25202  10.920  14.949  14.018 -0.1188  0.0705 -0.0293
10072W        W25203   3.727   4.383   4.503  0.1229  0.0285 -0.1535
10073W        W25204   0.534   0.084  16.081 -0.1315 -0.1022  0.0463
10074W        W25205  12.742   9.456   3.958  0.3018 -0.0974  0.0085
10075W        W25206   8.962   5.949  16.274 -0.1066  0.1979 -0.1198
10076W        W25207  12.688   8.232   2.072  0.0442  0.2626  0.0831
10077W        W25208   4.055   0.449  14.234  0.3134 -0.0291 -0.0211
10078W        W25209  11.108  14.198   4.169  0.1264 -0.0424 -0.2808
10079W        W25210   8.154   2.540   3.597  0.0137 -0.2264  0.3250
10080W        W25211   2.827  10.661   0.058 -0.0097  0.0274  0.1092
10081W        W25212  17.032   6.819   6.089 -0.1302  0.0012 -0.1334
10082W        W25213  17.686  16.757   2.092 -0.0233 -0.3037  0.2528
10083W        W25214  13.138   4.592   6.210  0.2238 -0.0770  0.0419
10084W        W25215   4.422  17.644   3.574 -0.0405 -0.0952 -0.0669
10085W        W25216  11.703   9.758   0.385  0.0402 -0.0554 -0.3113
10086W        W25217   8.962   5.499  11.784 -0.1512  0.1079  0.2018
10087W        W25218   1.839  12.931  16.138 -0.0419 -0.0378  0.0621
10088W        W25219  16.309   2.971   0.971 -0.1033 -0.1786  0.1086
10089W        W25220  10.165  12.823   5.191 -0.1138  0.1854  0.2312
10090W        W25221  15.860  13.934  12.788 -0.0006  0.0386  0.1794
10091W        W25222  15.143   5.877   1.848  0.0449  0.0966  0.0587
10092W        W25223  14.842   0.139   5.761 -0.1705 -0.0002  0.0669
10093W        W25224  10.830   5.899   2.278 -0.1091  0.1267  0.1378
10094W        W25225  10.586  17.608   0.921  0.0782 -0.0631 -0.1005
10095W        W25226  13.896   9.511  15.377 -0.1800  0.1344 -0.0773
10096W        W25227  11.001   6.739   4.683  0.2803  0.0457 -0.1095
10097W        W25228  15.175  14.658   5.129  0.2424  0.0227 -0.1680
10098W        W25229   7.535  17.841  13.576 -0.3580 -0.0423 -0.0263
10099W        W25230   2.416  14.448   1.174  0.0550  0.3340  0.1229
10100W        W25231  16.729   6.269  14.619  0.1589  0.0556 -0.2531
10101W        W25232   1.370  14.775  11.890 -0.0838  0.1409  0.1003
10102W        W25233  13.689  12.739  13.078 -0.0023 -0.1806  0.2508
10103W        W25234   0.023  11.284   3.640  0.0969 -0.0026 -0.0179
10104W        W25235  10.261   7.023  14.431  0.1370  0.1011 -0.4192
10105W        W25236   6.669  12.673  16.035  0.1321 -0.2186  0.3373
10106W        W25237  15.137   8.483   4.437  0.0526 -0.2691 -0.1464
10107W        W25238   3.289   1.087  15.216 -0.3335 -0.0703  0.0897
10108W        W25239   5.223  11.290  14.296 -0.1397  0.1874  0.1698
10109W        W25240  12.878   5.610   4.804  0.0785 -0.1906  0.1309
10110W        W25241   9.122   6.608  11.193 -0.0182 -0.0955  0.0474
10111W        W25242   4.044   1.437  15.419  0.0882  0.1580 -0.2302
10112W        W25243   6.953   5.873   5.218 -0.1001  0.1898  0.0569
10113W        W25244   4.978  15.321   2.388  0.0263 -0.4306  0.0569
10114W        W25245  13.848   2.140   1.471  0.0358 -0.3115  0.0500
10115W        W25246  10.657   0.765  15.241 -0.0007 -0.1100  0.2908
10116W        W25247  12.094   2.495   5.630  0.0017 -0.2794 -0.0518
10117W        W25248  14.994  13.633  16.670 -0.2458  0.0832 -0.1349
10118W        W25249  13.665   1.024   3.879 -0.0852  0.2068 -0.0342
10119W        W25250   3.754   5.999   3.704  0.4521  0.0628  0.1362
10120W        W25251   3.589   5.129  12.517  0.2072 -0.1199  0.0055
10121W        W25252   9.672  15.620   1.559  0.0556 -0.1213 -0.2672
10122W        W25253  13.448  10.480   1.890 -0.0677 -0.0408  0.0290
10123W        W25254  14.034   0.133  13.002  0.0741  0.2118  0.3031
10124W        W25255   7.259   4.628  15.969  0.0512  0.1944 -0.0386
10125W        W25256   5.509  16.018  14.038  0.3170  0.3239 -0.0993
10126W        W25257   3.303   9.992  15.794 -0.1987  0.2110  0.1011
10127W        W25258   7.411   1.847   2.283  0.1469  0.0926  0.0435
10128W        W25259  14.721   8.300   3.261  0.1422  0.0591 -0.2279
10129W        W25260   4.404   2.429  12.998  0.4842 -0.2395  0.0633
10130W        W25261  16.194   4.718   2.929  0.1619 -0.4560 -0.1603
10131W        W25262   1.101   0.277   0.421  0.3097 -0.1720  0.2665
10132W        W25263   4.283  14.630   3.037 -0.0411 -0.1860 -0.0802
10133W        W25264  13.730  12.737  11.379 -0.2369 -0.1442 -0.1930
10134W        W25265  15.466  14.507  11.333 -0.1650 -0.0815 -0.0360
10135W        W25266  13.815  16.150  12.334  0.6026 -0.0874  0.2146
10136W        W25267   6.690   6.857   2.426 -0.1132  0.0658 -0.0920
10137W        W25268   4.181  16.024   3.680  0.2367 -0.1300 -0.0855
10138W        W25269  17.510  15.770  16.177 -0.2309 -0.0934 -0.1677
10139W        W25270   2.151   3.930   5.385  0.0443  0.1768 -0.0777
10140W        W25271   3.142   4.716  11.956  0.0309 -0.0755  0.0537
10141W        W25272  13.226   0.442   1.530  0.1770 -0.0667 -0.0065
10142W        W25273  13.141   7.614   4.095  0.0686  0.6681 -0.2648
10143W        W25274   9.625   8.204   0.209 -0.0339  0.0827 -0.1544
10144W        W25275  15.136   5.672   4.930 -0.2011  0.0896  0.1346
10145W        W25276  17.135   5.219  15.298  0.2549 -0.1277  0.1856
10146W        W25277   3.420   8.816  12.622 -0.2702 -0.1922 -0.1125
10147W        W25278   4.071  13.059   3.014 -0.0263 -0.1483  0.1660
10148W        W25279   4.632   1.158  15.883 -0.1806 -0.0376  0.1624
10149W        W25280   5.538   5.194   3.826  0.0795  0.1742  0.2071
10150W        W25281   8.474   9.794  14.149 -0.1538 -0.0687 -0.0154
10151W        W25282   1.244  15.431   0.825 -0.2133 -0.3028  0.1744
10152W        W25283  15.689   7.681  13.280 -0.0946 -0.3409  0.1453
10153W        W25284  16.806   9.411   3.502  0.0540 -0.2056 -0.0072
10154W        W25285   8.662   4.997  13.923 -0.0948  0.2396 -0.0621
10155W        W25286   2.236  15.110  16.440 -0.0316  0.2018 -0.1341
10156W        W25287   1.952   5.579  13.007  0.0796  0.2327 -0.0672
10157W        W25288   7.196   7.160  13.035  0.1716  0.1379  0.0612
10158W        W25289   7.344   8.700  13.865  0.0468 -0.2033  0.0259
10159W        W25290  12.651   8.635  16.726 -0.1834  0.1026 -0.0535
10160W        W25291   0.371   1.142   0.208 -0.1187 -0.0320  0.0664
10161W        W25292  11.928   2.093  13.819  0.0456  0.1877 -0.2879
10162W        W25293  13.297   6.280   3.645 -0.2555  0.0791  0.1043
10163W        W25294   6.172  17.859   5.607 -0.0135  0.0871 -0.1695
10164W        W25295  11.052   9.133  12.603  0.1814  0.1524  0.2358
10165W        W25296   4.933  13.589   0.850 -0.1439 -0.1846 -0.1168
10166W        W25297   7.978   3.715  10.874  0.0769 -0.1807  0.1894
10167W        W25298   8.645  17.568  16.709  0.1337  0.0968 -0.0460
10168W        W25299   5.313  14.492   4.379 -0.2084  0.1022  0.0915
10169W        W25300   8.373   1.775   4.545  0.0286 -0.2691 -0.0226
10170W        W25301   7.290   3.977   2.011 -0.0019 -0.1148  0.0561
10171W        W25302   0.649  12.632  13.689 -0.2508 -0.0921  0.1196
10172W        W25303   7.716   9.979   4.469  0.0036 -0.0850 -0.1632
10173W        W25304   4.039  11.127  12.466 -0.3597 -0.0395 -0.4103
10174W        W25305  13.241  10.192  11.796 -0.2009  0.0569  0.0311
10175W        W25306  10.026   8.148   4.146 -0.0776 -0.0401  0.0095
10176W        W25307   7.640   1.650  16.559  0.1233  0.0474  0.1508
10177W        W25308   0.095   8.904  12.493  0.3993  0.1355  0.2377
10178W        W25309  10.756   0.202  15.253  0.0253 -0.0871 -0.3152
10179W        W25310  17.337   9.551  13.616 -0.2531  0.3367 -0.0527
10180W        W25311   2.613  15.404   3.147 -0.0954 -0.1797  0.2627
10181W        W25312  14.900  13.344  14.563  0.0767  0.2476  0.0823
10182W        W25313  14.420   8.400   1.695  0.2242  0.0619  0.1938
10183W        W25314   7.717  10.411  11.297 -0.5618 -0.4891 -0.0562
10184W        W25315   7.567  11.267  13.248  0.0659 -0.1584  0.0436
10185W        W25316  10.723  13.735  12.642  0.2884  0.1185  0.2203
10186W        W25317   5.773  11.849   2.159 -0.4835  0.2243  0.0486
10187W        W25318   5.276  16.148   5.175 -0.2420 -0.0699  0.0680
10188W        W25319   8.156  16.757  15.717  0.1011  0.2119  0.0018
10189W        W25320  10.632   5.664  15.634 -0.0054  0.0861  0.1824
10190W        W25321  14.409  14.243   1.757 -0.1800 -0.2644  0.2158
10191W        W25322   7.601  17.560  11.022  0.1430  0.1381  0.0692
10192W        W25323   3.322   7.194  14.941 -0.1705 -0.4808 -0.3786
10193W        W25324   9.313   2.028  12.195  0.0679 -0.1030 -0.1397
10194W        W25325  14.690   4.099   4.715 -0.0743 -0.0352 -0.0203
10195W        W25326  15.296   8.724  15.936 -0.0428 -0.1577  0.0948
10196W        W25327   5.461  12.417   0.799  0.2733  0.1461  0.0540
10197W        W25328   9.511  11.402  12.252 -0.0538 -0.1102 -0.0807
10198W        W25329  13.413  16.278  12.837 -0.0110 -0.3434  0.2232
10199W        W25330   2.032   8.751   3.386 -0.0974 -0.1551 -0.0220
10200W        W25331   1.747  11.815   1.815 -0.0054 -0.1027  0.1721
10201W        W25332  10.341  13.719   1.707  0.0608  0.4319 -0.1409
10202W        W25333   9.311  11.622  14.608  0.1001  0.2503  0.1955
10203W        W25334  17.718  10.346   3.585  0.2929  0.0304 -0.0467
10204W        W25335   6.800  15.328   6.383 -0.1108  0.1605 -0.2157
10205W        W25336  17.839   3.014  14.775  0.0065  0.2380  0.2606
10206W        W25337   1.012  10.856  13.824 -0.2558  0.3148  0.0914
10207W        W25338   2.530  11.731  12.269  0.0518  0.3500 -0.3475
10208W        W25339   2.448   1.476   0.974  0.1383 -0.0611  0.2846
10209W        W25340  17.491  10.649  13.620  0.3715  0.0833 -0.3239
10210W        W25341  14.378   6.558   2.033 -0.1187  0.1361 -0.0300
10211W        W25342   4.943  13.432  14.740  0.1308  0.0307 -0.0848
10212W        W25343  14.189   9.622   3.755  0.4958 -0.1084  0.1187
10213W        W25344   0.317   0.648  15.812  0.0627  0.0200 -0.0647
10214W        W25345   7.946  12.471  11.694  0.0638  0.2751  0.0333
10215W        W25346  17.034   1.135   3.247 -0.0346  0.0966  0.2966
10216W        W25347   8.906   0.601   4.872  0.3632 -0.1412 -0.2468
10217W        W25348   1.636   0.717   0.573  0.0624 -0.1893  0.0621
10218W        W25349  15.468  12.791  11.553 -0.0579 -0.1514  0.0211
10219W        W25350  16.080   7.675  16.164  0.0590  0.2574 -0.0373
10220W        W25351  15.367   7.459   4.468  0.1879  0.2127  0.3216
10221W        W25352  16.332  12.941  15.031 -0.2843  0.2816  0.0071
10222W        W25353   9.758   8.804  14.234 -0.4310 -0.1652  0.0819
10223W        W25354   3.709   7.927   4.095  0.1588  0.2809  0.4159
10224W        W25355  17.629  15.445   4.471 -0.0687  0.4583 -0.1053
10225W        W25356   0.004   5.891  15.180 -0.5536  0.0709 -0.2792
10226W        W25357   3.441   8.310  12.681  0.1862  0.0221  0.1501
10227W        W25358  12.551   1.806  15.125 -0.1760  0.3643 -0.0696
10228W        W25359   7.149  16.245  12.687 -0.2078  0.2118 -0.1278
10229W        W25360   0.517  14.179  16.299  0.0843  0.0225 -0.1235
10230W        W25361   9.800  12.184  14.241  0.1241 -0.1198 -0.0442
10231W        W25362   8.348   8.896   2.911 -0.1053 -0.1012 -0.0293
10232W        W25363  11.801   1.613   1.232  0.0643  0.3325 -0.2223
10233W        W25364  16.592   2.882   1.392  0.0839 -0.2452 -0.3052
10234W        W25365   4.335  10.729   4.217 -0.2755  0.0901 -0.1807
10235W        W25366   8.112   6.128   0.428 -0.0498 -0.0163 -0.0549
10236W        W25367   7.591  17.307  13.305 -0.2176 -0.0478  0.5286
10237W        W25368   7.270   5.790   0.380 -0.0463  0.0677 -0.1682
10238W        W25369   6.888   5.276  14.367  0.0634  0.2556 -0.2460
10239W        W25370   0.945   4.051  12.114 -0.3393  0.2434  0.0440
10240W        W25371  14.052   1.810   1.074 -0.1716  0.0967  0.1947
10241W        W25372   6.391   4.562  14.453 -0.0774  0.0855  0.0795
10242W        W25373  13.273   8.325   4.594  0.1560 -0.1461 -0.3093
10243W        W25374  14.397   7.988  11.111 -0.1175 -0.0829 -0.1010
10244W        W25375   9.566   3.869  10.720  0.2789  0.2436 -0.1907
10245W        W25376   0.598   6.694  15.265  0.0955  0.0819 -0.0671
10246W        W25377   2.945  14.207   2.493  0.3591 -0.0498 -0.2597
10247W        W25378   9.558  13.834   1.102  0.2004 -0.0829  0.2825
10248W        W25379  16.779   1.453   4.379 -0.1107  0.1932  0.4673
10249W        W25380  11.101   2.724  15.130 -0.2933  0.1694 -0.1835
10250W        W25381  11.715  16.611   0.600 -0.2179  0.1080 -0.1728
10251W        W25382  14.884   2.502  15.945 -0.0546 -0.0468 -0.0871
10252W        W25383  10.538   2.668  16.085 -0.0262  0.1316  0.1132
10253W        W25384  16.442   2.968   2.241  0.0723  0.0359  0.0483
10254W        W25385   0.261   2.777  12.329 -0.4049  0.0178  0.3349
10255W        W25386  13.021   4.319  15.223 -0.0660  0.0671  0.0380
10256W        W25387   1.061   5.600   2.480  0.3310  0.1203  0.0966
10257W        W25388   9.855  16.168   3.078  0.2000  0.1063  0.1291
10258W        W25389   5.994  16.140   0.260 -0.0140  0.0160  0.1018
10259W        W25390   6.038   4.459  15.162  0.0062  0.2341  0.0083
10260W        W25391   1.961   8.186  16.255 -0.1390  0.0205  0.3446
10261W        W25392  11.326   9.851   0.741 -0.1817 -0.1404  0.0909
10262W        W25393  12.814   6.923   3.979  0.0533 -0.0097 -0.0556
10263W        W25394  10.437   9.241  15.525  0.1241  0.0168 -0.1703
10264W        W25395  11.833  17.061  16.353 -0.1546  0.2770 -0.2838
10265W        W25396  14.159  11.175  16.735 -0.1200  0.1568  0.1693
10266W        W25397  12.545   3.839   4.706 -0.0091  0.1281 -0.2286
10267W        W25398  17.558  12.268   0.406  0.0527  0.1150  0.1554
10268W        W25399   2.649   3.210  16.363  0.2629  0.2828 -0.0682
10269W        W25400   2.676  15.028   0.680 -0.0197  0.1929 -0.0556
10270W        W25401   8.090  16.593  15.264  0.1008 -0.1163  0.0603
10271W        W25402   4.090   1.202   5.169 -0.1387  0.3403  0.2614
10272W        W25403   6.425  13.136  12.911 -0.0749 -0.2102 -0.0126
10273W        W25404   4.316  16.513   2.509 -0.0174 -0.0559 -0.0423
10274W        W25405   9.608  17.226  11.184 -0.1619 -0.1598  0.0163
10275W        W25406  13.483  16.863   1.108 -0.3442 -0.1838  0.0168
10276W        W25407  12.764  10.223   3.052  0.0194  0.3179 -0.1114
10277W        W25408   1.896  17.393   1.101  0.1496  0.0137 -0.1203
10278W        W25409   7.272  14.364   4.676  0.2201  0.0332 -0.3719
10279W        W25410   8.399   2.329   4.034  0.0612 -0.2087 -0.1045
10280W        W25411   7.726  14.884   5.550  0.0774  0.0203 -0.1710
10281W        W25412   0.891  11.185  12.400 -0.1464 -0.1654 -0.0466
10282W        W25413   0.047  11.213  15.592 -0.2884 -0.1287  0.1249
10283W        W25414  16.343  11.788   1.511 -0.0671  0.2122  0.0591
10284W        W25415  16.681  12.166   3.021 -0.4881 -0.1326  0.0444
10285W        W25416   8.668   4.398   3.634 -0.2429  0.1721 -0.1637
10286W        W25417   7.242   2.031  16.393 -0.2395  0.0548  0.2223
10287W        W25418   1.530  13.891  12.437  0.0889 -0.0767 -0.1161
10288W        W25419  15.677   4.752   1.962 -0.1170  0.3467 -0.0516
10289W        W25420   3.136   9.809  13.333  0.5206 -0.0393  0.0072
10290W        W25421   5.382  10.508  15.063  0.2458  0.1176 -0.0248
10291W        W25422  14.907   8.509  15.055  0.1321  0.0862  0.0786
10292W        W25423  13.569   7.365   3.828 -0.1789 -0.1215 -0.2476
10293W        W25424  16.449   1.265   2.179  0.0125 -0.0929 -0.1991
10294W        W25425  11.679  16.248   3.416 -0.3329 -0.0673 -0.1081
10295W        W25426   6.851   0.858  10.834  0.1385  0.0430 -0.2206
10296W        W25427  13.385  14.266   0.994  0.0009  0.2257 -0.1013
10297W        W25428  16.828  17.780  13.403 -0.0563  0.2254 -0.1381
10298W        W25429   0.256   6.892  15.893  0.0229  0.3878  0.0235
10299W        W25430  12.827  11.746  14.020 -0.1867 -0.2768  0.0906
10300W        W25431   6.184  13.608   0.213  0.0540 -0.0606  0.0957
10301W        W25432   7.451   0.100   0.589 -0.4017  0.0383 -0.0816
10302W        W25433   1.274  12.691   0.370  0.1267 -0.3555  0.1865
10303W        W25434  17.519   2.628   0.695 -0.0589  0.0566  0.1794
10304W        W25435  16.788   3.154  14.260  0.0807  0.0484 -0.5644
10305W        W25436  12.937  10.848  15.692  0.2182 -0.0637  0.3932
10306W        W25437   2.339   0.255   6.451  0.0996  0.0329  0.2475
10307W        W25438   6.412   4.793   0.775 -0.1399 -0.1485 -0.0146
10308W        W25439  12.749  16.834  15.820  0.1668  0.1678  0.1003
10309W        W25440   5.236   9.275   1.571 -0.0426  0.3025  0.1992
10310W        W25441   0.176  12.149   0.374  0.3160 -0.0141  0.2843
10311W        W25442  16.148   5.444   0.292 -0.2414 -0.0860 -0.0221
10312W        W25443  17.254   8.852   4.887  0.0117 -0.3807  0.2107
10313W        W25444  10.720   9.164  16.650  0.0405 -0.0465  0.2218
10314W        W25445   1.495   7.021  15.984  0.4343 -0.3344  0.0719
10315W        W25446  14.264  17.059   6.096 -0.1900  0.4951  0.0024
10316W        W25447   2.021  16.082  16.595 -0.2113  0.0231  0.1634
10317W        W25448   2.950   9.246  14.586  0.0926 -0.1092  0.1011
10318W        W25449   1.010   5.057  15.901  0.0782  0.0991  0.1792
10319W        W25450   6.752   0.515  12.223 -0.0705  0.3283  0.0463
10320W        W25451  13.527   2.322   4.282 -0.1835 -0.0567 -0.1221
10321W        W25452   7.079   9.908  12.650  0.0711  0.3050 -0.1378
10322W        W25453  14.508   7.829  16.054  0.1248 -0.2700 -0.2030
10323W        W25454   9.361   9.735  13.860  0.3058 -0.0220 -0.0968
10324W        W25455  13.579  11.520  12.903  0.0411  0.1397  0.1127
10325W        W25456  15.613  15.549   4.826 -0.0733  0.0738  0.1754
10326W        W25457   3.885   6.379  11.574 -0.0640 -0.0161 -0.1825
10327W        W25458  11.331   9.498   5.789 -0.1541  0.0333 -0.0035
10328W        W25459  15.043   9.543  16.384 -0.0900  0.2304  0.1841
10329W        W25460   4.319  16.582   1.133 -0.0306  0.0784  0.1749
10330W        W25461   2.934   4.803   3.248  0.0757  0.3091  0.1063
10331W        W25462   1.017   9.362   3.943  0.3487 -0.0580  0.1450
10332W        W25463  12.273   7.323   0.324 -0.0228  0.0083  0.0494
10333W        W25464  15.349   7.396   3.167  0.0345 -0.2324 -0.0435
10334W        W25465  10.710   6.951   3.893 -0.1162  0.0336 -0.0890
10335W        W25466  12.498   9.750   1.434  0.0446 -0.4069 -0.0157
10336W        W25467  17.335   0.538   3.487  0.2588 -0.0760  0.1394
10337W        W25468  10.370  10.686  14.385 -0.0349  0.1093  0.0589
10338W        W25469   2.674  16.267   3.461  0.0637  0.2913  0.0540
10339W        W25470   7.441   3.372   2.604  0.0020 -0.3098  0.1380
10340W        W25471  15.627  16.591  13.438  0.0095 -0.1950 -0.1261
10341W        W25472  10.797  12.911   5.326  0.0017 -0.0769 -0.3274
10342W        W25473   9.221   1.867  11.067  0.0536  0.0857 -0.0648
10343W        W25474   9.468   5.858  16.598  0.2145 -0.0378 -0.0580
10344W        W25475   5.502  16.732   2.199 -0.1207 -0.1537  0.3048
10345W        W25476  12.596  14.919   5.181 -0.0901  0.0116 -0.0618
10346W        W25477   6.674   1.976  16.414 -0.1130  0.0286  0.1232
10347W        W25478  12.443  10.959   3.849  0.2824 -0.0774  0.0697
10348W        W25479  12.286   2.230   4.423 -0.0899  0.1257 -0.2991
10349W        W25480  14.611  12.532   4.899  0.3293 -0.2292  0.2155
10350W        W25481   5.448   4.038   4.616  0.1136 -0.0734 -0.1332
10351W        W25482   5.549  12.136  13.857  0.0151  0.1615  0.1179
10352W        W25483  13.946   4.562  12.475 -0.0273 -0.2875 -0.3136
10353W        W25484   6.189   1.174  13.390  0.1691 -0.1950  0.0794
10354W        W25485   1.609   0.194  13.445 -0.3865 -0.1819  0.0476
10355W        W25486   6.714   2.729  11.885  0.2638 -0.0933 -0.1754
10356W        W25487   2.546  17.863  14.109  0.1164 -0.1296  0.0291
10357W        W25488  12.139   5.258  16.616 -0.1409  0.4110 -0.2617
10358W        W25489   4.770  16.314   2.572 -0.2575 -0.3784 -0.1904
10359W        W25490   0.280   3.169   1.868 -0.2674  0.4589 -0.1988
10360W        W25491  16.952   6.680  12.416  0.1966  0.0472 -0.0495
10361W        W25492   5.692   8.848   0.860 -0.2229 -0.0681 -0.1652
10362W        W25493   8.143  15.124   3.370  0.2116  0.2488  0.0450
10363W        W25494   6.657   0.116  11.900 -0.1416  0.0265 -0.1294
10364W        W25495  13.057  14.309  11.534 -0.0321  0.1926  0.0323
10365W        W25496  10.091   9.451   5.779  0.1645  0.0845  0.2174
10366W        W25497  12.633  12.776   2.907  0.1618  0.1232 -0.0956
10367W        W25498  13.125   2.314   5.307  0.1645  0.2669  0.1434
10368W        W25499  12.358  11.008  14.569  0.2918 -0.2168  0.1002
10369W        W25500  14.639   8.349   4.607  0.1263  0.1226 -0.0035
10370W        W25501  15.099   7.288   0.393  0.1397 -0.0560  0.1054
10371W        W25502   3.336  15.878   3.763 -0.2444  0.2646 -0.1666
10372W        W25503   8.137  16.651  12.774 -0.3472 -0.0374 -0.1533
10373W        W25504  12.251   8.117   3.104 -0.2385  0.0639 -0.0478
10374W        W25505  10.691   3.629   2.231  0.0280  0.2642  0.0972
10375W        W25506   6.451   3.788   5.340  0.0689 -0.1789  0.0098
10376W        W25507  15.423  10.539  14.818 -0.3612 -0.1827 -0.1322
10377W        W25508  12.306   2.687  11.082  0.1180 -0.4596 -0.1172
10378W        W25509   3.724  16.131   5.460  0.1572 -0.3263  0.0915
10379W        W25510   7.070  12.362  12.235 -0.4040 -0.1199  0.2714
10380W        W25511  11.919   5.845  15.111 -0.0487  0.0389  0.1466
10381W        W25512   3.629  10.772  12.527  0.1341 -0.1024 -0.0039
10382W        W25513   3.851   7.485  13.458 -0.1447  0.1020  0.2446
10383W        W25514  12.027   6.369  15.166 -0.1041  0.1426 -0.0628
10384W        W25515   4.207  13.273  13.587  0.1722  0.0714 -0.0917
10385W        W25516   9.218   3.963   2.077 -0.0371 -0.3140 -0.2431
10386W        W25517   5.875   0.901  12.459  0.3067 -0.0825 -0.2224
10387W        W25518  11.891   9.313  13.838 -0.1155 -0.0441  0.0273
10388W        W25519  14.134   2.161  11.852  0.0994 -0.1153  0.3064
10389W        W25520  11.210   7.307   1.173  0.0563 -0.0268  0.3611
10390W        W25521   9.334   8.519  10.453  0.0789 -0.0714  0.3216
10391W        W25522  14.643  11.241   2.425 -0.0217  0.0809 -0.5230
10392W        W25523  15.796  17.699  13.765  0.2011 -0.0764 -0.0485
10393W        W25524   3.421  10.762   2.219 -0.0999  0.2734 -0.1215
10394W        W25525  13.105   3.004  14.687  0.2616 -0.2311  0.0934
10395W        W25526  15.504   9.540  13.754 -0.1831  0.1995 -0.0868
10396W        W25527  12.961  15.688  16.361 -0.2652  0.1500  0.4683
10397W        W25528  13.735   7.474  11.819 -0.0848  0.2778  0.0105
10398W        W25529  12.453   2.240  15.012 -0.0760  0.1740  0.2196
10399W        W25530  14.480  12.515  14.199 -0.1189 -0.0861  0.4431
10400W        W25531   4.208   4.339   4.244 -0.0956  0.0794  0.0225
10401W        W25532   4.376   0.422  16.433  0.0467  0.0654 -0.0633
10402W        W25533  10.648  14.480  12.688  0.1228 -0.0160 -0.1292
10403W        W25534  10.498   4.172   0.649 -0.2333  0.1646 -0.1379
10404W        W25535  10.072   4.618  11.228 -0.0444 -0.2986  0.0140
10405W        W25536   9.608   3.834   0.900 -0.3396 -0.2134  0.3604
10406W        W25537   2.103  10.462   2.483 -0.2594 -0.2796  0.2325
10407W        W25538  10.131  16.556  11.608 -0.1131  0.0957 -0.0669
10408W        W25539   1.974   5.351  13.729 -0.0607 -0.1583  0.4343
10409W        W25540   3.739   4.289   5.102  0.0839  0.0123  0.2064
10410W        W25541   3.719   2.982  12.633 -0.0871 -0.2766 -0.0426
10411W        W25542   6.806   0.755  12.673 -0.2107 -0.2136 -0.3846
10412W        W25543   8.880  11.495  13.708 -0.3126  0.1591 -0.0898
10413W        W25544   5.409   6.102  14.758 -0.0882 -0.0869 -0.0321
10414W        W25545  14.653  11.372  12.255 -0.1882  0.1119 -0.0696
10415W        W25546   2.152   6.893   3.035  0.1128 -0.0018  0.1958
10416W        W25547   9.529  11.616  13.366  0.1596  0.3266 -0.3793
10417W        W25548   6.115  12.756  12.885 -0.0636 -0.0806  0.1950
10418W        W25549   2.391  10.676  13.471  0.0436  0.0579  0.1565
10419W        W25550  10.630  16.438   3.041  0.0389  0.1432  0.0917
10420W        W25551   8.916  11.015   0.702 -0.0764  0.2532  0.1254
10421W        W25552   3.482  15.405  10.757 -0.2077 -0.0166  0.0331
10422W        W25553   4.334  17.258  16.261  0.0925 -0.1878  0.1557
10423W        W25554  10.540   6.831   3.441 -0.1939  0.3598  0.1455
10424W        W25555   3.314   9.689  11.440  0.1213  0.1307  0.0281
10425W        W25556  13.340   8.474  13.492 -0.2419 -0.0306  0.0609
10426W        W25557   7.033   8.838   2.556 -0.0917 -0.0443  0.2358
10427W        W25558   1.309  16.079  11.369 -0.0395 -0.0448  0.2339
10428W        W25559   0.176   3.863   5.309  0.0332 -0.0047 -0.3232
10429W        W25560  11.518  13.593  16.132 -0.2070 -0.3237 -0.3662
10430W        W25561   7.134   4.144  11.383 -0.1414 -0.0098  0.3911
10431W        W25562   6.756   5.114   1.199  0.2859 -0.3927  0.1499
10432W        W25563   5.055   6.455  12.964  0.1173  0.0891  0.2815
10433W        W25564  14.808  11.552   5.379 -0.2373  0.2097  0.1295
10434W        W25565   4.410  16.238   0.389  0.3255  0.0191  0.0816
10435W        W25566  13.652   0.957  12.042 -0.0876  0.1321  0.1530
10436W        W25567  17.071   6.290  14.266 -0.2321 -0.1946  0.0528
10437W        W25568  12.456   7.904   1.207 -0.3050  0.1203 -0.0340
10438W        W25569   5.886   4.189   1.314  0.1521 -0.0685 -0.1185
10439W        W25570   4.207   1.533   4.718 -0.3363 -0.0275 -0.0995
10440W        W25571  12.858   3.661   6.383 -0.0520 -0.2367  0.0251
10441W        W25572  15.513  17.865  16.677  0.0379  0.0862  0.3892
10442W        W25573   9.657   3.172  11.721  0.2625 -0.0032  0.0318
10443W        W25574   8.991   1.294  16.678 -0.3350 -0.1315  0.0233
10444W        W25575   0.731  11.907  15.009 -0.3709  0.1039  0.0983
10445W        W25576  11.462   2.318   4.954  0.1954 -0.0955 -0.0352
10446W        W25577  17.437   9.135   5.812  0.1179 -0.1149  0.2912
10447W        W25578   8.348  17.472   2.492 -0.3884  0.0193  0.1684
10448W        W25579   8.313  12.431   5.142 -0.1343 -0.0074  0.0003
10449W        W25580   5.058   4.252   1.539 -0.0734 -0.0680 -0.0597
10450W        W25581  10.149   9.449  11.040 -0.0934  0.0322  0.0709
10451W        W25582  15.369   5.002  15.324 -0.1546 -0.0584  0.0767
10452W        W25583   3.135   5.987  12.355 -0.1751 -0.0419  0.1957
10453W        W25584   0.575   6.360   4.827 -0.1590 -0.0633 -0.1916
10454W        W25585  12.224   1.289  14.237 -0.0140  0.2870  0.0536
10455W        W25586  10.799  13.605   2.419 -0.4304  0.2811  0.3018
10456W        W25587   0.206  15.583   3.647 -0.0701 -0.5582 -0.2995
10457W        W25588  14.303  15.981  12.372 -0.0725 -0.1181 -0.1316
10458W        W25589  12.973  14.637   1.090 -0.1550 -0.1583 -0.0183
10459W        W25590  15.564   3.534  13.636  0.1410  0.4932 -0.0716
10460W        W25591   9.332  11.679   5.407  0.1749 -0.2329  0.3935
10461W        W25592   5.857  14.290   4.350 -0.0910 -0.1048 -0.0698
10462W        W25593  12.429  15.969  12.142 -0.3047 -0.1323  0.0830
10463W        W25594  12.150   9.399   1.251  0.2305 -0.1240 -0.1320
10464W        W25595  11.653  11.825   2.042 -0.0158 -0.0410 -0.2032
10465W        W25596   3.384  17.052  13.267  0.1046  0.0506  0.0772
10466W        W25597  16.928   5.601  13.056  0.1413  0.1409 -0.2263
10467W        W25598  13.035  13.811  11.460 -0.1768  0.1222  0.4117
10468W        W25599   6.276   5.116  15.155  0.1474 -0.2231 -0.2164
10469W        W25600   1.878   2.694  13.717  0.0647  0.3112  0.0462
10470W        W25601  10.379   8.339   5.909  0.3713  0.0463 -0.0280
10471W        W25602   3.644  17.205  13.817 -0.1598 -0.5225 -0.1149
10472W        W25603   2.921  13.543   3.679  0.3057 -0.0022 -0.0748
10473W        W25604   8.662   2.775   4.249 -0.1651 -0.0256  0.2205
10474W        W25605   5.197   8.901   1.006  0.1169 -0.0785 -0.2758
10475W        W25606  13.105  14.395   0.048 -0.2849 -0.1122  0.2098
10476W        W25607  10.201  15.824  13.338  0.1687 -0.0979  0.1480
10477W        W25608   8.010  10.054  12.934 -0.0612  0.0803  0.1370
10478W        W25609  14.492   6.329   3.281 -0.0880 -0.0475  0.3584
10479W        W25610   3.678   8.279  16.029 -0.0047  0.1289 -0.1525
10480W        W25611   8.962   3.930  15.303  0.2177 -0.0369  0.3154
10481W        W25612  15.910  17.267  15.738  0.2051  0.3542  0.0076
10482W        W25613  11.177  14.234   0.567 -0.2499 -0.2413  0.0426
10483W        W25614  10.264   5.239  12.221 -0.2196 -0.1713  0.1678
10484W        W25615  12.000   0.846  14.418 -0.1145 -0.2261 -0.2837
10485W        W25616   5.020  12.996  15.524 -0.1454 -0.1692  0.0174
10486W        W25617  17.118   6.859   5.524 -0.1297 -0.0027 -0.2256
10487W        W25618   5.173   9.123  10.649  0.0184  0.2282 -0.1314
10488W        W25619  11.281   9.937   4.584 -0.1682 -0.0035 -0.3237
10489W        W25620  14.482   8.848   1.923  0.0479  0.0740 -0.2932
10490W        W25621  10.449  15.508  14.075  0.0595 -0.0297 -0.1633
10491W        W25622  15.531   4.744   0.094 -0.0716 -0.0897  0.2541
10492W        W25623   2.029   2.058   3.079 -0.0485  0.2893  0.1720
10493W        W25624   5.736  14.368  12.100  0.0818  0.2210  0.0617
10494W        W25625   3.724   5.368  13.984 -0.1328  0.1210 -0.5061
10495W        W25626   5.034  17.849  15.654 -0.1301 -0.1508  0.5467
10496W        W25627  17.880  10.582  16.105  0.1691  0.1896 -0.0185
10497W        W25628   8.290   2.735   0.569 -0.0680  0.0942  0.0284
10498W        W25629   2.330   1.003   0.151 -0.2508  0.0904 -0.0354
10499W        W25630   1.880  17.613   4.404  0.0892  0.3228  0.0226
10500W        W25631  16.916  11.197  15.595 -0.3316 -0.4212  0.2013
10501W        W25632  16.360   7.307   4.527  0.0570 -0.0711  0.0457
10502W        W25633  14.738   1.762   6.421 -0.0768 -0.0619 -0.0151
10503W        W25634   3.577   2.828   0.968 -0.2690 -0.0210 -0.1251
10504W        W25635  15.726   9.505  12.831  0.1197 -0.1212  0.1150
10505W        W25636  16.707  13.207  12.078  0.0129  0.4587  0.0532
10506W        W25637   6.198  10.913  12.255  0.4829  0.0182  0.1582
10507W        W25638  13.209   4.530  14.757 -0.0209 -0.0351  0.0348
10508W        W25639   7.556  15.985   0.544 -0.1523  0.0092 -0.0297
10509W        W25640   2.955  14.476   3.980 -0.1105 -0.1972 -0.1387
10510W        W25641  13.693   3.277  16.626  0.3429  0.0657  0.1855
10511W        W25642   5.631  11.175  15.657 -0.0262 -0.0752 -0.2595
10512W        W25643  10.145   8.436  15.708  0.1432  0.0795  0.2727
10513W        W25644  17.750   6.678  13.738 -0.3112  0.0132  0.0725
10514W        W25645  13.568   6.967  14.089 -0.0254  0.2145 -0.4037
10515W        W25646   6.560  14.459  12.384  0.0213  0.1995 -0.2651
10516W        W25647  14.597   9.161  16.296 -0.0121  0.0167 -0.0235
10517W        W25648  11.531   6.450   5.324  0.1656 -0.0238  0.4761
10518W        W25649   2.006  13.787  16.272 -0.0553 -0.0045 -0.0461
10519W        W25650   5.754   3.798   0.401 -0.0084 -0.1304  0.0146
10520W        W25651  10.095   2.166   3.340  0.1181 -0.0123  0.1212
10521W        W25652  17.368  15.433  15.792  0.2934  0.0559 -0.2278
10522W        W25653  13.320  11.611  15.874  0.2162  0.2330  0.0304
10523W        W25654  13.553   5.260   1.910 -0.0521  0.1342  0.1239
10524W        W25655   0.170   2.979   1.346  0.1043  0.7237 -0.2278
10525W        W25656  17.849   5.169   3.746  0.2522 -0.0336  0.3459
10526W        W25657  15.587   3.382  14.473 -0.0448 -0.0235  0.0853
10527W        W25658   7.625   8.330  12.282 -0.1026  0.1087  0.0109
10528W        W25659   7.489  14.456   3.798  0.0931 -0.2535 -0.0260
10529W        W25660   4.691  13.046  15.917  0.0830 -0.0625 -0.0398
10530W        W25661   2.605   2.814   2.657  0.0925 -0.0123  0.2886
10531W        W25662  10.467  11.233   2.437  0.2702  0.0076 -0.4624
10532W        W25663  10.800  14.872   2.249 -0.0010  0.0290  0.0494
10533W        W25664   7.795  13.377   2.590  0.2873 -0.1840 -0.0053
10534W        W25665   9.801  15.492  15.987 -0.1440 -0.3823 -0.1403
10535W        W25666  13.317  17.343   4.980  0.0032  0.2427  0.4280
10536W        W25667   7.231   4.063  15.111 -0.3216  0.0141  0.1143
10537W        W25668   4.003   1.784  14.547  0.0886 -0.2862  0.4069
10538W        W25669  14.935   8.275   0.365  0.1769  0.1619 -0.0525
10539W        W25670   8.058  13.769   2.523 -0.1807 -0.3075  0.0949
10540W        W25671   2.672  17.122   0.481  0.1518  0.0637 -0.0202
10541W        W25672  14.762   8.695   2.427  0.0827 -0.0409  0.0784
10542W        W25673  10.811   2.362   0.683 -0.0932  0.0920  0.2267
10543W        W25674   3.148  14.032  16.180 -0.0180 -0.2049  0.1158
10544W        W25675  16.740   3.427  13.811  0.0934  0.0897 -0.0386
10545W        W25676  12.459   8.669   0.844  0.3667 -0.0267  0.0339
10546W        W25677  12.837   1.024   4.105  0.0062  0.4070  0.1064
10547W        W25678   8.134   5.437  12.442 -0.1050  0.2399  0.2785
10548W        W25679   7.326   3.320   0.419 -0.0693 -0.3711 -0.0420
10549W        W25680   4.069  14.701   0.623 -0.1304  0.0970 -0.1987
10550W        W25681  15.181  13.435   2.479 -0.0375 -0.0952  0.3333
10551W        W25682  16.231   7.216  11.541  0.0987  0.1005 -0.0406
10552W        W25683  12.838   2.866  16.634  0.1817  0.2462 -0.2274
10553W        W25684  16.456   1.189  13.316 -0.1522 -0.0533  0.0861
10554W        W25685  14.314  17.501  14.959 -0.1968  0.0502  0.2342
10555W        W25686  17.083   8.843   1.378 -0.0371  0.0848 -0.0076
10556W        W25687   9.715   0.065   0.298 -0.0373 -0.0487  0.1448
10557W        W25688   6.587  13.822   4.863 -0.0301  0.0029 -0.0267
10558W        W25689  15.681  11.284  15.564  0.0115 -0.2111 -0.0545
10559W        W25690   2.717  11.462  16.386 -0.1420 -0.2902  0.1081
10560W        W25691  13.836   1.266   2.363 -0.3624 -0.2016  0.0791
10561W        W25692  15.558   4.787  16.269 -0.0933 -0.3334  0.1775
10562W        W25693  11.016   5.408   0.796 -0.1472 -0.2821  0.1073
10563W        W25694   9.044   4.233  14.147 -0.0052 -0.1627  0.0954
10564W        W25695   5.295   9.715   4.736 -0.1055  0.2183  0.2656
10565W        W25696  16.590  11.698   5.366  0.0403  0.2174 -0.0547
10566W        W25697  10.552  17.318  13.724 -0.5010 -0.2190  0.3167
10567W        W25698  16.480  16.369  16.713  0.2459 -0.3468  0.3115
10568W        W25699   1.887  15.106   5.495  0.1319  0.1259  0.1346
10569W        W25700   3.835   7.137   0.060  0.3973  0.1342  0.0254
10570W        W25701  12.956   4.879   5.813  0.0569  0.2126 -0.0887
10571W        W25702  12.650   9.981  12.452  0.1051 -0.0992  0.1145
10572W        W25703   5.209   8.261  11.488  0.1782  0.2512 -0.1354
10573W        W25704   9.992  12.324   0.383 -0.0813  0.1227 -0.1023
10574W        W25705  10.647   3.362  13.713 -0.0239  0.2843 -0.1576
10575W        W25706   1.207   7.313  12.134 -0.3343  0.1012 -0.0311
10576W        W25707   2.326   6.250  15.570  0.4246  0.0111  0.2676
10577W        W25708   1.884  15.047  12.753  0.1727 -0.4190 -0.0085
10578W        W25709   5.676   2.216   2.565  0.1374 -0.2374 -0.0234
10579W        W25710   3.967   7.833  14.559 -0.0173 -0.2606 -0.2412
10580W        W25711  11.187   6.820  15.624  0.2434  0.0856 -0.0914
10581W        W25712   7.602  14.920   1.373  0.1157 -0.0967  0.0979
10582W        W25713  15.115   8.090   3.007 -0.2765  0.2323  0.0845
10583W        W25714   0.050  10.664  11.860  0.0377 -0.1488  0.0493
10584W        W25715   9.437   4.669   0.472 -0.1546 -0.0367  0.2728
10585W        W25716  17.279  11.914  11.621  0.2861 -0.0663  0.0195
10586W        W25717   9.318   6.527  13.287  0.0330  0.0473  0.0501
10587W        W25718   5.710   8.079  12.620 -0.1619 -0.2665 -0.1400
10588W        W25719   0.960   2.801   1.281 -0.1814  0.0835  0.3306
10589W        W25720   3.092  15.305   2.208  0.1093 -0.0542  0.0774
10590W        W25721  11.935  13.277  13.168 -0.1313 -0.0721 -0.5154
10591W        W25722  12.705   7.389   3.774  0.2953  0.0944  0.0306
10592W        W25723   0.890   8.798   5.252 -0.0715 -0.1777 -0.1533
10593W        W25724  16.165   0.415  14.410  0.0914 -0.0949 -0.0305
10594W        W25725  12.794   0.653   0.967  0.1426 -0.0935 -0.2089
10595W        W25726   4.591  17.534   1.362  0.0798  0.0531 -0.0719
10596W        W25727   0.222   7.274  12.188 -0.3002 -0.2320  0.0726
10597W        W25728  11.133  13.858   3.633  0.0649 -0.2416 -0.1554
10598W        W25729  16.486  10.423  12.734  0.0730  0.0020  0.0194
10599W        W25730  13.400  14.407   1.861 -0.0794  0.1188  0.0909
10600W        W25731  14.893   5.017   3.542  0.0357  0.1241 -0.1639
10601W        W25732  16.738  15.116   0.338 -0.1911 -0.0836  0.1147
10602W        W25733   6.022  14.345  15.843  0.1334  0.1022  0.1143
10603W        W25734   2.944   1.808   2.883 -0.1444  0.0648 -0.1534
10604W        W25735  17.420  16.495  15.543  0.2162 -0.1878  0.1911
10605W        W25736  11.251  15.920  16.082  0.0992 -0.2733  0.0317
10606W        W25737  12.311   6.173   2.588 -0.1486 -0.1632 -0.0322
10607W        W25738  11.688   3.551   1.591  0.2799 -0.1007 -0.0370
10608W        W25739  14.615   1.928   1.052  0.2391  0.0012 -0.0748
10609W        W25740  12.185  16.975  14.251  0.0932 -0.1010  0.1129
10610W        W25741   9.089   0.648  13.161 -0.1079  0.2294 -0.1771
10611W        W25742   2.732   7.643   5.164  0.0825 -0.1334  0.2909
10612W        W25743   5.343  15.556  15.880 -0.2669 -0.1146 -0.2246
10613W        W25744   3.881  15.151   3.185 -0.0524  0.1443 -0.4553
10614W        W25745  11.848   1.411  12.325 -0.2679  0.0484  0.0494
10615W        W25746  14.548   4.318  16.368  0.1604 -0.1227 -0.0532
10616W        W25747   8.564   2.819   4.747 -0.0701  0.0078  0.1730
10617W        W25748   9.700  12.535  11.747 -0.0569 -0.0084  0.1534
10618W        W25749   7.799  14.738  13.179  0.0961  0.1508 -0.1573
10619W        W25750   7.271   9.509  13.537  0.0681 -0.1736 -0.2787
10620W        W25751   3.651   5.205  16.774 -0.2023 -0.1478  0.1802
10621W        W25752   8.320   1.116  12.007  0.1235  0.0141  0.1486
10622W        W25753   5.733   5.060   4.495  0.0640 -0.0062  0.1045
10623W        W25754   7.497  16.677  12.431 -0.0128  0.0530  0.2265
10624W        W25755  16.141   0.042  13.438 -0.2947 -0.1830 -0.1503
10625W        W25756   7.556   8.760  12.539 -0.0421  0.0320  0.1840
10626W        W25757   5.396   3.217   3.099  0.0039 -0.0802 -0.3510
10627W        W25758   7.455   9.823  16.546 -0.2208  0.2706 -0.0092
10628W        W25759   2.089   0.517  16.351 -0.0378 -0.3239 -0.1882
10629W        W25760   4.445  12.688  11.360  0.2180 -0.1726 -0.2642
10630W        W25761  10.431   2.212  11.702  0.0123 -0.0265 -0.4247
10631W        W25762  14.770  10.672   4.722 -0.1710  0.0389  0.1943
10632W        W25763  14.287  12.668   5.350 -0.0081  0.1691  0.3291
10633W        W25764   2.586   8.099  16.420  0.1904  0.1812 -0.3290
10634W        W25765   1.654  12.683   5.697  0.0677  0.0097  0.1576
10635W        W25766  11.827   2.568   5.136  0.5333  0.1296  0.0431
10636W        W25767   4.285   3.194   1.363  0.2773  0.2571 -0.4434
10637W        W25768  12.408   8.195   5.851 -0.3075  0.0481  0.1480
10638W        W25769  12.348   4.859   4.329 -0.1106  0.0208 -0.0886
10639W        W25770  15.006   4.818   5.583 -0.2773  0.0001 -0.0330
10640W        W25771  12.264   2.473  13.770 -0.0942  0.1413  0.0892
10641W        W25772  11.504  15.486  16.001  0.0615 -0.1937 -0.5077
10642W        W25773  13.462   8.110   0.068  0.4715 -0.1725 -0.1854
10643W        W25774   1.782  10.820  11.594  0.0523  0.0062 -0.4946
10644W        W25775  13.347   8.452  12.379  0.0212 -0.0634 -0.1113
10645W        W25776  10.004  16.099   5.376  0.0679 -0.1384 -0.1587
10646W        W25777   9.546  16.568  14.153  0.2956  0.0510 -0.1396
10647W        W25778  15.054  12.393   3.647 -0.0190  0.2143 -0.0603
10648W        W25779   4.899  17.161  13.583  0.3332  0.1482  0.1783
10649W        W25780   5.695   0.297   4.338 -0.2389 -0.0708 -0.0264
10650W        W25781  14.131   2.707  15.396 -0.0490  0.1633  0.0263
10651W        W25782  17.730  10.341  14.671  0.0770 -0.0106 -0.0808
10652W        W25783   2.635  17.003  12.719  0.1134  0.0353 -0.0632
10653W        W25784  11.888   7.186   4.521 -0.0749 -0.0027 -0.0133
10654W        W25785   2.643  13.494   2.935  0.4076  0.0450 -0.1518
10655W        W25786   4.685  16.355   0.007 -0.0304 -0.1565  0.0556
10656W        W25787  10.350  11.046  14.766  0.0431 -0.0239  0.0447
10657W        W25788  15.743   3.054  11.190 -0.1822 -0.0379 -0.1212
10658W        W25789  15.241   6.198  10.706  0.5759 -0.0622  0.3393
10659W        W25790  14.106   5.294   3.905 -0.0276 -0.2170 -0.2057
10660W        W25791   2.374   3.436   1.144  0.0761 -0.3526 -0.2403
10661W        W25792  14.261   3.883   3.754  0.1734  0.2637 -0.0312
10662W        W25793   4.033   6.040  14.778  0.1024 -0.1171 -0.1265
10663W        W25794   4.796  13.588  16.281  0.3401 -0.0768 -0.1365
10664W        W25795   1.999   2.864   4.368  0.0861 -0.3340 -0.1275
10665W        W25796   6.346   4.858  16.351  0.1915  0.0887  0.2124
10666W        W25797   9.095  12.821  12.843 -0.0859 -0.3140 -0.0394
10667W        W25798  15.368  15.983   1.016  0.0139  0.2522 -0.2161
10668W        W25799   1.018  10.221  11.561 -0.1305 -0.0794 -0.1128
10669W        W25800  13.619  14.496   5.064 -0.0279  0.2764 -0.1290
10670W        W25801  17.440  11.984   1.315  0.1505  0.1421 -0.1247
10671W        W25802  13.772   9.764   3.404  0.0556  0.2230 -0.2537
10672W        W25803   4.288   0.418  11.975 -0.1647  0.1089  0.0444
10673W        W25804   4.621   6.766  16.008 -0.1318  0.0614 -0.0214
10674W        W25805  16.700   4.425  15.427  0.1180  0.1411  0.0332
10675W        W25806   9.556   5.289  12.421 -0.0077  0.1304  0.0931
10676W        W25807  14.211   7.541  14.303 -0.3096 -0.0049 -0.0952
10677W        W25808   3.552  15.500   3.341 -0.2791  0.0904  0.1572
10678W        W25809   5.469  17.083   0.364 -0.0195  0.0321 -0.1383
10679W        W25810   1.428  15.500  12.345 -0.2849 -0.0892  0.2037
10680W        W25811  17.095  15.890  13.363  0.0498  0.0283 -0.2066
10681W        W25812  11.204  12.382   3.669 -0.0548 -0.3154 -0.0119
10682W        W25813  11.686  17.565  16.145 -0.1914  0.0427  0.1929
10683W        W25814   8.231   4.424   3.394 -0.2466  0.0884 -0.0863
10684W        W25815   6.275  16.092  11.628  0.1184  0.0613 -0.2641
10685W        W25816   1.935  14.193  12.275  0.0430  0.0692  0.1701
10686W        W25817  16.445   9.328  14.811 -0.0296 -0.0680 -0.1637
10687W        W25818   3.628  13.157  15.132 -0.2999  0.1842  0.3599
10688W        W25819   9.101   4.450  16.296 -0.2537 -0.2841  0.1428
10689W        W25820  17.412   6.739  16.291  0.2169 -0.1228  0.2220
10690W        W25821   1.714   9.163  14.899 -0.1430 -0.1564  0.0718
10691W        W25822   4.736   6.174  11.328 -0.1247 -0.0835 -0.0384
10692W        W25823   7.291   1.859   1.744 -0.1025 -0.1845  0.0036
10693W        W25824  15.770   4.349  14.914 -0.0225 -0.0479 -0.3664
10694W        W25825  14.751  13.730  16.178  0.1276  0.1112  0.3009
10695W        W25826  16.158  16.067   3.788  0.2916  0.0051 -0.0358
10696W        W25827   9.171  13.105  14.248 -0.0162 -0.1151 -0.0025
10697W        W25828   4.120   9.003   1.229 -0.1280  0.0290  0.1389
10698W        W25829  10.076   8.821   5.151  0.1431 -0.0210  0.0512
10699W        W25830  15.905   9.039   4.436  0.0150 -0.0511 -0.1577
10700W        W25831  16.966  11.332  12.665  0.1030 -0.4394  0.0791
10701W        W25832   4.279  17.142  14.647 -0.0109  0.1408 -0.0066
10702W        W25833  16.216   1.126   3.114  0.3355 -0.0610  0.2696
10703W        W25834  11.219   2.762  11.946  0.0177  0.1217  0.1771
10704W        W25835   2.147   0.662   0.479  0.0318  0.2221 -0.1813
10705W        W25836  15.883  12.878   1.524  0.0395  0.2163  0.2196
10706W        W25837   2.596   2.999  11.789  0.2172  0.2797 -0.1266
10707W        W25838   3.402  13.159   5.262 -0.1343  0.5033  0.0425
10708W        W25839   1.972   5.785   1.406 -0.3399 -0.0247 -0.0098
10709W        W25840  12.522  15.363  11.268 -0.4722  0.0948 -0.0191
10710W        W25841   5.614  12.100   5.307 -0.0021 -0.0234 -0.0335
10711W        W25842   2.466  14.646  12.294 -0.1576  0.1204  0.0200
10712W        W25843   1.261  17.565  15.774 -0.1252 -0.0288 -0.1113
10713W        W25844   2.318   5.505   1.031  0.3089  0.0472  0.1167
10714W        W25845   4.671   4.468   3.458 -0.4396 -0.0596  0.3586
10715W        W25846   4.959   8.249   1.874  0.0937 -0.1154 -0.2696
10716W        W25847   1.020   3.844  11.249  0.0042 -0.3364  0.1488
10717W        W25848   0.202  15.360   0.170 -0.2821  0.2369  0.0544
10718W        W25849  10.887  16.930  11.402  0.2073 -0.3575 -0.0035
10719W        W25850  10.372  14.210   1.603  0.1973 -0.2343 -0.1599
10720W        W25851  10.957   6.178  14.380 -0.0737 -0.1726  0.1462
10721W        W25852  11.202   0.358   1.007 -0.1619 -0.0292 -0.0681
10722W        W25853  10.256  14.045  15.305 -0.1009 -0.2524 -0.2058
10723W        W25854   3.014   0.927   5.461  0.1134 -0.3619  0.0873
10724W        W25855  13.060  12.473   3.604  0.1661  0.2139 -0.0113
10725W        W25856   7.216  15.873   3.643 -0.0060 -0.1250 -0.1192
10726W        W25857   0.904  13.273  12.013 -0.2552  0.2063 -0.0097
10727W        W25858   6.242   8.173   3.026 -0.0398 -0.2294 -0.2012
10728W        W25859  10.398  11.236  13.367 -0.2860 -0.1937  0.0791
10729W        W25860  15.477   6.434   0.155 -0.2977 -0.1900  0.0037
10730W        W25861  12.279   9.718  14.773 -0.0912  0.2547  0.1214
10731W        W25862  15.109  15.979  14.502  0.3191 -0.1553  0.1504
10732W        W25863  11.667   3.090   5.817 -0.0781  0.3286  0.2580
10733W        W25864   0.187  14.974   6.066  0.0228  0.1749 -0.0865
10734W        W25865   7.467  10.171  13.077  0.2343  0.0881 -0.1703
10735W        W25866  14.141  12.133   0.474 -0.0784  0.1679  0.1102
10736W        W25867  11.788  13.194  16.084  0.1066  0.2916  0.2797
10737W        W25868  16.320  13.419   0.838 -0.2648  0.0652  0.2007
10738W        W25869  11.128   0.178  12.021  0.2085 -0.0776 -0.3165
10739W        W25870  17.486   8.803  13.771  0.0165 -0.2285  0.1046
10740W        W25871   4.946  11.112   5.346  0.0204 -0.2807 -0.2062
10741W        W25872  13.502  15.318   5.104 -0.1643  0.0121  0.0978
10742W        W25873  12.119   5.906   6.101  0.0317 -0.1494 -0.0883
10743W        W25874  10.154  12.728  13.058  0.1670  0.2285 -0.1650
10744W        W25875   0.538   8.526   0.073 -0.1483 -0.0488  0.4565
10745W        W25876   8.865  15.736  11.950  0.2793  0.0492 -0.0586
10746W        W25877   5.721   7.663   3.180 -0.1349 -0.0265 -0.0583
10747W        W25878  12.418  16.463   1.290  0.0544 -0.2285 -0.2037
10748W        W25879   4.177   3.932  14.281  0.3449  0.0355 -0.1255
10749W        W25880   0.200  14.827   6.510 -0.1118  0.0123 -0.0822
10750W        W25881   5.443  11.532   0.787  0.1920 -0.0096  0.3024
10751W        W25882   5.287   1.771   3.422  0.3138  0.0051  0.1347
10752W        W25883  13.448   3.854  15.006 -0.0820  0.1410 -0.2434
10753W        W25884  15.128   6.910   3.433  0.0452  0.2950  0.0648
10754W        W25885   5.312  10.011  14.921 -0.1484 -0.3454  0.0050
10755W        W25886  10.148  17.203  11.066 -0.2139 -0.1154 -0.1282
10756W        W25887  14.134  17.576   3.561 -0.3580 -0.2471 -0.0418
10757W        W25888  14.594   7.672   1.143  0.0797  0.0266  0.1882
10758W        W25889  12.792  14.436   0.562  0.0316  0.0050 -0.1062
10759W        W25890  12.438   7.406  16.647  0.0402  0.1808 -0.1322
10760W        W25891  15.567   6.344  13.317 -0.2173  0.1278 -0.1292
10761W        W25892   3.726  14.954  14.317 -0.2210 -0.3113  0.2793
10762W        W25893  12.926  11.158  16.566  0.1746 -0.0965 -0.1322
10763W        W25894  12.930  12.471   5.884 -0.0258 -0.0986 -0.3056
10764W        W25895  10.064   3.243   2.308  0.1417  0.0341  0.1794
10765W        W25896   4.554  13.176  14.975  0.3717  0.1358 -0.2052
10766W        W25897   8.481   6.139   4.581  0.0257  0.0835 -0.0733
10767W        W25898   3.544  14.406  16.500  0.0303 -0.2238  0.0724
10768W        W25899   7.059   5.204   0.822  0.0508 -0.0993  0.1503
10769W        W25900  13.933   5.466  13.160 -0.1720  0.2021  0.1385
10770W        W25901  10.956   0.300   1.563 -0.1015 -0.2631  0.0264
10771W        W25902   7.906   4.696   6.152 -0.1549  0.4900  0.1560
10772W        W25903  11.168  11.263   4.595  0.0623 -0.2079 -0.2175
10773W        W25904   2.200  17.531  16.564 -0.1912 -0.1065 -0.3435
10774W        W25905   2.365  16.525   1.264  0.3870 -0.3136  0.1304
10775W        W25906   1.112  14.435  15.152 -0.0784  0.1868  0.0134
10776W        W25907   4.052   3.749  15.629 -0.2716  0.0767  0.0819
10777W        W25908  14.848  17.458   5.923  0.0630 -0.1434  0.1493
10778W        W25909   5.606   5.348  15.666 -0.1345  0.4270 -0.0197
10779W        W25910  12.681   1.309  15.500 -0.1209  0.3771  0.3656
10780W        W25911  15.128   7.641   1.151  0.3753  0.0662  0.2747
10781W        W25912   8.158  16.741   2.890  0.2170 -0.0489  0.0563
10782W        W25913   7.662   2.321  11.239 -0.0936 -0.1862  0.1627
10783W        W25914   6.190   4.060   2.593  0.1488 -0.0400  0.0585
10784W        W25915  11.304   5.173   3.953 -0.0687  0.1108  0.0560
10785W        W25916   2.258   6.706   4.071  0.0068 -0.2667 -0.1376
10786W        W25917  10.100  10.252   2.471  0.1800 -0.1720  0.1728
10787W        W25918   5.784  12.870   4.078  0.0204 -0.0131 -0.1840
10788W        W25919  10.408   7.556  10.372 -0.2097 -0.0092 -0.0201
10789W        W25920   9.202   8.570   1.018  0.1213 -0.1104 -0.0052
10790W        W25921   2.413   8.113  15.942  0.3042 -0.0264 -0.1906
10791W        W25922  10.593   8.911   3.432 -0.1181 -0.1709 -0.1276
10792W        W25923  15.979   9.712   2.692  0.1919 -0.0110 -0.1772
10793W        W25924   3.451   0.583   0.953 -0.1458 -0.0039  0.2710
10794W        W25925  16.378  10.024  14.095  0.0112 -0.0122 -0.2055
10795W        W25926  15.128   2.150  12.036  0.2372 -0.3329 -0.0970
10796W        W25927  11.381   3.242  14.652 -0.3881  0.2720 -0.2179
10797W        W25928  12.620   1.133   1.847  0.0198  0.0165 -0.2161
10798W        W25929   6.511  15.106  16.768  0.0426 -0.0506 -0.2182
10799W        W25930   9.442  10.890   3.659 -0.0519  0.0257  0.1322
10800W        W25931  13.796   6.892   0.346  0.0001  0.0057 -0.1867
10801W        W25932  15.826   0.003   2.069  0.0980  0.1520  0.0635
10802W        W25933   3.153   7.755  14.205  0.0145  0.0907 -0.2454
10803W        W25934  17.052   9.864   0.629 -0.0399  0.0035  0.2019
10804W        W25935  10.483  16.646   3.660 -0.1746 -0.0204  0.5162
10805W        W25936   3.135  16.659   6.272  0.1809  0.2734 -0.0146
10806W        W25937   4.501   3.856  13.877 -0.1716 -0.0820 -0.1297
10807W        W25938   2.910   6.136   0.683 -0.1067  0.5325 -0.3681
10808W        W25939   2.473  10.451  12.926  0.1447  0.0024  0.3524
10809W        W25940   8.975  13.696   5.042  0.0496  0.0709  0.2135
10810W        W25941   3.530  10.839   3.762 -0.0581  0.1649  0.0887
10811W        W25942   7.643  12.540   0.985  0.1132  0.1882  0.0761
10812W        W25943   6.379   2.087  15.356 -0.0024  0.3861 -0.0090
10813W        W25944  14.163   8.444  12.680  0.2575 -0.1766  0.0671
10814W        W25945   9.870   4.185   1.341  0.0942 -0.0075  0.1330
10815W        W25946  15.445   4.709  15.702  0.1108  0.4593  0.1610
10816W        W25947  15.609   1.336   1.890 -0.1351 -0.0596  0.0354
10817W        W25948   6.160   9.147  12.816  0.1992  0.1595 -0.0195
10818W        W25949   8.535  17.052   3.221 -0.1378  0.0671 -0.2425
10819W        W25950   2.508  11.459   3.562  0.1922  0.0675  0.3000
10820W        W25951  12.563   6.069   0.086 -0.0609  0.2542  0.0559
10821W        W25952  12.861   6.072  12.595  0.2356  0.0337  0.0998
10822W        W25953   7.381   8.625   0.348 -0.1078  0.0696  0.1146
10823W        W25954  11.065   8.335  13.314  0.0813  0.0403 -0.0123
10824W        W25955  12.691   9.679  15.100  0.0035 -0.0889  0.0920
10825W        W25956   4.368   0.097  15.002  0.1364 -0.2490  0.3051
10826W        W25957   2.378  10.675  16.740 -0.0781  0.3440 -0.3045
10827W        W25958  10.286   7.778  13.094 -0.1058 -0.0314 -0.2248
10828W        W25959  17.380   4.167  12.308  0.1670  0.0668 -0.2723
10829W        W25960   9.387   0.342  16.691  0.0825 -0.1745  0.0707
10830W        W25961   6.988  10.295  13.047  0.1827  0.1167  0.1903
10831W        W25962   6.552  11.052   6.029 -0.0639 -0.0510  0.1785
10832W        W25963  16.112   1.523   4.730  0.0520 -0.0738 -0.0479
10833W        W25964  14.703   5.097  14.458  0.2117 -0.1900 -0.1968
10834W        W25965   5.360  15.290   4.470 -0.0069 -0.2327 -0.0554
10835W        W25966  15.387  11.082   3.443 -0.0512 -0.1898  0.1321
10836W        W25967   1.345  11.685   1.100 -0.3496 -0.0207  0.1451
10837W        W25968  13.118   3.500  14.804 -0.0686  0.2370 -0.4058
10838W        W25969  17.408  14.581   2.789  0.1404  0.0665 -0.0926
10839W        W25970  10.601   8.411   1.049  0.3074  0.4582  0.0193
10840W        W25971   0.237   3.248  15.348  0.2254  0.3890 -0.1029
10841W        W25972   5.678   4.990   2.463  0.0374  0.0827 -0.0988
10842W        W25973   1.240   9.096  13.152  0.1144 -0.3574  0.1104
10843W        W25974   0.389  13.584   2.312  0.0119 -0.1511 -0.1439
10844W        W25975  12.013   3.446   0.397 -0.0560  0.1473  0.2584
10845W        W25976   8.046  16.575  13.754  0.0940  0.0861  0.0666
10846W        W25977   2.317   6.306  12.304  0.3467  0.0654 -0.1409
10847W        W25978   9.284  13.893  16.021  0.0721 -0.4298 -0.0593
10848W        W25979   4.570  16.078  15.355 -0.0452  0.1484 -0.0876
10849W        W25980   7.404  17.289   2.352 -0.2896  0.2016  0.2073
10850W        W25981   4.287  13.181   3.992 -0.5481 -0.0622 -0.2350
10851W        W25982  13.566  10.341  12.226 -0.2624 -0.4126  0.2595
10852W        W25983  14.528  15.934   0.127 -0.1406  0.1470  0.0907
10853W        W25984  13.151   7.069  14.924  0.1468 -0.0249  0.0362
10854W        W25985  15.046  11.059  16.553  0.1959  0.3395  0.0033
10855W        W25986  11.864   8.707  11.590  0.0012  0.1148  0.0461
10856W        W25987  11.755   9.312   0.164 -0.0536 -0.0428  0.0877
10857W        W25988  17.496   9.247   1.090  0.0217 -0.0423 -0.0161
10858W        W25989   2.951  14.067   1.172 -0.1645  0.2196  0.0140
10859W        W25990  11.388  16.123  14.044  0.0996  0.0555 -0.0903
10860W        W25991   4.345   7.064  11.496  0.2169  0.2042  0.1526
10861W        W25992  14.553  17.550  16.777 -0.2976  0.0369  0.3393
10862W        W25993   6.365  10.899   3.625 -0.1449 -0.0142 -0.3192
10863W        W25994  14.579  14.417  12.258 -0.2367 -0.1093  0.0969
10864W        W25995   4.269   6.140   1.952 -0.1538 -0.1804 -0.0615
10865W        W25996   4.623  11.477   3.024  0.1284 -0.1789 -0.1018
10866W        W25997   6.745  10.081   0.831  0.2935  0.1753  0.2567
10867W        W25998   7.996   5.642  14.340 -0.1424 -0.3081  0.3512
10868W        W25999  12.567  17.616   5.405  0.2399  0.0178 -0.1586
10869W        W26000  16.754  15.537  12.569 -0.2060 -0.0041 -0.0914
10870W        W26001   4.563   4.100   4.462 -0.1694  0.1332  0.2109
10871W        W26002   9.950   0.401  12.283  0.1347 -0.1250 -0.0874
10872W        W26003  16.202  11.147  11.775  0.0699 -0.1571 -0.1674
10873W        W26004   0.914   9.047  15.460 -0.2722 -0.4184  0.0243
10874W        W26005   5.942  13.323  12.066  0.2649 -0.2504  0.1615
10875W        W26006   3.095  17.425   0.559 -0.1221 -0.1905 -0.1871
10876W        W26007  17.106  14.357   1.094  0.1882  0.0222  0.3160
10877W        W26008  12.194   6.400  14.607  0.2124  0.1325 -0.0414
10878W        W26009   0.332  15.263   0.931  0.3629 -0.0792 -0.1290
10879W        W26010   8.000   0.472   1.274 -0.0761  0.1390  0.0406
10880W        W26011   0.677   3.334  14.287  0.1643  0.0978  0.0123
10881W        W26012   1.081  15.920   1.019 -0.0510 -0.2514 -0.0239
10882W        W26013  13.401  12.143   5.837 -0.1843  0.0165 -0.1891
10883W        W26014   8.418  16.519   4.029 -0.0112 -0.2735 -0.1915
10884W        W26015   5.747  15.693  13.195 -0.0989  0.1897 -0.1816
10885W        W26016   3.192   2.527  15.268  0.1605 -0.3218  0.0496
10886W        W26017   4.978  13.035  13.048 -0.3112 -0.0797 -0.1865
10887W        W26018   2.846   1.262   1.167  0.1581 -0.1170  0.2200
10888W        W26019   0.878  11.918   3.790  0.0260 -0.2194 -0.0097
10889W        W26020   2.214  11.713  14.599  0.1139  0.2821  0.0923
10890W        W26021   6.426   6.739  11.554  0.1597  0.1562 -0.2690
10891W        W26022   8.322  12.044   3.718 -0.2496  0.1546  0.5750
10892W        W26023  12.559   6.844   3.069  0.1952  0.1028  0.2646
10893W        W26024   7.063  15.329  12.582  0.2710 -0.3019 -0.0407
10894W        W26025   2.738  12.835  15.858  0.3352  0.1369  0.0922
10895W        W26026  15.694   6.119   4.320 -0.2490 -0.0642  0.0030
10896W        W26027   6.152  10.859   1.799  0.0820  0.2397  0.1750
10897W        W26028  12.640   2.898   0.646 -0.2735 -0.3080 -0.0875
10898W        W26029   4.573  15.852   3.987  0.2689 -0.2730  0.1299
10899W        W26030  16.187   9.452   4.512  0.4095 -0.1341  0.0783
10900W        W26031   9.694   9.885  12.383 -0.2147  0.1369 -0.2357
10901W        W26032  15.836  14.983   4.036  0.1310  0.0222 -0.1038
10902W        W26033  13.569   2.072   5.591  0.0302 -0.0564  0.0810
10903W        W26034   9.098   2.497  12.159 -0.2414 -0.0886 -0.0660
10904W        W26035   7.025  13.719  13.854 -0.0529  0.1389 -0.2105
10905W        W26036  11.803   9.728  15.243  0.4082 -0.1348  0.2737
10906W        W26037   4.348  11.232   1.546  0.1453  0.1361  0.1105
10907W        W26038   8.124  12.949  13.478 -0.0866  0.4129 -0.0968
10908W        W26039   0.902  12.932   6.096 -0.1054 -0.0631  0.2389
10909W        W26040  15.433   6.055   1.136  0.3026  0.0243 -0.2158
10910W        W26041   0.230  11.623   0.863 -0.0142  0.1721 -0.1949
10911W        W26042   9.730   4.171  13.439  0.2164  0.0620 -0.0194
10912W        W26043  17.199  12.241   5.147 -0.0772  0.0521 -0.2243
10913W        W26044   3.577  13.230   0.828 -0.1241  0.1534 -0.0263
10914W        W26045   1.239  14.819   4.447 -0.1929 -0.0752  0.3242
10915W        W26046   3.976  15.382   1.313  0.0725 -0.1760 -0.0375
10916W        W26047  15.840   8.645   4.035  0.2516  0.1335  0.3199
10917W        W26048  13.317   7.583  11.496  0.3477  0.3568 -0.1291
10918W        W26049  14.186  12.476  12.135  0.0492 -0.1973  0.1400
10919W        W26050   5.062   5.104   3.048  0.1768  0.2600  0.0488
10920W        W26051   2.271  14.977   3.261  0.1760  0.1851 -0.1314
10921W        W26052  15.437   7.878   5.317  0.2779 -0.2434  0.1296
10922W        W26053   3.445   7.146   0.671  0.1256  0.2980  0.0799
10923W        W26054   1.119  15.392   5.941 -0.1951 -0.0628 -0.0408
10924W        W26055   8.518  12.307   2.699  0.1088  0.2542 -0.1262
10925W        W26056  10.808   1.809   3.603  0.3140 -0.2958  0.3979
10926W        W26057  13.816  12.499  10.480 -0.2275  0.1845  0.1345
10927W        W26058  17.006   9.449  14.020  0.1621  0.1105 -0.0160
10928W        W26059   1.156  13.258  13.158 -0.2498  0.1498  0.0505
10929W        W26060   7.873   8.764  14.655 -0.1799 -0.0047  0.2396
10930W        W26061   3.429   2.128   2.865 -0.0234 -0.1735 -0.1333
10931W        W26062   4.862   9.197   3.183  0.3160 -0.1365  0.2127
10932W        W26063   0.933   9.548  15.664  0.2581 -0.0795  0.2310
10933W        W26064  14.931   6.892  16.196  0.0314 -0.0041  0.2616
10934W        W26065  15.346   2.497   2.385 -0.0692 -0.0276  0.1398
10935W        W26066  11.353   1.739  11.522 -0.2140 -0.0199 -0.0808
10936W        W26067  11.251   1.862   2.443 -0.1549  0.0854 -0.1748
10937W        W26068   6.872   8.651  13.744  0.2644  0.0895 -0.2505
10938W        W26069  11.833   2.148  12.967 -0.1794  0.0980 -0.1435
10939W        W26070  15.763   5.892  12.134  0.2561  0.1558  0.2635
10940W        W26071   4.211  14.321  12.805  0.5086  0.1033 -0.1325
10941W        W26072  17.056   7.254  13.971 -0.0701 -0.2457 -0.1302
10942W        W26073   7.893   8.408   4.701 -0.0780 -0.0032  0.1212
10943W        W26074   2.564   3.521  15.927  0.4317  0.0047  0.2008
10944W        W26075  16.327   9.038   0.697  0.0860  0.2666 -0.2288
10945W        W26076  15.498  12.362  13.287 -0.0336  0.1282 -0.0740
10946W        W26077   1.407   7.251  14.529  0.1289  0.0414  0.1015
10947W        W26078   3.619   2.560   2.759  0.3280  0.0839  0.1834
10948W        W26079  10.232  16.148   3.696 -0.1804  0.0682 -0.1501
10949W        W26080  11.178   2.920   4.319  0.1413  0.0586  0.0331
10950W        W26081   4.183  15.303   4.473 -0.1044 -0.0782  0.2656
10951W        W26082  14.819   6.351   2.201  0.3268  0.2504 -0.3048
10952W        W26083   2.662   4.662   5.158  0.1465 -0.0528 -0.0510
10953W        W26084  16.490   3.683  10.842  0.1703 -0.2088  0.0994
10954W        W26085   0.292   2.103  14.433 -0.0393  0.0169  0.2400
10955W        W26086   7.698   4.380   3.526 -0.1982  0.1394 -0.0207
10956W        W26087  12.581   4.111   5.386  0.1997  0.2232  0.1242
10957W        W26088  16.572   5.588   0.001  0.2376 -0.1143  0.0312
10958W        W26089  17.386  12.949   4.845 -0.0825  0.1788  0.1998
10959W        W26090  16.945  14.777  15.469  0.0591 -0.0412  0.0410
10960W        W26091  16.054   9.085   3.795  0.2381 -0.1662  0.0954
10961W        W26092  13.406   5.124   0.918 -0.0754 -0.1929  0.1417
10962W        W26093  15.562  12.103   5.019  0.1157  0.2212 -0.1174
10963W        W26094   4.183   9.572  12.581 -0.1077 -0.1598  0.1066
10964W        W26095  14.080   2.623  13.241  0.2527  0.1773 -0.1001
10965W        W26096  11.385  12.073   4.880  0.0315 -0.3724  0.2102
10966W        W26097   9.081  17.088   3.160  0.0799 -0.0646 -0.2222
10967W        W26098   5.747   3.403   0.698 -0.2371  0.3724 -0.0616
10968W        W26099   0.370   6.392   1.388  0.0861 -0.1067  0.1567
10969W        W26100   2.173  17.240   4.089  0.3329 -0.0324 -0.2727
10970W        W26101   0.551   2.549   0.673 -0.0504 -0.1681  0.0118
10971W        W26102   3.961  10.523  16.165  0.0474  0.0141 -0.2438
10972W        W26103  16.337  14.936   4.317 -0.0783 -0.0663 -0.2165
10973W        W26104   5.812   6.140   0.275  0.0142  0.1018  0.1021
10974W        W26105   9.799  17.518  14.719 -0.2145  0.1089 -0.0527
10975W        W26106  14.298  10.820   6.524 -0.1001  0.1187 -0.1472
10976W        W26107   0.792  13.443  16.255  0.0476 -0.0086 -0.0245
10977W        W26108   2.590  14.392  16.269  0.1286  0.0882 -0.1953
10978W        W26109   8.451  14.780  10.492  0.2512  0.0609  0.0314
10979W        W26110   7.529  10.663   3.063  0.1896 -0.2074  0.2238
10980W        W26111   5.304   2.663   0.619  0.4323 -0.1290 -0.0584
10981W        W26112   2.837  13.388   0.056 -0.1027 -0.0487 -0.0645
10982W        W26113   2.652   4.669  13.256 -0.1128 -0.1187 -0.0704
10983W        W26114  17.383   8.742   0.037 -0.1190  0.1419 -0.0051
10984W        W26115   5.713  10.562  13.137  0.1372  0.2185 -0.2178
10985W        W26116   7.735   7.750   1.189 -0.0044 -0.3925 -0.2170
10986W        W26117   0.249  17.537  14.256  0.0763  0.3734  0.2798
10987W        W26118  17.595   4.115   1.263  0.0025 -0.0490 -0.0165
10988W        W26119  13.575   1.374  16.564  0.0743 -0.1840 -0.2499
10989W        W26120   4.591   8.656   5.058  0.1651  0.0458 -0.1320
10990W        W26121   4.121  12.677  13.889  0.1277 -0.1272 -0.1100
10991W        W26122   5.157   7.510   1.255  0.0513 -0.2124  0.0959
10992W        W26123   7.659  17.298  11.507 -0.0582 -0.0430  0.2259
10993W        W26124   6.011   8.580   3.240  0.0338  0.0372 -0.4751
10994W        W26125   6.048  10.655   2.263  0.0465 -0.1878  0.2403
10995W        W26126  13.363   2.402   2.373 -0.0279 -0.2431 -0.0696
10996W        W26127  12.357   4.335  16.154  0.2827 -0.2298  0.0430
10997W        W26128  14.239   4.962   5.332  0.1525 -0.0182 -0.1341
10998W        W26129  10.345  16.883   2.234  0.3078 -0.0042  0.1496
10999W        W26130  16.190  12.358  16.699 -0.3263 -0.0137  0.1961
11000W        W26131  14.143   9.988   4.166 -0.0579  0.1868  0.0698
11001W        W26132   4.776  15.581   1.505  0.0456 -0.1187  0.2066
11002W        W26133  15.634  14.645  15.262 -0.1500  0.0951 -0.0181
11003W        W26134  14.440   4.128   3.329 -0.1125 -0.3319 -0.0697
11004W        W26135   4.491   0.417  14.555 -0.1681  0.0424 -0.0270
11005W        W26136   3.767   6.753  15.074  0.1675  0.1913  0.0819
11006W        W26137  13.925   5.585   5.725 -0.0417 -0.2453 -0.1175
11007W        W26138   4.646  10.383  11.719 -0.0574 -0.2844  0.0530
11008W        W26139  12.199  16.337  11.497 -0.1568 -0.0381  0.2458
11009W        W26140   6.545  14.801   0.863 -0.0502 -0.0532 -0.0758
11010W        W26141  11.719   1.736  12.754  0.0016  0.2283 -0.0298
11011W        W26142   9.722   1.435  11.637 -0.0576 -0.2917  0.0391
11012W        W26143   1.813  12.607   3.124  0.1247  0.0981 -0.0539
11013W        W26144   3.327   7.065  13.050 -0.2434 -0.0033  0.1309
11014W        W26145  15.814  17.430  11.990  0.1361 -0.5690 -0.0002
11015W        W26146  17.237   2.683  13.535 -0.2040 -0.1607  0.1982
11016W        W26147  16.090   2.250   3.829  0.0363 -0.1685 -0.0918
11017W        W26148   6.233  12.771   4.207 -0.0908 -0.2681  0.1026
11018W        W26149  17.177  11.354  15.154  0.1150 -0.5636  0.0025
11019W        W26150   6.525   5.299   0.757  0.2405  0.0044  0.2291
11020W        W26151   6.316   3.559   4.882 -0.3066 -0.3424 -0.1765
11021W        W26152  15.372   7.809   3.531  0.2495 -0.0084  0.0325
11022W        W26153  11.921   3.201   2.772 -0.1024 -0.1386 -0.0536
11023W        W26154  12.704   5.712  10.950  0.3522 -0.0227 -0.2212
11024W        W26155   4.202   4.964  16.143  0.2143 -0.1396  0.2530
11025W        W26156  13.216  16.498   1.424 -0.3192  0.0194 -0.1748
11026W        W26157  10.769   5.779   2.783  0.0542 -0.3233 -0.0555
11027W        W26158  14.859  13.211  12.150  0.0186 -0.1225 -0.0937
11028W        W26159  17.364  11.936  12.199  0.0571 -0.3369  0.0427
11029W        W26160   1.281   2.272  14.290 -0.1739 -0.1714  0.1957
11030W        W26161   0.432   1.224   1.042  0.1495  0.3042 -0.2576
11031W        W26162  17.489  17.004  12.296 -0.1532  0.1630  0.4984
11032W        W26163   9.645   6.042   1.591 -0.1887 -0.2549  0.1068
11033W        W26164   4.793   1.606  13.661 -0.1089  0.1962 -0.0622
11034W        W26165   1.296  12.137   3.957 -0.2123  0.0024  0.0810
11035W        W26166  15.021   9.783  13.679  0.1257  0.1699 -0.1461
11036W        W26167   9.085   7.759   1.777  0.2747 -0.0193  0.1961
11037W        W26168   8.624  11.228   2.032 -0.1252  0.2198 -0.2220
11038W        W26169   0.094  14.977  15.337  0.0176  0.3864  0.0111
11039W        W26170   0.492  10.516  13.132  0.2730  0.2366 -0.0346
11040W        W26171  14.091   9.606   0.624 -0.0278 -0.0004  0.2210
11041W        W26172  16.540   0.117   6.491  0.2926 -0.1575  0.1340
11042W        W26173  11.568   7.244   2.384 -0.1836  0.0796 -0.0750
11043W        W26174  17.495   0.645  11.003 -0.0848 -0.3491 -0.0733
11044W        W26175   7.293   2.721   0.061  0.0107  0.0332  0.2994
11045W        W26176  17.140  10.007   4.352  0.0468  0.1027 -0.3285
11046W        W26177   0.455   0.016   0.272 -0.1846 -0.1092  0.0970
11047W        W26178  12.508   6.917  13.791  0.0292  0.0482 -0.0667
11048W        W26179   3.314  12.336   1.153 -0.2329  0.1189 -0.1191
11049W        W26180   5.479  15.435   2.483  0.3401  0.1528 -0.0666
11050W        W26181  14.314  10.539   3.836 -0.1534  0.0324 -0.3593
11051W        W26182  13.459   6.055   1.354  0.3757  0.1441  0.0723
11052W        W26183   2.544  12.400  15.430  0.0145  0.3366  0.0329
11053W        W26184  11.388  12.483   1.473  0.3606  0.0474  0.0907
11054W        W26185   6.716   4.091   4.511  0.1974  0.1742  0.1160
11055W        W26186  12.795  10.126  12.881  0.0486  0.1091 -0.1391
11056W        W26187  11.191  11.296   3.066  0.1194 -0.0774 -0.2503
11057W        W26188  10.701   3.006  14.031 -0.0352  0.0458  0.1283
11058W        W26189   2.899   4.901   0.398 -0.0263 -0.0210  0.0802
11059W        W26190   7.581  10.575   5.820  0.0366 -0.2748 -0.0809
11060W        W26191   8.055  15.167  15.544  0.0591 -0.1552  0.2680
11061W        W26192  13.213   2.489  14.808 -0.1282 -0.1093  0.0385
11062W        W26193  16.575   3.281  15.317  0.0119 -0.3563  0.0191
11063W        W26194   7.287   0.512   0.835  0.0180  0.0029  0.3281
11064W        W26195  16.811  11.735  13.058 -0.1512 -0.0430 -0.0654
11065W        W26196  15.821  11.281   0.750 -0.0226 -0.0274  0.0890
11066W        W26197  10.310  10.269   5.866 -0.1287 -0.0984 -0.0456
11067W        W26198  15.041  10.185  11.644  0.1178 -0.0233  0.0725
11068W        W26199  12.222   6.549  13.410  0.0277  0.0012 -0.0618
11069W        W26200   9.435   2.711   5.714 -0.2831  0.1509 -0.0101
11070W        W26201  14.310  15.934  15.907  0.0470  0.2205  0.1128
11071W        W26202   2.759   7.409   0.776 -0.1557 -0.1330 -0.1946
11072W        W26203  17.817   6.007  10.693  0.2144 -0.1781 -0.0122
11073W        W26204  10.711   7.737  15.462 -0.0531 -0.1994 -0.0691
11074W        W26205  12.601  15.403  16.149 -0.0322 -0.1713  0.2539
11075W        W26206  14.126   8.471  15.743 -0.1741 -0.0569 -0.1742
11076W        W26207   6.683  11.135  12.126 -0.2361  0.2567  0.0294
11077W        W26208  10.257  13.779  12.952 -0.1802  0.1384  0.2733
11078W        W26209  14.287  12.371   4.180  0.1180  0.0165  0.1451
11079W        W26210   4.571   3.368  15.261  0.2296  0.1303  0.0992
11080W        W26211   7.175  15.571  13.058  0.2288 -0.0197  0.3582
11081W        W26212  16.255   4.954  11.173 -0.0356  0.1145  0.0730
11082W        W26213  10.198  10.018   3.258  0.0308  0.2149  0.1194
11083W        W26214   3.462   6.077  16.640 -0.1740  0.1306  0.4147
11084W        W26215   2.371   5.096  13.505 -0.2404 -0.0632  0.1217
11085W        W26216  12.377   1.448  12.340 -0.0151  0.1311 -0.3230
11086W        W26217   5.270  17.494  11.957  0.1125  0.0943 -0.0631
11087W        W26218  17.531   8.893  12.012  0.2768 -0.2848  0.0080
11088W        W26219  17.139  11.793   5.244 -0.1449  0.1718 -0.0509
11089W        W26220   9.240  12.549  13.588  0.1133  0.0177 -0.1161
11090W        W26221   5.442   0.593  12.372  0.2220  0.1363 -0.2632
11091W        W26222   5.256  12.693   4.718  0.0938  0.1878  0.1758
11092W        W26223  14.041  17.483   0.986 -0.3406  0.3319 -0.1379
11093W        W26224  12.688  10.148   1.736  0.1482  0.0701 -0.0693
11094W        W26225  16.321   9.527   3.419 -0.3184  0.3466 -0.1975
11095W        W26226  15.623   5.732  16.379  0.0644 -0.0965  0.1262
11096W        W26227   0.167   5.501  15.489  0.0232 -0.4287 -0.0737
11097W        W26228   9.777   7.813   0.900  0.3680  0.3389 -0.0981
11098W        W26229  15.058   8.596   0.010 -0.2090  0.1141 -0.1884
11099W        W26230  11.627  11.253  14.660 -0.0689 -0.0420  0.3107
11100W        W26231   5.718   1.901  14.877 -0.0408  0.0778  0.1579
11101W        W26232  11.084   7.688   2.175  0.0563 -0.0405  0.1882
11102W        W26233  12.459  14.917   4.285 -0.0891 -0.1651 -0.1608
11103W        W26234   0.533  16.155   0.402  0.0321 -0.1035  0.5184
11104W        W26235  16.849   7.249  16.504 -0.1570 -0.0774  0.1323
11105W        W26236   8.172  12.160   2.277 -0.0378  0.1955 -0.0382
11106W        W26237  15.160   3.545  16.745 -0.0566 -0.1211 -0.1412
11107W        W26238   8.979  17.618   1.470 -0.3035  0.2859 -0.0486
11108W        W26239  17.207   0.626   1.912  0.0703  0.2273  0.1148
11109W        W26240   4.574  17.748  15.386  0.0719  0.2453  0.0061
11110W        W26241  11.359  13.024  11.232 -0.4858 -0.2306  0.0949
11111W        W26242   9.494  10.431   3.059 -0.0655  0.2916  0.0289
11112W        W26243   7.996  10.720   3.813 -0.0695 -0.0180  0.1667
11113W        W26244   6.331   0.853   3.323  0.2807  0.2414 -0.3529
11114W        W26245   8.192  11.365  12.650 -0.1709 -0.2482  0.0002
11115W        W26246   5.106  14.310   6.311  0.4304 -0.3107 -0.1957
11116W        W26247  14.692   0.776  12.993 -0.2877 -0.0284  0.0859
11117W        W26248   9.379   5.275   1.806  0.2533 -0.0152 -0.0187
11118W        W26249  11.329  13.845   1.238  0.2452 -0.0617 -0.0813
11119W        W26250   1.907   4.836  16.126 -0.2855  0.1280  0.1901
11120W        W26251   3.545  16.344  12.051  0.3115 -0.0350  0.0086
11121W        W26252   9.440   4.944   2.235 -0.2381  0.1552  0.1979
11122W        W26253   7.034   8.133  15.964 -0.0332 -0.2227  0.1129
11123W        W26254  13.502   4.003  11.551  0.1085  0.0781  0.1156
11124W        W26255   5.101  15.785  14.190  0.1593  0.0743 -0.0061
11125W        W26256   1.978   2.394   4.665 -0.2327  0.0216  0.2199
11126W        W26257  13.036   6.952   3.121 -0.0844  0.1651 -0.0295
11127W        W26258  11.624  11.240  15.916  0.0846  0.0779  0.1463
11128W        W26259  10.614   9.464  15.959  0.1440 -0.2658 -0.3984
11129W        W26260  13.833   1.780   0.159  0.0144  0.0173 -0.3390
11130W        W26261   7.611   6.680   3.905 -0.0537  0.2044 -0.1611
11131W        W26262   6.651   5.937  15.032  0.0746 -0.0597 -0.1094
11132W        W26263  15.869   6.511   4.762 -0.0869  0.0465  0.0520
11133W        W26264  11.466  13.311  14.368 -0.1320 -0.2078 -0.1943
11134W        W26265  13.414  13.206   3.930 -0.1408 -0.1057  0.0439
11135W        W26266   7.330   1.084  12.543  0.1253  0.2292  0.2348
11136W        W26267   9.418   7.291  15.250 -0.1428  0.0972 -0.2154
11137W        W26268  10.922  14.415   3.759  0.1092  0.2862 -0.0536
11138W        W26269  15.034  17.592   0.889 -0.0738 -0.4248 -0.2203
11139W        W26270   0.704   4.302   6.016 -0.0461 -0.1621 -0.3340
11140W        W26271  15.786  12.014   3.174 -0.2021  0.2972 -0.1130
11141W        W26272   6.731  16.871   0.943  0.0714  0.0469  0.1348
11142W        W26273  15.102   7.565   1.852  0.0803  0.3327  0.0693
11143W        W26274  16.930   8.757  14.565  0.0955  0.0141 -0.1319
11144W        W26275   0.514   6.228  16.135 -0.1562  0.2282  0.0572
11145W        W26276  11.165  13.895  16.485  0.1930  0.1919 -0.2786
11146W        W26277  11.662   2.006   1.491  0.2102 -0.0150 -0.0998
11147W        W26278   1.729   8.718   3.828 -0.4040  0.1629 -0.0649
11148W        W26279   2.034   9.326   0.280 -0.1763 -0.3034 -0.0375
11149W        W26280  14.040  12.900  12.526  0.0138 -0.0122 -0.0021
11150W        W26281   9.145   9.271  10.524  0.0424  0.1251 -0.2684
11151W        W26282   9.670   0.171  12.645  0.0761  0.1124  0.0570
11152W        W26283   6.607   5.413  13.370  0.3680  0.2718 -0.2550
11153W        W26284  11.118   5.446  10.431 -0.0530  0.1921  0.1002
11154W        W26285   9.280  17.620  15.408 -0.0016 -0.0018 -0.2779
11155W        W26286   7.834   8.697   5.116 -0.1843  0.0673 -0.0510
11156W        W26287   6.322  11.776  13.933 -0.0088  0.0892  0.1912
11157W        W26288   2.140  16.590   5.498 -0.0040  0.0817 -0.0598
11158W        W26289  15.566   8.612  12.824 -0.1733 -0.1376 -0.1754
11159W        W26290   4.467   2.276   3.036 -0.2572  0.1943 -0.1707
11160W        W26291   4.295  11.134  14.238 -0.2049 -0.0876 -0.2429
11161W        W26292  14.532   4.983   0.201 -0.1428 -0.2605 -0.1841
11162W        W26293   9.599  13.881  12.030  0.1675  0.3145 -0.1037
11163W        W26294  10.148   9.836  11.355  0.0456 -0.0016 -0.2267
11164W        W26295   5.640  11.548  12.274  0.0328  0.1391  0.0628
11165W        W26296   6.433  10.131  12.169 -0.0066 -0.3897 -0.0346
11166W        W26297   9.711  10.286  12.644  0.0535 -0.0856 -0.0531
11167W        W26298  11.182   6.344  16.730  0.2516 -0.1046 -0.0166
11168W        W26299   8.002   0.721  10.785  0.0093  0.0061  0.1849
11169W        W26300  14.684   7.640  10.813  0.4454 -0.1024  0.3072
11170W        W26301   9.322  14.186  13.053 -0.1534 -0.0484 -0.1037
11171W        W26302   5.289   7.658  15.391 -0.1674 -0.1957  0.2732
11172W        W26303   4.243  11.966   0.969  0.2513 -0.3289 -0.0591
11173W        W26304   7.767  11.137   3.110  0.0400 -0.1092  0.0588
11174W        W26305   0.274  10.921  13.115 -0.0658  0.2246 -0.1273
11175W        W26306   7.134   9.240  13.974 -0.0799  0.2711 -0.1715
11176W        W26307  10.914   3.533   5.031 -0.1175  0.0946 -0.0322
11177W        W26308   6.966   3.838  14.561  0.3679  0.0137  0.1198
11178W        W26309   8.224   8.135  11.063 -0.1706 -0.2282 -0.2652
11179W        W26310   2.080   2.448   1.713  0.0784  0.0211 -0.2537
11180W        W26311  15.320  14.189   4.827 -0.0691  0.0750 -0.2208
11181W        W26312   3.823  13.429  11.399 -0.1566 -0.2225  0.2292
11182W        W26313   0.372  12.178   1.701 -0.0924  0.1787  0.0431
11183W        W26314  15.402   4.910  11.305  0.0301 -0.0763 -0.3518
11184W        W26315   5.535  17.860  12.448  0.1085 -0.3722 -0.2266
11185W        W26316  14.425   5.924  14.153  0.2710 -0.3141 -0.0352
11186W        W26317   4.459  16.048   2.308  0.1932  0.0478  0.1160
11187W        W26318   2.018  16.998   2.512 -0.2306 -0.2854 -0.0261
11188W        W26319   2.783  12.697   1.363 -0.1027 -0.1644 -0.0711
11189W        W26320   4.008   9.518  13.085  0.2182  0.0995 -0.1373
11190W        W26321   1.762   8.339   3.475  0.0896  0.0931  0.3024
11191W        W26322  10.960  15.669  15.245 -0.2138 -0.2082  0.2965
11192W        W26323   6.637   2.455  15.636 -0.1427  0.1382  0.2236
11193W        W26324  14.177   5.710  13.737  0.0536 -0.2156  0.1397
11194W        W26325   8.128  17.515  14.683  0.1668 -0.4253  0.2037
11195W        W26326  10.902   2.198   2.140  0.1608 -0.1192  0.0713
11196W        W26327   5.490   1.177  16.350 -0.0732 -0.3549  0.2913
11197W        W26328  15.042   4.737  16.457  0.4439  0.0690  0.0097
11198W        W26329   6.734  16.795  16.235  0.3917  0.0683 -0.2875
11199W        W26330  10.323   4.010  12.635  0.0733  0.2896 -0.0062
11200W        W26331   4.647  17.459   2.434 -0.3456 -0.1987 -0.2590
11201W        W26332  14.543  16.219  11.454 -0.0287 -0.2452  0.1207
11202W        W26333   1.024  11.458  15.788  0.0340 -0.1498  0.1300
11203W        W26334   2.623  16.261   0.933 -0.2375 -0.0689  0.0123
11204W        W26335   6.361  13.155  14.190  0.1403 -0.0923  0.0191
11205W        W26336  15.930   5.345  14.071  0.0917 -0.1526  0.0139
11206W        W26337  10.452  16.697   5.811 -0.1806  0.0495 -0.0416
11207W        W26338  12.418  16.823   1.694 -0.1061  0.2915 -0.1896
11208W        W26339   1.275  17.619   3.271  0.3846 -0.1439  0.1368
11209W        W26340   9.833  17.385   0.706  0.1072 -0.3249 -0.2284
11210W        W26341   7.337   8.616  13.288 -0.2236  0.3129  0.1347
11211W        W26342  10.090   9.931   3.803  0.3700  0.0976  0.0129
11212W        W26343   9.135   4.294   0.178 -0.2455 -0.2602  0.0453
11213W        W26344   8.590   4.278  15.643  0.4082 -0.2613  0.1334
11214W        W26345  10.841   1.182  15.530 -0.1756 -0.1152 -0.0326
11215W        W26346  15.703  11.168   2.509 -0.0570 -0.2724 -0.1089
11216W        W26347  15.787  15.821  13.749 -0.0834  0.1572 -0.1535
11217W        W26348  11.390   6.729   2.370  0.0763 -0.2493 -0.0290
11218W        W26349   7.200   4.661  12.184 -0.1452 -0.1679  0.2035
11219W        W26350   6.045  11.035   2.693  0.0340  0.0153  0.1570
11220W        W26351  12.329  17.408   2.507 -0.0046 -0.0084  0.0146
11221W        W26352   0.735   9.112  12.812 -0.2131  0.2003 -0.0954
11222W        W26353   3.080   9.462   5.617  0.0049  0.0738 -0.3135
11223W        W26354   9.062  12.888   0.415  0.3625 -0.0227 -0.1765
11224W        W26355   4.264  12.560   0.774  0.0444 -0.2485  0.1094
11225W        W26356  12.553   6.942   0.491  0.2581 -0.1456 -0.2218
11226W        W26357  11.903   5.325   2.449  0.1630 -0.1836 -0.0412
11227W        W26358  10.396  11.977  13.644  0.1328  0.1072 -0.0474
11228W        W26359  16.699   7.395   4.949  0.0239  0.0103 -0.4087
11229W        W26360   9.332   0.558  15.825 -0.1631  0.0906  0.0907
11230W        W26361   9.652  13.869  15.358  0.2168 -0.2629 -0.0290
11231W        W26362  11.174   7.261  12.084 -0.4163 -0.0334  0.1115
11232W        W26363  17.049   9.802   3.092 -0.2048  0.1678 -0.1286
11233W        W26364  17.176   6.036   5.520  0.0367  0.2137  0.2637
11234W        W26365  17.525  11.106  11.302  0.0669  0.1365  0.2319
11235W        W26366   4.793   8.383  15.333  0.1548  0.1250  0.1958
11236W        W26367  17.723  13.338  12.732 -0.3407 -0.2220 -0.1613
11237W        W26368  14.297   4.602  14.200  0.1794 -0.0980 -0.1817
11238W        W26369  17.050   7.998   4.030  0.0797 -0.0478  0.0022
11239W        W26370   9.901   6.338   1.254 -0.1410  0.0873  0.0519
11240W        W26371   2.021  17.078  14.593 -0.0586 -0.2238 -0.0786
11241W        W26372  10.803   8.142   3.186  0.0864  0.0134  0.0245
11242W        W26373  14.680  12.566   4.403  0.0888  0.1858  0.2366
11243W        W26374   7.978   5.809   0.014 -0.4216  0.0159 -0.3242
11244W        W26375  14.013   5.207  10.351  0.5040 -0.0602 -0.0636
11245W        W26376   2.744   6.010  14.222  0.1566 -0.1717  0.1176
11246W        W26377  16.465   7.703   3.600  0.1348  0.1151  0.2929
11247W        W26378  12.045   3.261   1.769  0.1263  0.3590 -0.2307
11248W        W26379   9.276  10.804   1.589  0.0790  0.0383 -0.3014
11249W        W26380   7.033  13.260   3.390 -0.1127  0.1322 -0.0364
11250W        W26381   9.393   5.103   6.368  0.0528 -0.0479 -0.0102
11251W        W26382  14.342  15.051   5.278 -0.1419 -0.0320 -0.0133
11252W        W26383   1.135   3.426   0.789 -0.0975  0.1058 -0.0540
11253W        W26384  14.647   7.725  14.492  0.0731  0.1499  0.2072
11254W        W26385   8.779   4.097  16.591  0.0250 -0.0600  0.2796
11255W        W26386  15.766   7.029  11.733 -0.0648 -0.3903 -0.4074
11256W        W26387  17.720   0.498   6.245  0.2746 -0.1243  0.0144
11257W        W26388   0.493  10.242  14.467  0.0936  0.0850  0.2353
11258W        W26389   5.038  16.312  11.308  0.1000 -0.0303  0.2218
11259W        W26390   4.109  15.619   0.823  0.0357  0.0293 -0.0946
11260W        W26391   9.283   4.707  16.719 -0.1420 -0.1840  0.2751
11261W        W26392  11.008  15.993   0.208 -0.0159  0.2901 -0.0404
11262W        W26393  16.440   0.037   4.174 -0.0112 -0.1619 -0.4583
11263W        W26394   1.550   5.765  14.009  0.3626  0.3439  0.1444
11264W        W26395   1.911   4.113  15.808  0.0570  0.0639 -0.0744
11265W        W26396  13.293  11.010   1.356 -0.2594 -0.1614  0.2179
11266W        W26397  12.498   5.309   5.030  0.0177  0.0013  0.1037
11267W        W26398   2.063  14.720   6.698  0.0321 -0.0418  0.0581
11268W        W26399  10.842  17.619   2.077 -0.0499  0.0393  0.3055
11269W        W26400   1.233  14.356   1.768  0.1813  0.1124 -0.2408
11270W        W26401   8.946  10.946   1.235 -0.0471 -0.1608 -0.1945
11271W        W26402  15.412   9.358   0.280  0.0454 -0.0893 -0.1713
11272W        W26403   1.168  11.453  14.709 -0.0286 -0.1454  0.2232
11273W        W26404   6.032   0.756   4.231  0.0840  0.0245 -0.2221
11274W        W26405  12.391  17.603  13.473 -0.0503 -0.0436  0.0378
11275W        W26406   8.934  11.121   6.072 -0.1202 -0.0591  0.0758
11276W        W26407  16.544   7.920   4.019  0.1093 -0.0896  0.1817
11277W        W26408  14.856  15.770   4.635  0.2558 -0.2534 -0.1249
11278W        W26409   7.332   9.011   4.054 -0.1895  0.0735 -0.1328
11279W        W26410  10.029   1.152  11.416  0.0695 -0.1620  0.2447
11280W        W26411   8.174   5.433   1.342 -0.0854 -0.0049 -0.2895
11281W        W26412  13.487  15.741  11.512 -0.0088 -0.0661  0.1559
11282W        W26413  13.541  17.413  11.013  0.2041  0.0028  0.2322
11283W        W26414   4.087   2.749  13.957  0.3190 -0.1439 -0.2092
11284W        W26415  11.833  15.959  14.239 -0.1263  0.0366 -0.5233
11285W        W26416  17.337  11.115   2.908  0.0855 -0.0165 -0.1775
11286W        W26417   6.951  12.625  14.058 -0.1185  0.1530 -0.0336
11287W        W26418   1.034  14.397   4.668  0.0048  0.0573 -0.1072
11288W        W26419   9.110  17.659   4.160 -0.0793 -0.0827 -0.3451
11289W        W26420   1.278   9.512  15.266  0.1358  0.1248  0.0491
11290W        W26421  17.635  16.514   0.171  0.4300  0.1499 -0.0650
11291W        W26422   1.000   9.083  10.783 -0.0259 -0.4058 -0.0442
11292W        W26423  13.797   8.463   2.655  0.1298  0.1044 -0.1224
11293W        W26424   6.299  16.581  16.075 -0.2967  0.0559  0.1800
11294W        W26425  15.592  14.468   3.138  0.1206 -0.2798 -0.1511
11295W        W26426   2.113   3.742   0.029 -0.1016 -0.2778 -0.2494
11296W        W26427  16.140  13.424   5.412 -0.0924 -0.0126  0.2016
11297W        W26428   2.789  15.418  16.137  0.0325 -0.0933  0.3993
11298W        W26429   2.763  14.900   1.478  0.1341 -0.2171  0.3241
11299W        W26430   6.112  10.007   1.447 -0.2902 -0.1696  0.2093
11300W        W26431  15.959   0.337  15.794  0.0025  0.2217 -0.2788
11301W        W26432   7.000  15.163   0.266 -0.0505  0.2390 -0.0574
11302W        W26433  10.890   6.903   1.082 -0.0926  0.1005 -0.0989
11303W        W26434   9.324   5.110   0.299  0.0186 -0.1804 -0.0722
11304W        W26435   6.595  13.644  12.081 -0.2780  0.0471  0.3068
11305W        W26436   9.230   5.516   5.068  0.0120 -0.0828  0.2032
11306W        W26437  17.075  10.775  15.814 -0.0708  0.0997 -0.3094
11307W        W26438   7.964   7.264  14.989 -0.4049 -0.1010  0.2365
11308W        W26439   7.885   1.830  15.022 -0.1368  0.0944 -0.2701
11309W        W26440  10.372   3.046   1.032  0.2412  0.0033  0.0999
11310W        W26441  16.724   0.565  11.973  0.0065 -0.0197  0.2285
11311W        W26442   6.492  16.398  14.983 -0.1091  0.5508 -0.0728
11312W        W26443   4.999  16.044  15.068 -0.1901 -0.0318  0.0038
11313W        W26444   6.291  10.868   1.299  0.1118 -0.0297 -0.1792
11314W        W26445   6.788  17.547   4.075 -0.1421  0.3608  0.0341
11315W        W26446  15.656  11.266  16.073 -0.2481 -0.1985 -0.0750
11316W        W26447   3.147   5.162   3.637 -0.2775  0.2619 -0.0315
11317W        W26448  11.249  14.266   5.881 -0.1902 -0.1767 -0.1250
11318W        W26449   7.208   9.418   1.720 -0.1313  0.2328 -0.2107
11319W        W26450   9.753   4.304   2.952  0.0014 -0.0832 -0.0187
11320W        W26451   2.941   3.588  14.317  0.1481 -0.0098 -0.0559
11321W        W26452   7.404   3.400  12.635  0.1360 -0.0394  0.2604
11322W        W26453   4.952  13.502  15.764 -0.1443  0.0295 -0.0330
11323W        W26454  13.487  17.338   6.297  0.0290 -0.1098 -0.1898
11324W        W26455   6.891   7.248   3.129  0.0228 -0.0112  0.1671
11325W        W26456  16.342   0.467   1.688 -0.0336 -0.1665 -0.0676
11326W        W26457   7.862  17.042  11.013  0.1123  0.1307  0.0301
11327W        W26458   2.575   7.508   2.021  0.0667 -0.0146  0.0035
11328W        W26459   5.942   9.035   1.260 -0.1539  0.0179 -0.2451
11329W        W26460  16.306   5.438   0.861 -0.0856  0.1127  0.0464
11330W        W26461   2.710   3.711  15.123  0.0238 -0.1172 -0.0696
11331W        W26462  14.124  14.628  15.458  0.1749  0.0287  0.2553
11332W        W26463   3.401   4.650   0.757  0.0247  0.0282  0.0227
11333W        W26464  12.360   6.766  12.285 -0.2005  0.1211  0.0417
11334W        W26465  10.708  15.207   0.212  0.4679 -0.4391 -0.2066
11335W        W26466   7.848   7.305   1.456  0.2088  0.0437 -0.0533
11336W        W26467  17.004   0.992   5.580 -0.0195  0.5314  0.0537
11337W        W26468   1.233  11.699   5.499 -0.0479  0.0185  0.1095
11338W        W26469   4.386  11.290   5.116 -0.3952  0.0900 -0.1996
11339W        W26470   3.306   3.031  13.437  0.1159 -0.0104  0.0175
11340W        W26471   4.168   3.427   6.230 -0.1082  0.0486  0.0063
11341W        W26472   0.070  17.807   1.349 -0.3647  0.0717  0.1243
11342W        W26473  12.988   8.453  14.856  0.1048  0.1638 -0.0354
11343W        W26474  11.189   6.121  12.562  0.1329  0.0198 -0.1112
11344W        W26475   7.151  13.790   4.163 -0.3340  0.2706 -0.2336
11345W        W26476  12.724   8.718   1.849 -0.0850 -0.0728 -0.1479
11346W        W26477   8.094  12.709  12.479  0.0859 -0.1693  0.0561
11347W        W26478   3.114  10.491   3.455  0.0137 -0.1453  0.2226
11348W        W26479  13.874   9.652   4.401 -0.1610  0.0165 -0.2121
11349W        W26480  10.527   3.396  15.368  0.1185  0.0631  0.1819
11350W        W26481  15.958  12.556   2.577 -0.0548  0.1475 -0.1588
11351W        W26482   3.675  10.613   1.136 -0.0340  0.0521  0.2174
11352W        W26483   1.829  13.695  16.713  0.0809  0.2957 -0.1664
11353W        W26484  17.326  15.204   3.304 -0.0262  0.2028  0.3323
11354W        W26485  16.830  11.219   0.320  0.2058  0.1771  0.2531
11355W        W26486  11.437   1.625  13.562 -0.1643 -0.3702 -0.0126
11356W        W26487  15.217  11.620  13.967 -0.2248 -0.1538 -0.0736
11357W        W26488  17.331   0.274   0.944 -0.2872 -0.0068 -0.1676
11358W        W26489  14.159  14.502   5.040  0.2462  0.2168  0.1264
11359W        W26490   5.942   1.571   2.040  0.3517 -0.1188  0.1299
11360W        W26491   4.774   3.815  12.466  0.2663 -0.0027  0.2452
11361W        W26492  17.232   4.017   3.790  0.0406 -0.1736  0.2576
11362W        W26493   1.237   3.189   0.343 -0.0866 -0.1300 -0.0682
11363W        W26494   7.787   9.906   0.126  0.0709 -0.2366  0.0700
11364W        W26495   4.036   4.647  11.603  0.0947  0.0873 -0.1546
11365W        W26496   1.962   8.855  14.115  0.3115  0.0041 -0.2207
11366W        W26497   2.209  14.640  16.490 -0.2155 -0.0840  0.1933
11367W        W26498  12.416   8.273   3.530  0.1553 -0.0977 -0.2578
11368W        W26499   4.698  14.661  16.597 -0.4361 -0.1042  0.2049
11369W        W26500   1.198  12.508   5.980 -0.3522 -0.3728  0.1790
11370W        W26501   6.084   2.722   5.194  0.0358 -0.0926  0.1494
11371W        W26502   7.425   1.949  15.929  0.2682 -0.3358  0.2171
11372W        W26503   7.853   4.804   1.831 -0.1303  0.0731 -0.0600
11373W        W26504  12.443   5.955   3.290 -0.4920  0.1866 -0.1119
11374W        W26505   5.769   4.460   0.197  0.0339  0.0209  0.2514
11375W        W26506   8.628  11.294  14.199 -0.2932 -0.2336  0.1006
11376W        W26507  11.941   8.408   0.794  0.0894  0.2992 -0.0156
11377W        W26508  16.261   9.868  13.522  0.1585  0.1117  0.1690
11378W        W26509  10.730  11.598  13.585 -0.0019 -0.0024  0.2335
11379W        W26510   8.928  15.534   4.411  0.1423 -0.0487 -0.1001
11380W        W26511  14.205  10.546  11.947 -0.0028 -0.3563  0.0430
11381W        W26512   8.844  15.188  16.723 -0.3026  0.0540  0.0799
11382W        W26513  10.709  15.010   4.093  0.0105  0.2791  0.0093
11383W        W26514   2.869   3.399   0.396  0.0991  0.0357 -0.0301
11384W        W26515  11.774   4.679  15.780  0.2298 -0.1627  0.1128
11385W        W26516   0.573   9.276  14.371 -0.1452  0.1414 -0.0539
11386W        W26517   2.544  17.124   2.283  0.0431 -0.0040  0.2284
11387W        W26518   2.616  14.558   2.726 -0.2553  0.2222  0.0264
11388W        W26519   2.869   6.642  12.823 -0.2427 -0.2670  0.1698
11389W        W26520  17.561   3.555  14.629 -0.0505 -0.5098  0.3004
11390W        W26521  11.748   1.097   1.440 -0.1373  0.0151 -0.3847
11391W        W26522   0.922   1.395  13.974  0.2603 -0.0470 -0.1517
11392W        W26523   3.851   8.564   4.634  0.1655  0.0747  0.1673
11393W        W26524   4.002   2.772  12.125 -0.3573  0.0535 -0.0727
11394W        W26525   2.025   6.660  11.316 -0.0521  0.1183  0.1969
11395W        W26526   6.151   9.647   4.945  0.0047 -0.5367 -0.0407
11396W        W26527   8.521  11.247   2.554 -0.3144 -0.0409  0.0458
11397W        W26528   0.301   7.504  16.328 -0.2272  0.1047 -0.1871
11398W        W26529   6.677   0.334  14.935  0.0562  0.0260 -0.1482
11399W        W26530   7.146   7.333  13.937 -0.3068  0.1607 -0.1774
11400W        W26531   6.651  10.235   0.008 -0.0657  0.0475 -0.0750
11401W        W26532   8.619   1.653  10.719  0.1017  0.2661  0.2009
11402W        W26533   2.220   2.901   3.172 -0.1638 -0.1342  0.2153
11403W        W26534   5.533  10.498   2.201  0.3998  0.1865 -0.1013
11404W        W26535  17.433   9.230  14.019 -0.1556 -0.0730 -0.0225
11405W        W26536   0.181  12.024   4.192  0.0292 -0.0088 -0.1071
11406W        W26537  11.288   9.941  11.929 -0.0096  0.2222  0.5150
11407W        W26538   0.334  15.358  14.164 -0.3219  0.2830  0.1532
11408W        W26539   6.602   1.388  15.802  0.0203  0.0633 -0.1697
11409W        W26540   4.879   7.671   5.858 -0.4200 -0.0743  0.3758
11410W        W26541   5.126   4.009   1.984 -0.0915  0.0248 -0.2634
11411W        W26542   8.751  14.655  16.390  0.2175 -0.0641 -0.3963
11412W        W26543  11.025  17.583   1.267  0.0267  0.1959 -0.3668
11413W        W26544   3.613   2.604  14.832  0.0985  0.0558 -0.1070
11414W        W26545   6.080   6.951  14.379  0.2017 -0.0133 -0.0275
11415W        W26546  14.573  16.078  14.638 -0.3363 -0.0194  0.0453
11416W        W26547   5.598  17.427   6.079  0.0714 -0.0836  0.0625
11417W        W26548   4.279  15.057  16.633 -0.0005  0.3850  0.1706
11418W        W26549  16.180   7.280   3.486  0.0533  0.1163  0.0099
11419W        W26550  11.044  14.050   2.767 -0.0764  0.4512 -0.0536
11420W        W26551   8.366  17.861   2.834 -0.0299 -0.1422 -0.1026
11421W        W26552  11.092  13.760  15.859  0.2383 -0.1325 -0.2797
11422W        W26553  16.348  14.729   0.210 -0.1907 -0.1595 -0.0700
11423W        W26554  14.974   2.118   4.710  0.1710  0.0313 -0.2086
11424W        W26555  13.506   3.540  12.260 -0.1351 -0.2237  0.1938
11425W        W26556   6.561   2.948  14.583  0.1555 -0.0543 -0.0019
11426W        W26557  17.526  12.448   0.935 -0.0161  0.1854  0.1111
11427W        W26558  15.944  10.863   4.578 -0.2921 -0.1240 -0.3141
11428W        W26559   5.137   6.556  10.498  0.3731 -0.2125  0.0946
11429W        W26560   6.671  11.783   3.268 -0.1639  0.0365 -0.3123
11430W        W26561   1.796   3.728  13.542  0.1035  0.1088  0.0498
11431W        W26562   5.659   8.644   3.585  0.1205 -0.0283 -0.0103
11432W        W26563  11.728   8.755   5.184 -0.1122  0.4198 -0.0026
11433W        W26564   7.254   5.039   3.535 -0.2658 -0.1764  0.2350
11434W        W26565   4.584  12.975  11.723  0.2641  0.0580 -0.0006
11435W        W26566   8.716  12.067  16.092 -0.0468  0.0378 -0.2648
11436W        W26567  16.491   0.567  14.761  0.1193  0.0295 -0.2788
11437W        W26568   4.545  10.066   2.476  0.1536  0.0973  0.0208
11438W        W26569  13.006  11.535   4.825 -0.0440  0.1784 -0.1610
11439W        W26570  16.464  16.211   5.683  0.0127 -0.3167  0.0118
11440W        W26571   4.796  12.163  12.052 -0.2867  0.0419  0.0671
11441W        W26572   5.901  14.296  11.662  0.3446 -0.1852  0.0458
11442W        W26573   4.841   0.752  14.737 -0.2307  0.0652  0.2035
11443W        W26574  11.830  10.041  13.909  0.4222  0.1096  0.4134
11444W        W26575  11.635   5.698   2.829 -0.2881  0.0205  0.1996
11445W        W26576  13.613   9.829  12.267 -0.0214  0.1310 -0.2948
11446W        W26577   0.928   0.826  16.026 -0.0144  0.0642  0.0394
11447W        W26578   2.360   3.750  12.239 -0.1179 -0.0129  0.3619
11448W        W26579   8.238   0.177   4.276  0.0585 -0.0771  0.1089
11449W        W26580   5.665   7.458   3.969  0.2240  0.1509  0.1161
11450W        W26581  16.901   6.028  11.470  0.1746 -0.0502  0.3067
11451W        W26582  13.782  12.498  15.879  0.2376 -0.1825 -0.2139
11452W        W26583  17.120   0.972   3.691 -0.2127 -0.0179  0.2763
11453W        W26584   5.181  13.168  14.008  0.2116  0.1363  0.7113
11454W        W26585   5.941  13.032  16.692 -0.0661  0.2127 -0.1558
11455W        W26586  11.718   3.157   4.448  0.5169  0.2104  0.1222
11456W        W26587   9.396  13.319   1.976 -0.1881  0.0563  0.1596
11457W        W26588   2.123  13.096  11.957  0.2144 -0.0793 -0.1206
11458W        W26589   0.027   5.816  12.976 -0.1042  0.1283 -0.0720
11459W        W26590  15.753   8.075  16.390  0.3123  0.2910 -0.2764
11460W        W26591  17.108   2.227  14.962 -0.1637  0.0074  0.0425
11461W        W26592  10.192   0.351  12.810 -0.1612 -0.1439  0.4036
11462W        W26593   4.954  14.024   3.886 -0.3012 -0.0696  0.0893
11463W        W26594   0.968   2.531   1.729  0.1196  0.0780  0.0510
11464W        W26595   5.757  13.608  15.210 -0.1424 -0.1084  0.1292
11465W        W26596   6.956   3.553   4.506  0.1447  0.3488 -0.0158
11466W        W26597  12.382  16.428  12.451 -0.2386  0.0875  0.1177
11467W        W26598   8.009  13.262  16.416  0.2439  0.1502 -0.1426
11468W        W26599  16.105   1.467   2.733  0.1974  0.1220  0.0215
11469W        W26600  17.742   5.487  10.740  0.2051  0.0400 -0.1457
11470W        W26601   2.875  17.688  14.484 -0.2377 -0.1695  0.0754
11471W        W26602   7.883   3.295   5.076 -0.0860  0.0252 -0.0748
11472W        W26603   2.215  13.286   6.132  0.0456 -0.0523 -0.1331
11473W        W26604   5.538   7.702  14.301 -0.0398 -0.2394  0.0465
11474W        W26605   9.620   7.943   3.469  0.2228 -0.0114 -0.0188
11475W        W26606  13.903   7.736   5.309 -0.0514  0.0418  0.2237
11476W        W26607   4.177   5.036   0.607 -0.4383 -0.1231  0.1500
11477W        W26608  15.837  14.740   0.321 -0.1874  0.2659 -0.1064
11478W        W26609   4.570   6.399  12.610  0.2550 -0.0638 -0.2547
11479W        W26610   6.913   4.087   3.427 -0.0794  0.0169  0.2337
11480W        W26611   6.520   2.468   1.447  0.2688  0.0522 -0.1512
11481W        W26612   4.927   5.462   4.817  0.3889 -0.2021  0.1643
11482W        W26613  10.929   0.458  12.402 -0.2758 -0.1188 -0.0155
11483W        W26614   2.573   0.374   4.410 -0.0583  0.4048 -0.0613
11484W        W26615   6.424  13.080   1.522  0.0585 -0.0128  0.2317
11485W        W26616   4.557   1.439   4.315 -0.1248  0.0300  0.3980
11486W        W26617   2.062  15.517   5.737  0.0757  0.2553  0.1648
11487W        W26618  16.167  11.721   5.637  0.2119 -0.2104 -0.3263
11488W        W26619   0.215   9.160   4.646 -0.1350 -0.1309 -0.3082
11489W        W26620  17.138   9.392   0.735  0.0783  0.2959  0.3453
11490W        W26621  15.949  10.329  16.429  0.3967 -0.3413 -0.2225
11491W        W26622  12.319  16.093   0.881 -0.0891  0.0003 -0.1749
11492W        W26623   1.226   2.611  16.294  0.1440 -0.4700  0.0521
11493W        W26624   6.859   9.001  10.331  0.2108  0.0653 -0.1096
11494W        W26625  12.254   5.878  14.414 -0.0322  0.4091  0.0769
11495W        W26626  10.074   0.031   2.405 -0.2067  0.0165  0.3381
11496W        W26627  16.112  14.396  14.081  0.0932  0.0179  0.0712
11497W        W26628  15.896   0.790  14.676 -0.1395 -0.0971  0.0667
11498W        W26629  11.977   5.796   1.767 -0.0022 -0.0264 -0.0408
11499W        W26630   7.823   7.422   2.859  0.0004  0.4359 -0.1035
11500W        W26631  17.784   7.458  13.929 -0.3551  0.1372 -0.0249
11501W        W26632   0.750   8.569  12.846  0.2223 -0.1595 -0.0119
11502W        W26633   8.425   7.244  12.285  0.1156 -0.2683 -0.0317
11503W        W26634   1.406   2.138  15.833  0.0094  0.1120  0.0614
11504W        W26635   9.125   8.774  12.876 -0.0192 -0.0682 -0.3108
11505W        W26636   9.021  13.567   3.778 -0.0151 -0.1055  0.1428
11506W        W26637  12.747   0.057   0.193 -0.1387 -0.1105  0.0684
11507W        W26638   2.490  15.169  14.432 -0.0223 -0.0786 -0.0620
11508W        W26639  17.240   6.600   0.898  0.0974 -0.0304  0.1408
11509W        W26640  15.485   1.781  14.850  0.0833  0.1844 -0.2200
11510W        W26641  14.645  11.266  11.382 -0.2998  0.2700 -0.0611
11511W        W26642   5.142   6.261   4.204  0.1091  0.0637 -0.4701
11512W        W26643   0.023  13.047   0.188  0.2731 -0.0883 -0.1197
11513W        W26644   8.877   6.472   0.356 -0.0635  0.0811 -0.0976
11514W        W26645   5.158  14.883  12.803  0.1959 -0.0955  0.0136
11515W        W26646   2.421  10.111   1.144  0.1218  0.1021  0.1207
11516W        W26647  12.528   6.417  13.042  0.2079 -0.1688 -0.4164
11517W        W26648  10.392  15.849   4.593 -0.0929 -0.0075  0.0487
11518W        W26649  13.850   8.851  11.864  0.1527  0.1990 -0.1069
11519W        W26650  14.727   0.761  10.549 -0.2288  0.2204 -0.4134
11520W        W26651  12.782   8.948  11.662 -0.0671 -0.0650 -0.0367
11521W        W26652   4.072   0.093  14.627  0.0525 -0.0112  0.4027
11522W        W26653   8.784   7.653  13.879  0.1069  0.1839 -0.1555
11523W        W26654   0.283   4.097   4.648 -0.0222 -0.1559 -0.0400
11524W        W26655  12.634   0.643  13.413  0.4170 -0.0554 -0.0498
11525W        W26656   5.231   8.683  14.339 -0.1517 -0.0048 -0.0544
11526W        W26657  13.312   2.094   2.788 -0.2958  0.0961  0.1693
11527W        W26658  10.405   8.313  14.023  0.0090 -0.1228  0.0984
11528W        W26659  16.964   5.201   1.605 -0.1886  0.2328  0.2249
11529W        W26660   9.618   8.968  12.797  0.0324  0.4195  0.0615
11530W        W26661  13.666   4.796   0.649 -0.1686 -0.0047 -0.2465
11531W        W26662  14.242   2.077   3.416  0.0158 -0.1415 -0.1250
11532W        W26663   9.707  17.150   1.899 -0.2265 -0.0543 -0.1278
11533W        W26664  10.714   3.733   0.643 -0.2024 -0.1573 -0.2637
11534W        W26665   6.309   6.857  13.854  0.1580 -0.1993  0.0351
11535W        W26666   0.829   7.359   4.169 -0.1280 -0.4276  0.2162
11536W        W26667   0.868   9.520  12.454  0.0787  0.2608 -0.0779
11537W        W26668   7.560   7.664   0.400 -0.2172 -0.2358  0.3310
11538W        W26669  13.657  12.473  11.833 -0.0396  0.1187 -0.1954
11539W        W26670   8.607  15.735   0.612 -0.0877  0.1566 -0.2660
11540W        W26671  16.458   7.434  12.739  0.3421 -0.3214 -0.0334
11541W        W26672  12.404  10.602  11.888  0.0078 -0.2199  0.1651
11542W        W26673   2.853   2.426   2.835 -0.0661 -0.0579  0.0121
11543W        W26674   4.297  11.310  12.854 -0.2445  0.1566 -0.2245
11544W        W26675   3.099   7.937   4.610 -0.0983  0.3328 -0.1611
11545W        W26676  15.528  15.929  14.739 -0.1734  0.0648  0.0570
11546W        W26677   7.718  14.609  14.454  0.0024  0.3231 -0.0919
11547W        W26678   7.461  11.191  16.499 -0.1076  0.0629 -0.0714
11548W        W26679   2.220   6.007   4.719  0.3423 -0.0162  0.3390
11549W        W26680   1.796   9.649  11.932 -0.0586  0.1110  0.1389
11550W        W26681  12.320   5.472  15.186  0.0540 -0.3033  0.0383
11551W        W26682   7.165  15.659  11.868  0.1495  0.2599 -0.5166
11552W        W26683   2.756   4.777  14.972 -0.2336  0.0029  0.2039
11553W        W26684   0.773  11.556  12.890 -0.0418 -0.1144  0.0021
11554W        W26685  13.174  10.166   1.622 -0.1418 -0.0801  0.0075
11555W        W26686  16.601  16.528  15.608 -0.0659 -0.4428 -0.0410
11556W        W26687  10.219   7.519   5.534 -0.1301  0.0294  0.3295
11557W        W26688  12.678  15.407   5.041  0.1753 -0.0551  0.0539
11558W        W26689   1.368  11.694   0.489 -0.1352  0.1058 -0.1842
11559W        W26690   3.410   0.304  13.121  0.0555 -0.0903 -0.1213
11560W        W26691   3.844  10.064  13.998  0.1838  0.3655 -0.3163
11561W        W26692   9.539  14.762  15.403  0.0883 -0.1635  0.0505
11562W        W26693   5.438  17.757   2.069 -0.0569 -0.6174 -0.0198
11563W        W26694   6.797   3.731   1.409  0.0982  0.2462 -0.0172
11564W        W26695  16.586   9.364   5.821  0.2709 -0.1843 -0.2573
11565W        W26696  10.827  13.792  11.957 -0.0475  0.0208  0.1200
11566W        W26697  10.101  16.046   4.214  0.0997  0.1061 -0.1318
11567W        W26698  15.595   1.706  14.074  0.0329  0.0372 -0.0407
11568W        W26699   4.761   3.759  16.103  0.3858  0.0437 -0.0486
11569W        W26700  10.102  11.424   5.572  0.0110 -0.2662 -0.0035
11570W        W26701   1.696  16.998  14.104 -0.0002  0.1940 -0.0472
11571W        W26702   5.952   8.293   0.201 -0.1027 -0.2010  0.2675
11572W        W26703   4.021  10.827  12.887 -0.0858 -0.0546  0.2894
11573W        W26704  14.495   4.587   4.878 -0.1652 -0.0633  0.1324
11574W        W26705   9.198   9.752  12.393 -0.0331  0.0355  0.1705
11575W        W26706   8.214  17.710   0.143  0.1359  0.0720 -0.1264
11576W        W26707  10.374   4.511  16.380 -0.1981  0.2250 -0.1534
11577W        W26708  11.023   7.416  12.546  0.1212  0.1377 -0.3104
11578W        W26709  16.465  13.515   2.649 -0.1126 -0.2653 -0.2225
11579W        W26710   2.583  17.644   1.980 -0.2125 -0.0762  0.1971
11580W        W26711   4.190  12.975  16.025  0.2287 -0.0278 -0.0025
11581W        W26712  13.448   1.460  14.920 -0.2160 -0.2644  0.0790
11582W        W26713   1.126   3.703  16.501 -0.2147 -0.0562 -0.0710
11583W        W26714   8.649  11.686   1.756 -0.0048 -0.1875 -0.0737
11584W        W26715  12.380  16.616   3.572 -0.3208 -0.0199  0.0309
11585W        W26716   0.722   1.045   3.211 -0.4155 -0.3336  0.1858
11586W        W26717  10.251  12.103  14.541  0.1596 -0.1652  0.0459
11587W        W26718  15.619  17.447  14.197 -0.1623  0.3144  0.0601
11588W        W26719   1.328  11.618   1.604  0.2542 -0.1209  0.0616
11589W        W26720   9.832   9.834  14.101  0.0241  0.1189 -0.0818
11590W        W26721   1.015  14.665  14.101  0.2029  0.2130 -0.1249
11591W        W26722  16.901  17.195  14.537 -0.2873  0.0889 -0.1923
11592W        W26723   3.105   3.395  13.872  0.1154  0.0879  0.2587
11593W        W26724  15.125   2.321   4.159  0.0865 -0.1870  0.0837
11594W        W26725   1.704   2.308  12.435  0.4226  0.1042 -0.4089
11595W        W26726   1.334   4.669  16.148  0.2667 -0.0385 -0.1640
11596W        W26727  10.565   8.598   3.030 -0.2583 -0.1803 -0.3785
11597W        W26728  11.450   4.777   5.012  0.0298 -0.0910 -0.0745
11598W        W26729  17.063   5.299  12.054 -0.0442  0.0748  0.1539
11599W        W26730   4.624   4.515  13.435  0.0518  0.0698 -0.0026
11600W        W26731   7.800  11.193   3.967  0.1053 -0.0550  0.0317
11601W        W26732  15.535  15.378  12.867  0.1447  0.0545  0.0055
11602W        W26733   6.804  16.207   5.150 -0.0068 -0.3384 -0.2935
11603W        W26734  16.941   0.281  16.085 -0.0358  0.0378 -0.1608
11604W        W26735  12.444  10.805   0.589  0.1768 -0.0603  0.3038
11605W        W26736   1.706   2.989  14.190 -0.1394 -0.0935 -0.0939
11606W        W26737  17.363   7.288  10.368 -0.1603 -0.1941  0.0614
11607W        W26738   8.677   7.521   1.564  0.3252  0.1099  0.0314
11608W        W26739   7.772   7.629   3.617  0.4226 -0.0832  0.1179
11609W        W26740  10.462   4.430   4.866  0.0661 -0.1956  0.1135
11610W        W26741   6.963   9.518  11.478 -0.2088 -0.0015  0.1968
11611W        W26742   7.697  14.046   1.217  0.3622 -0.3961  0.0414
11612W        W26743  17.134   0.132  12.045  0.1264  0.0280  0.0875
11613W        W26744  17.825   2.528   1.359 -0.2777 -0.0895 -0.0225
11614W        W26745   9.407   1.501   0.101  0.1419  0.1512 -0.0841
11615W        W26746  16.644   3.723   4.972  0.2108 -0.3723  0.1737
11616W        W26747  15.992   5.466  11.938  0.2894 -0.0587  0.0587
11617W        W26748  11.385  10.860   0.618 -0.0960  0.4344 -0.1688
11618W        W26749   1.317  16.678   3.594 -0.2376  0.0915 -0.1751
11619W        W26750   7.913  14.305   3.522 -0.3027 -0.2029 -0.0708
11620W        W26751   2.188   5.833  15.149 -0.0614 -0.1574  0.0877
11621W        W26752   8.700   5.965   0.289 -0.0540  0.0488 -0.1410
11622W        W26753   9.646  11.177  16.191 -0.0856  0.0746  0.2382
11623W        W26754   3.336  13.555   2.899 -0.1309 -0.0552 -0.1300
11624W        W26755  13.685  17.244   2.375 -0.1910 -0.0280 -0.0534
11625W        W26756   9.595   0.569  14.976  0.1536  0.2615 -0.0871
11626W        W26757  15.768  10.298   5.499  0.0193 -0.0520  0.0996
11627W        W26758  16.721   1.436  11.156 -0.1001  0.0975 -0.1385
11628W        W26759  16.759  11.117  13.198  0.0235 -0.0627 -0.1185
11629W        W26760   5.023  16.285  15.507  0.1015 -0.1222 -0.3395
11630W        W26761   7.166   0.312   2.521  0.2253 -0.0385  0.1125
11631W        W26762   8.779   6.059  15.793 -0.3259 -0.1564  0.0399
11632W        W26763   4.712  15.598   2.091  0.1688 -0.1390  0.0010
11633W        W26764   7.570  14.916   2.844 -0.1108 -0.0436  0.0240
11634W        W26765   3.261   4.973  11.570  0.2385  0.0345 -0.1381
11635W        W26766   7.602  10.846   3.555  0.2164  0.2291  0.2897
11636W        W26767  16.424   4.678   2.027 -0.0373 -0.3204  0.0316
11637W        W26768  10.475  13.306  13.858 -0.3588  0.1405  0.0595
11638W        W26769   9.977  11.685  12.429  0.0373  0.1166  0.1594
11639W        W26770   4.636   9.322   0.409  0.2836  0.0482  0.3063
11640W        W26771  17.465  16.928   0.622  0.3571 -0.0286 -0.0550
11641W        W26772   8.824   2.050  11.941 -0.0454 -0.3904 -0.1261
11642W        W26773  15.192   6.131  12.695 -0.2416  0.0035  0.0272
11643W        W26774  11.156  10.180  12.328  0.0452  0.0807  0.0676
11644W        W26775   3.718  17.162  14.579 -0.0367 -0.0182 -0.0752
11645W        W26776   5.134   4.515  11.169 -0.2047  0.1092 -0.1190
11646W        W26777  15.605  11.651   5.668 -0.2403  0.0220 -0.0695
11647W        W26778   5.198  11.002  15.096 -0.0335  0.2397 -0.1306
11648W        W26779  12.110  11.161   0.236  0.2505  0.0207  0.0457
11649W        W26780   5.658   8.508   4.109  0.2611 -0.0134  0.0214
11650W        W26781  16.036  17.161   4.640  0.3565  0.1262 -0.1947
11651W        W26782   7.544   9.207   4.454 -0.3029  0.0561 -0.0093
11652W        W26783   1.378   8.449   2.018 -0.2678  0.2631 -0.1071
11653W        W26784   3.042  10.492  14.195  0.1283  0.1594 -0.1017
11654W        W26785   5.583  15.617  14.354 -0.1404  0.2086  0.0986
11655W        W26786   3.837  16.149   4.950  0.0192  0.1795 -0.2645
11656W        W26787  13.721   7.888  11.425  0.0684  0.1511 -0.1770
11657W        W26788  11.672  11.421  12.394  0.0310 -0.1187  0.0903
11658W        W26789   9.040   3.993  13.660 -0.0328 -0.2166 -0.1731
11659W        W26790   1.322   0.824  12.723  0.1911 -0.2345 -0.0284
11660W        W26791   6.471   5.509   2.037 -0.0924  0.2798 -0.0048
11661W        W26792  14.413   9.682   1.605 -0.3101  0.0403 -0.1297
11662W        W26793  11.642   3.004  12.136 -0.2414  0.0160  0.2077
11663W        W26794  12.060   4.307  16.621 -0.0426  0.1183  0.1583
11664W        W26795   3.711  13.427   0.369 -0.3933 -0.0958  0.1465
11665W        W26796   0.180  12.514  15.694 -0.0270 -0.1017  0.1991
11666W        W26797   8.273   1.758   3.398 -0.2226  0.0328 -0.1532
11667W        W26798   8.052   0.237  16.065  0.0201  0.0038  0.0152
11668W        W26799   8.867  16.155  11.512  0.1118 -0.0283 -0.1649
11669W        W26800  12.285  14.063   4.870  0.1429 -0.2585 -0.0332
11670W        W26801  14.129   3.365  14.010  0.0989 -0.1969 -0.0328
11671W        W26802   6.538   3.037   0.666 -0.2004 -0.2448  0.2343
11672W        W26803  12.201   2.580   0.663  0.1642 -0.1844 -0.0715
11673W        W26804  11.394   9.901   3.093 -0.0583 -0.3124 -0.1699
11674W        W26805  16.139  17.854   5.932 -0.2233  0.1817 -0.2187
11675W        W26806   2.074   3.448   2.478  0.0564 -0.0488  0.2392
11676W        W26807  11.819   8.991   2.942 -0.1333 -0.1153  0.1385
11677W        W26808   2.854  14.335  15.299  0.0619 -0.0603 -0.3252
11678W        W26809   7.185   6.052   3.262 -0.2333 -0.2300 -0.0604
11679W        W26810   0.686   4.646   1.591  0.0058  0.1179  0.0192
11680W        W26811   2.615  17.419   5.884 -0.0696  0.0536  0.4315
11681W        W26812   7.488  12.232  16.452  0.2172 -0.2543  0.0228
11682W        W26813   5.200  11.414   3.079  0.2215  0.0239 -0.0366
11683W        W26814   4.474  15.319  15.934  0.1557  0.6263 -0.3302
11684W        W26815   1.719  11.094   3.867 -0.0310  0.1378  0.1312
11685W        W26816   3.473   6.695   1.202  0.2486  0.2275 -0.0749
11686W        W26817  10.003   5.148  15.206 -0.3451 -0.1160 -0.0910
11687W        W26818   3.017  16.044   0.276  0.2743  0.3044  0.0172
11688W        W26819   5.633  13.083  13.622  0.0466  0.0164  0.0250
11689W        W26820   7.311   2.292   9.746  0.0488 -0.0670 -0.3436
11690W        W26821   0.420   0.324  11.305  0.0462 -0.0348 -0.2854
11691W        W26822  11.371   8.776   1.054  0.2482  0.1814 -0.2955
11692W        W26823   5.894   4.753  13.121  0.0309  0.2518 -0.1873
11693W        W26824   6.583  10.872  13.654  0.1048 -0.4064  0.0068
11694W        W26825   4.889   9.584  16.713 -0.0544  0.4194 -0.0631
11695W        W26826   6.699   4.921  11.508  0.0508  0.0259 -0.1856
11696W        W26827   2.079  14.296  14.940  0.4042  0.1113 -0.0582
11697W        W26828   8.678   8.553  14.318 -0.0270  0.0050  0.2161
11698W        W26829   7.442  15.166  12.979 -0.2917  0.2297 -0.1226
11699W        W26830   1.237   6.874  10.932  0.1074  0.0985 -0.0735
11700W        W26831  15.052  10.714  11.491  0.1427  0.1923  0.2909
11701W        W26832  15.959   1.399  16.442  0.2839 -0.2121  0.2544
11702W        W26833   6.829   9.882   0.293 -0.1582 -0.1301  0.1043
11703W        W26834  14.828   6.083  11.703 -0.1770 -0.2265 -0.1195
11704W        W26835  15.577  16.587   2.705 -0.1564 -0.2229 -0.1064
11705W        W26836   2.774  10.215   2.642 -0.1071  0.1869 -0.2380
11706W        W26837  16.395  11.046   4.647  0.0707 -0.0818  0.0678
11707W        W26838   3.400   3.600  14.212  0.2136 -0.3861 -0.0038
11708W        W26839  13.010  16.502  13.092 -0.0657  0.1394  0.0756
11709W        W26840   1.566   9.534   3.229 -0.1404  0.0895 -0.0760
11710W        W26841  16.775   7.348  15.015  0.2422 -0.1945  0.2330
11711W        W26842   8.604   5.494  13.813  0.2070 -0.1517  0.1212
11712W        W26843   7.647   9.024   1.126  0.0708  0.2478 -0.2939
11713W        W26844  10.696   1.292   5.267  0.0905 -0.0091  0.0843
11714W        W26845   5.767   3.960   2.295 -0.0133 -0.0847  0.2911
11715W        W26846  17.879  13.948  14.363  0.3088  0.0135  0.1343
11716W        W26847  12.333  16.011  14.436 -0.1561 -0.1106  0.0175
11717W        W26848   7.177  16.175  13.887 -0.2781 -0.0343 -0.0420
11718W        W26849   8.524  17.430  12.048  0.1319 -0.2288 -0.0163
11719W        W26850  11.354   4.018  13.423 -0.0819 -0.2256  0.1088
11720W        W26851   2.381  15.037   5.158 -0.0593 -0.0168 -0.0497
11721W        W26852   4.134  17.693   4.992  0.1413 -0.1082  0.1329
11722W        W26853   1.705   4.873   4.020 -0.2624  0.0423 -0.1133
11723W        W26854   9.489  15.231  11.315  0.1708 -0.1578  0.0087
11724W        W26855  12.616  14.418   3.381  0.2534 -0.1481 -0.1747
11725W        W26856   7.657   3.700   0.258 -0.0355  0.1508 -0.1133
11726W        W26857  13.466   2.916   4.144  0.1152  0.1797 -0.1481
11727W        W26858  11.266   1.043  15.373 -0.2846  0.2010  0.3942
11728W        W26859   1.530   3.430   3.186 -0.2124  0.0229 -0.0160
11729W        W26860  16.805   1.746  13.608 -0.4504 -0.0449  0.1409
11730W        W26861   1.202  13.617  10.980 -0.0102  0.0205  0.1222
11731W        W26862   2.437   7.328  12.544 -0.1493 -0.2698 -0.0064
11732W        W26863  14.160   0.609   0.448  0.0401  0.2226 -0.1651
11733W        W26864  12.610   8.765  16.245 -0.2386 -0.2478  0.2927
11734W        W26865   3.671   5.571  14.497 -0.0242 -0.3318 -0.1976
11735W        W26866  17.762   7.430  15.456 -0.1582  0.1043  0.0219
11736W        W26867  12.486   8.256   1.606  0.1023 -0.0579  0.0606
11737W        W26868  15.285  17.257   0.508  0.2285 -0.2619  0.0151
11738W        W26869  16.688  12.332   1.890 -0.0184  0.1865 -0.0981
11739W        W26870   7.308   4.966  15.410  0.4571  0.1148 -0.3121
11740W        W26871   7.099  14.866  13.899  0.1027 -0.1629 -0.0415
11741W        W26872   5.009  17.372  11.541  0.0371 -0.3169 -0.1619
11742W        W26873   1.539  11.216   4.767  0.2389  0.0524  0.1683
11743W        W26874   5.459   7.795   5.031 -0.1156  0.3577 -0.0371
11744W        W26875   1.325   3.927   1.973 -0.0866 -0.0494 -0.0286
11745W        W26876  16.938  17.267  15.041  0.2054  0.0191 -0.0825
11746W        W26877  16.482  14.468   2.917  0.3916  0.1703 -0.1379
11747W        W26878   8.926   7.207   4.978  0.0868 -0.3097 -0.3391
11748W        W26879   7.952  16.743  16.194  0.3544 -0.0665  0.0588
11749W        W26880  10.260   9.414  13.274 -0.0815 -0.0684 -0.1312
11750W        W26881   2.848   8.094   5.541  0.4811  0.0913  0.2536
11751W        W26882  17.248  10.593  14.037  0.1456  0.3788  0.0759
11752W        W26883  16.226  15.858   6.068  0.1142 -0.2810  0.2156
11753W        W26884   9.594  13.025   4.124  0.1527 -0.4011 -0.2564
11754W        W26885   3.756  12.317  16.503 -0.2374  0.1291  0.4245
11755W        W26886  12.080  17.535  12.477 -0.0200  0.0026  0.0310
11756W        W26887  17.269  17.558   5.120 -0.4561  0.2866 -0.0707
11757W        W26888  14.317   1.437   0.892  0.1708 -0.2707  0.1119
11758W        W26889  17.349   0.877  13.156 -0.1205 -0.1973 -0.1705
11759W        W26890  17.146  13.322   5.042 -0.0224 -0.1856  0.1447
11760W        W26891  13.192  12.132   3.143 -0.0743  0.0239  0.1825
11761W        W26892   5.773   4.040  15.889 -0.0332 -0.2819  0.2301
11762W        W26893   5.147  10.869   6.390 -0.1706  0.1511  0.0109
11763W        W26894   4.019  11.420   2.528  0.0416  0.1448 -0.3261
11764W        W26895   8.990   2.707   2.406  0.3455 -0.1719  0.2098
11765W        W26896  14.324  14.968  13.351 -0.1757 -0.0576 -0.3533
11766W        W26897  14.209  13.432  13.662 -0.1738 -0.2926  0.0287
11767W        W26898  12.667   8.646  13.979 -0.0621 -0.0724 -0.0131
11768W        W26899  11.796   9.392   3.895 -0.2231 -0.0368  0.0698
11769W        W26900  13.184  10.357  16.459  0.1262  0.0125  0.3438
11770W        W26901  11.140  15.959   0.956 -0.1172  0.0276 -0.0584
11771W        W26902   5.639   6.296  11.125 -0.1704 -0.0009  0.0603
11772W        W26903  11.228  13.797   5.720 -0.0626  0.0765 -0.0035
11773W        W26904   4.131   5.505   5.568 -0.1893  0.3169 -0.1880
11774W        W26905  17.165   6.089  14.796 -0.1485 -0.1834  0.1329
11775W        W26906  14.634  16.393  14.990 -0.3306  0.4628 -0.1398
11776W        W26907  17.545  10.730  14.420 -0.2330 -0.0836  0.0920
11777W        W26908   9.124   7.215  16.180 -0.1319 -0.0498  0.2418
11778W        W26909  13.378   1.263   2.043 -0.3884 -0.0747  0.2432
11779W        W26910   9.093   4.658   3.478  0.2078  0.2801  0.1070
11780W        W26911   8.897   9.186  16.525 -0.0953 -0.2502  0.1432
11781W        W26912  12.762   8.804  12.970 -0.2217  0.1270 -0.0848
11782W        W26913  17.008  16.796   0.862  0.2313 -0.0876 -0.1110
11783W        W26914   2.767   0.819  12.030 -0.1805  0.0165 -0.0011
11784W        W26915  12.554  15.475   4.471 -0.3079  0.0873 -0.1688
11785W        W26916  13.672   5.935  15.789  0.0660  0.0313  0.0923
11786W        W26917  17.569  16.310  14.067 -0.4144  0.0061 -0.2062
11787W        W26918   4.115  17.454  13.692 -0.0957  0.4381 -0.1264
11788W        W26919   4.801   8.870  11.494  0.1367  0.0522 -0.0261
11789W        W26920  11.645  10.700   0.027 -0.0315  0.2111  0.1300
11790W        W26921  16.074  10.032  14.519  0.1152 -0.2467 -0.0762
11791W        W26922   2.273   6.081  12.783 -0.3584 -0.0260  0.1141
11792W        W26923  13.142   7.452  14.049  0.0929  0.0621 -0.0275
11793W        W26924   1.323  10.288   2.002 -0.2664 -0.2577 -0.1546
11794W        W26925   0.192   3.985   3.376 -0.0160  0.2017  0.5403
11795W        W26926  16.399  10.925   0.170 -0.4370  0.1894  0.1113
11796W        W26927   2.958  12.121   4.015 -0.1149 -0.0564  0.0610
11797W        W26928   4.545  12.785  15.330  0.0723 -0.0737 -0.0438
11798W        W26929  10.537   0.548  11.436 -0.2366 -0.0489 -0.3541
11799W        W26930  15.015  14.980   2.435  0.0602  0.2708 -0.0949
11800W        W26931   8.312   7.583  15.625  0.0703 -0.0649  0.1571
11801W        W26932  13.572   8.891  13.689  0.2342  0.0255  0.1404
11802W        W26933  14.812  14.027   3.554 -0.0648  0.2480  0.0667
11803W        W26934   7.735   6.949  11.958  0.0824 -0.0271 -0.0398
11804W        W26935  16.553  15.201   3.604 -0.1667 -0.0005  0.2271
11805W        W26936   5.316   8.287   3.622 -0.1685  0.0894  0.1175
11806W        W26937  12.325   9.095  11.680  0.5298 -0.2620 -0.0383
11807W        W26938  12.837  16.237   4.147  0.0719 -0.1661 -0.2508
11808W        W26939   3.942   7.406  14.885  0.3911  0.0958 -0.0296
11809W        W26940  12.435   3.840  11.662  0.3712  0.2461 -0.1582
11810W        W26941  17.356  12.908   1.313  0.1537  0.2247 -0.1875
11811W        W26942  15.901  15.511  14.871 -0.2758 -0.0860  0.4425
11812W        W26943   3.067  14.516  16.143 -0.2027  0.0539  0.3729
11813W        W26944   5.640   6.739  11.955  0.0733  0.1270  0.3248
11814W        W26945   1.343  17.335  16.713  0.0301 -0.1010 -0.0315
11815W        W26946   1.187   8.802  12.756  0.0313  0.0723  0.2235
11816W        W26947  14.326   7.118  11.364 -0.1078  0.1192  0.0409
11817W        W26948   4.320   8.627  14.696 -0.4321 -0.0786 -0.1571
11818W        W26949   7.701   3.672   4.784 -0.0119  0.1262  0.0047
11819W        W26950  12.652  15.506  16.702  0.0574  0.0774 -0.2085
11820W        W26951   1.379   2.991   3.572  0.0396  0.2317  0.1106
11821W        W26952  13.672   6.382  12.186 -0.1126 -0.1819 -0.0340
11822W        W26953  11.604   2.718  16.076 -0.1258 -0.1134  0.2789
11823W        W26954   3.612   4.852  14.976 -0.1241  0.0753  0.0529
11824W        W26955   7.898   1.576   3.650 -0.0570  0.2688 -0.2469
11825W        W26956   3.440   7.799   2.919  0.1161  0.0922 -0.1953
11826W        W26957  13.967  15.248   4.795  0.1662 -0.2776  0.2432
11827W        W26958   4.577  16.026   1.738  0.1514 -0.0793 -0.0794
11828W        W26959   4.378   0.304   4.995  0.2660 -0.1185 -0.2321
11829W        W26960  11.708   4.704   1.847  0.1783 -0.0659 -0.1772
11830W        W26961   5.951   9.182  15.387  0.0913 -0.0432  0.0219
11831W        W26962   3.823  15.738  13.586  0.0877 -0.0004  0.0944
11832W        W26963  11.437  12.735  12.077  0.2806  0.0029  0.2253
11833W        W26964  14.649  16.582   6.065  0.2026 -0.0990  0.3067
11834W        W26965  15.666   9.940  11.690 -0.0722 -0.3571 -0.1656
11835W        W26966   3.465   2.437   0.655 -0.2440  0.1214  0.1622
11836W        W26967  13.719   5.832   4.321  0.2084  0.0676 -0.0140
11837W        W26968   8.541  14.913  14.215 -0.0408  0.2576 -0.1542
11838W        W26969  13.515   0.189   4.566  0.3058 -0.0871  0.1317
11839W        W26970  11.962  16.755  14.614 -0.1934  0.2860  0.0629
11840W        W26971   0.869   0.530  13.739 -0.1993 -0.0387 -0.0227
11841W        W26972  13.025  17.721   6.311  0.0334  0.0078 -0.2282
11842W        W26973   6.964   3.295   2.340  0.0290 -0.0024 -0.1966
11843W        W26974   8.607   7.344   4.106  0.0675  0.1185  0.0393
11844W        W26975  14.941   7.981  12.613  0.0949 -0.0183  0.2839
11845W        W26976   7.245   0.002  15.492  0.0007 -0.1790 -0.0658
11846W        W26977  13.156   4.457  12.080 -0.0768 -0.0050 -0.0986
11847W        W26978  11.304   1.129   3.620  0.1290  0.2438  0.2678
11848W        W26979  11.141   3.704   0.435  0.3993 -0.4811  0.1051
11849W        W26980   9.639   7.863   3.970 -0.0389 -0.1674  0.0854
11850W        W26981   5.679  11.056  12.951 -0.1803 -0.0367 -0.0924
11851W        W26982  12.874   7.421  14.489  0.0254  0.1677  0.2225
11852W        W26983  16.703   0.353  15.168  0.1797 -0.0370  0.1488
11853W        W26984   3.419  11.050  15.036 -0.2714  0.2194  0.1657
11854W        W26985  10.067  16.306   0.924 -0.2700 -0.1299 -0.3198
11855W        W26986   8.019  13.472   5.114 -0.0981  0.1409  0.1333
11856W        W26987   1.530  15.217  16.553  0.0358 -0.1013 -0.2154
11857W        W26988   7.249  16.487   2.765 -0.3881  0.3839  0.0080
11858W        W26989   9.942   1.728  13.147  0.0863 -0.0371  0.0511
11859W        W26990   3.959   2.674   5.337 -0.0853  0.2795  0.1678
11860W        W26991  15.028  12.204   0.342  0.0614 -0.2222 -0.0174
11861W        W26992  14.697  16.873  13.462 -0.1240  0.1088 -0.2372
11862W        W26993  13.267   3.044  15.217 -0.1176  0.0221  0.0566
11863W        W26994   4.426  15.534   0.246 -0.0580  0.2890  0.1292
11864W        W26995  17.121   1.250   2.712  0.1758  0.0671  0.0208
11865W        W26996   6.892   2.135  16.030 -0.0684 -0.0636  0.0596
11866W        W26997  16.528  17.550  14.680  0.0939 -0.0975 -0.1549
11867W        W26998  17.327  10.923   4.566  0.3419  0.0547 -0.1074
11868W        W26999   0.316  11.410   1.315  0.3451 -0.0083 -0.2658
11869W        W27000  12.129  17.504  11.921  0.2314  0.1263  0.2843
11870W        W27001   2.867   4.353  11.039  0.0278  0.2541 -0.0071
11871W        W27002   1.694   7.701  13.431  0.0443 -0.1176  0.1391
11872W        W27003   3.873   6.863  14.184  0.2191 -0.3432 -0.3438
11873W        W27004  12.481  13.982  13.555 -0.0197  0.2815  0.3490
11874W        W27005  16.800   4.544  13.374  0.2869 -0.1185 -0.0035
11875W        W27006  13.881   3.726  14.781 -0.2066  0.1170  0.1763
11876W        W27007  14.308  16.038  15.079 -0.0262  0.1367 -0.1839
11877W        W27008   4.577   5.182   5.587 -0.0112 -0.1449 -0.1663
11878W        W27009  15.735   2.746   2.086  0.3932  0.1070  0.0246
11879W        W27010   1.778  13.013   1.056 -0.0602  0.0817 -0.3122
11880W        W27011   9.040   9.409  13.585  0.0132  0.2034  0.0437
11881W        W27012   5.734  16.475   2.646  0.2486  0.1975 -0.2076
11882W        W27013   3.130   6.136  11.269 -0.1709 -0.0281 -0.1889
11883W        W27014   9.729   8.421  11.638  0.0073 -0.0478  0.1533
11884W        W27015   2.973   8.809  14.876 -0.0333 -0.0316 -0.0511
11885W        W27016  15.862  13.202   5.789  0.0942 -0.2703 -0.2677
11886W        W27017   7.758   7.494   4.554 -0.1619  0.3224 -0.0702
11887W        W27018  13.577  16.099  14.002  0.0935  0.1709 -0.0742
11888W        W27019   6.698   2.931  14.087 -0.2999 -0.0168 -0.0860
11889W        W27020  13.198  14.936  11.602 -0.1730  0.0436  0.0287
11890W        W27021  13.376  13.344   2.900 -0.1426 -0.1472  0.0184
11891W        W27022  10.790   8.587  10.925 -0.1387 -0.2819  0.0977
11892W        W27023   4.885   7.263   5.411  0.2221 -0.0821 -0.1058
11893W        W27024   1.633  16.366  16.430 -0.2478  0.1526 -0.1788
11894W        W27025  16.077  12.348  15.651 -0.0637  0.1236  0.1002
11895W        W27026   6.028   1.453   4.093  0.1853 -0.0097 -0.3938
11896W        W27027   7.980  17.606   0.720 -0.0576  0.2012 -0.1104
11897W        W27028   0.527   3.197  13.619  0.0390 -0.2857 -0.1962
11898W        W27029  16.469   5.359   4.237 -0.0616  0.0981  0.1294
11899W        W27030  13.842   8.452  12.198 -0.0544 -0.0467  0.1868
11900W        W27031   8.315   8.902   3.464  0.1305  0.2585  0.1210
11901W        W27032  16.012   6.910   4.365  0.0972  0.0581 -0.0509
11902W        W27033  16.080  11.254  14.747 -0.1616  0.0066  0.1432
11903W        W27034   2.798   7.277   2.405  0.0265  0.2251 -0.0798
11904W        W27035   4.828   9.978   3.917 -0.1465 -0.2275  0.1810
11905W        W27036  14.443   8.721   4.969 -0.0248 -0.0868  0.2561
11906W        W27037   0.639   9.233   3.080 -0.1859  0.3937 -0.0475
11907W        W27038   2.759   4.304  13.601  0.0217  0.0227  0.1941
11908W        W27039   1.923  15.573   0.623  0.0621  0.2445  0.1908
11909W        W27040  14.933   4.302  15.922  0.1900  0.0636 -0.1963
11910W        W27041  17.671   5.677   2.911  0.1075  0.1865 -0.1357
11911W        W27042   2.620  17.449   4.008 -0.1216 -0.1025 -0.0911
11912W        W27043   2.040  17.836  13.829 -0.0889  0.1029 -0.2711
11913W        W27044   4.465  10.629  14.551 -0.1201 -0.1353  0.0916
11914W        W27045   2.738  10.281  11.915 -0.0617  0.2235 -0.0671
11915W        W27046  13.572  10.659   4.496 -0.1316  0.0087  0.1695
11916W        W27047  14.240   5.558  15.145  0.1880 -0.0651  0.1481
11917W        W27048   9.365   4.287  15.276 -0.0044  0.0363  0.1203
11918W        W27049   7.527   6.497  16.726 -0.1371 -0.0584  0.0424
11919W        W27050   5.489   1.297  10.391  0.0951 -0.0597 -0.1546
11920W        W27051   4.824   5.738  15.894  0.1857  0.2735 -0.2128
11921W        W27052   0.128  17.773   0.625  0.2454  0.0613  0.1436
11922W        W27053   4.107  15.485  15.209  0.2513 -0.3715 -0.2001
11923W        W27054  17.697  11.452  11.553 -0.0925 -0.2776 -0.1997
11924W        W27055   1.735  12.204   3.681 -0.1407  0.0920 -0.1229
11925W        W27056  10.036   4.184   0.498 -0.1762 -0.3303 -0.0046
11926W        W27057   6.011   6.698  13.487 -0.1156 -0.0287 -0.1358
11927W        W27058   6.486   8.991   5.662 -0.0905  0.2081  0.0509
11928W        W27059  14.183  16.303   2.751  0.2020 -0.0074  0.0450
11929W        W27060   8.053  17.638   1.733  0.0529  0.0272  0.1314
11930W        W27061  10.903  15.207  12.708  0.1518 -0.3406  0.0809
11931W        W27062   4.703   0.853   1.483 -0.0912 -0.1575  0.1137
11932W        W27063  12.748   6.447  11.660  0.2116 -0.1738  0.0842
11933W        W27064   7.405   2.660  13.156  0.1576  0.1958 -0.0256
11934W        W27065   1.190   7.058   3.855  0.0380  0.0731  0.0331
11935W        W27066   2.900   6.833  14.729  0.2280 -0.1098  0.0127
11936W        W27067  11.967  12.653  13.949  0.0585 -0.0040  0.0417
11937W        W27068  13.824   6.573   4.608  0.4097 -0.0607  0.2385
11938W        W27069  13.452  13.386  14.972 -0.0583 -0.0020 -0.0854
11939W        W27070   3.121   2.565   6.193 -0.0995 -0.0367  0.1683
11940W        W27071  10.908   2.930   0.183 -0.0814 -0.0462  0.1354
11941W        W27072  17.401  16.956   3.494 -0.0172  0.0783  0.2292
11942W        W27073   5.543   2.778   4.336 -0.1941 -0.2848  0.0999
11943W        W27074  16.544  10.811   1.493 -0.0540  0.0304 -0.0766
11944W        W27075  16.265   4.393  12.102  0.0920  0.1685 -0.1728
11945W        W27076  15.793  13.253  16.754  0.0132  0.1714  0.0550
11946W        W27077   5.760  10.580   0.980  0.1665  0.0586 -0.2515
11947W        W27078   2.098  16.499  16.183  0.1038  0.2097  0.2653
11948W        W27079  15.985   3.066  14.457  0.1896 -0.1710 -0.2018
11949W        W27080   2.399  13.617   4.108 -0.1266 -0.0983 -0.0864
11950W        W27081   1.177   7.968   6.367  0.0515  0.0975 -0.2108
11951W        W27082   6.546  12.019  12.308  0.2438 -0.2186  0.3623
11952W        W27083  15.119   9.638   0.668 -0.0824  0.0329 -0.2383
11953W        W27084  14.325   4.535   1.848 -0.1515 -0.0455  0.1272
11954W        W27085  10.612  12.316  12.511 -0.4880  0.1033 -0.0947
11955W        W27086   5.058   4.471  14.524 -0.0253 -0.0614  0.1015
11956W        W27087   7.907   3.598  11.539 -0.1228 -0.1222  0.2189
11957W        W27088   1.622  13.242  16.505  0.1371 -0.0707 -0.2292
11958W        W27089  10.297   8.861  16.597  0.0425 -0.3784 -0.0891
11959W        W27090  14.804  17.202   4.899 -0.0646  0.2613 -0.4329
11960W        W27091   1.036  10.408   1.576  0.0257 -0.0742 -0.2881
11961W        W27092   3.833  13.268  14.293 -0.2419  0.1010  0.4859
11962W        W27093   9.412   8.442   5.747  0.3705  0.2876  0.1229
11963W        W27094  11.008   7.838  14.807  0.1042 -0.0996 -0.0983
11964W        W27095  14.149   7.331  12.181 -0.2094 -0.0413  0.2622
11965W        W27096  14.993   0.217   1.208 -0.3601 -0.2441  0.0804
11966W        W27097   7.535   4.393  11.901 -0.1933 -0.2522 -0.0256
11967W        W27098   9.298  11.454   5.868 -0.1377 -0.1028  0.1331
11968W        W27099  16.521   1.909   0.903  0.1847  0.1244  0.2279
11969W        W27100  13.126   5.076   2.059  0.1479 -0.0298  0.0653
11970W        W27101   8.472   0.393  16.760  0.0279  0.0113 -0.1651
11971W        W27102  10.815  12.999   0.477 -0.0453  0.0007 -0.0581
11972W        W27103   5.201  13.357   3.588  0.4250  0.0139 -0.3140
11973W        W27104  15.307   8.597   1.531  0.4512  0.1558 -0.2775
11974W        W27105   6.088   2.325   2.298 -0.0783 -0.0093  0.0975
11975W        W27106  16.335   8.082   5.169  0.0950  0.1727  0.0305
11976W        W27107   6.037   0.139  14.625  0.1053 -0.1233  0.2136
11977W        W27108   5.227   3.649  13.273 -0.3243 -0.0949  0.1376
11978W        W27109   0.124  15.258   1.551  0.3651 -0.3928  0.1384
11979W        W27110   5.499   1.894  13.083  0.1583  0.1345  0.0353
11980W        W27111   8.603   4.695  14.908 -0.3371 -0.0864  0.0800
11981W        W27112   5.037  14.349  15.304 -0.0566 -0.1085  0.1290
11982W        W27113   9.032   5.330  14.138  0.2610 -0.3387  0.0733
11983W        W27114   0.911   4.477  15.905  0.0968 -0.0928  0.2849
11984W        W27115   7.442  16.740  16.282  0.1613  0.0194  0.1031
11985W        W27116   0.385   9.579   2.813  0.1063 -0.0478 -0.1300
11986W        W27117   9.180   3.121   1.213 -0.2516  0.0297  0.2926
11987W        W27118  15.069   9.137   4.692 -0.1202  0.1549 -0.1255
11988W        W27119  15.054  13.327   5.378  0.1230  0.1074 -0.0187
11989W        W27120  14.620  16.630   0.047 -0.0662  0.0465  0.3174
11990W        W27121  16.432   5.823  11.604 -0.0926 -0.0712  0.2880
11991W        W27122   7.349  14.997   5.249  0.0606  0.1491 -0.0235
11992W        W27123  10.387  11.972  16.112  0.1755 -0.3092 -0.3470
11993W        W27124   7.668  13.881  14.310  0.1209 -0.1942 -0.0150
11994W        W27125   5.818   1.277  14.190  0.0755 -0.2062 -0.0363
11995W        W27126   6.926   2.066   4.329  0.2250  0.2328  0.1536
11996W        W27127   1.156  16.336  15.796 -0.1471  0.0493  0.1514
11997W        W27128   2.181  10.049   2.086  0.1290 -0.1172  0.1365
11998W        W27129  11.784   8.083  12.310 -0.0418  0.2101 -0.0954
11999W        W27130  14.780  15.670  13.731 -0.0041 -0.3874  0.2944
12000W        W27131   1.587   9.048  11.881  0.0493  0.2390 -0.2361
12001W        W27132   0.444  11.690   1.700  0.0568 -0.2245  0.1171
12002W        W27133   4.430   8.800  13.484  0.0926  0.1811  0.1221
12003W        W27134   5.607  13.777   5.134  0.2486 -0.0575  0.0818
12004W        W27135  16.225   4.492   5.417  0.0686 -0.0366 -0.1599
12005W        W27136  16.690  12.235   3.539 -0.0942 -0.0038  0.3795
12006W        W27137   5.205  12.585   2.926  0.0460  0.0476  0.1490
12007W        W27138  11.666   4.394   3.322  0.2075  0.1657 -0.2780
12008W        W27139   9.484   1.084  12.530 -0.1380  0.0105  0.1255
12009W        W27140   5.427   3.099   4.656 -0.1478 -0.1610  0.2293
12010W        W27141  17.775  12.278  12.423 -0.0725  0.2726  0.2870
12011W        W27142  14.322  13.591  14.476 -0.2653  0.0128  0.0479
12012W        W27143  13.908   6.445   1.096 -0.2573 -0.0366  0.3252
12013W        W27144  11.871  17.551  14.999  0.0382  0.0698  0.1645
12014W        W27145  11.118   7.022   1.596 -0.1361  0.0555 -0.0481
12015W        W27146   9.318  11.990  12.961 -0.1056 -0.0668 -0.0317
12016W        W27147   1.594   8.731  15.831 -0.1078  0.4022 -0.2257
12017W        W27148   2.848  15.744  13.086 -0.0916 -0.0577  0.2648
12018W        W27149   0.120  15.997  14.934 -0.2170  0.1005 -0.0091
12019W        W27150   0.469  12.439   1.156  0.0811  0.0617 -0.1480
12020W        W27151   5.978  17.869   4.681 -0.0148 -0.3135 -0.0372
12021W        W27152  11.573   1.660   5.710 -0.0482  0.1727 -0.1679
12022W        W27153  14.368   6.140  13.675  0.2873 -0.0863 -0.2046
12023W        W27154   9.525  11.848   1.530 -0.1163  0.2543  0.0234
12024W        W27155   4.068   5.740   3.289 -0.1245  0.1474 -0.0265
12025W        W27156   6.168   8.271  14.422  0.0501 -0.1055  0.1097
12026W        W27157   7.920   9.736  12.413  0.1986 -0.1844 -0.4859
12027W        W27158   3.578  15.319  15.166  0.5329  0.1637  0.1291
12028W        W27159  15.291  16.792   5.371 -0.0533 -0.3825 -0.1560
12029W        W27160  14.528   9.395   0.852  0.1023 -0.0452 -0.1245
12030W        W27161  11.123   3.153  13.649  0.0603 -0.1478  0.0915
12031W        W27162   8.338  17.420   3.494  0.2466 -0.0455  0.1775
12032W        W27163   2.905  16.525   0.387  0.2026  0.1993 -0.0809
12033W        W27164   8.572  14.653   1.150 -0.0127 -0.1239 -0.0163
12034W        W27165   6.942   1.197  16.116 -0.4026  0.1895  0.2738
12035W        W27166  14.168  10.336   2.296  0.2919 -0.1962 -0.0586
12036W        W27167   9.051  11.024  12.119 -0.3816  0.1532  0.0709
12037W        W27168  12.992   0.222  11.783 -0.1860 -0.2313  0.0628
12038W        W27169   5.348   6.763  15.338  0.2324 -0.0848  0.0117
12039W        W27170  10.486   2.294   2.988 -0.0664 -0.1243  0.3670
12040W        W27171  16.839  16.294   6.151 -0.2032 -0.2208  0.1251
12041W        W27172   5.953   3.596   1.195  0.0356  0.3246  0.3943
12042W        W27173  12.742  16.333  12.113 -0.0795  0.1793 -0.0615
12043W        W27174  10.718  13.489   1.912  0.3486 -0.0013 -0.1951
12044W        W27175   1.888   0.441  13.875  0.1091  0.0376 -0.0087
12045W        W27176  12.416   0.782   4.282  0.2040 -0.2384  0.3645
12046W        W27177  13.985   6.477   3.361  0.0466 -0.0719  0.1427
12047W        W27178   1.439  13.700   6.436  0.0934 -0.0219 -0.3180
12048W        W27179   9.106   1.342  14.759 -0.1955  0.0767  0.1624
12049W        W27180  17.860  15.624  12.852 -0.1610 -0.2509  0.0151
12050W        W27181   2.020  14.642  11.142  0.1733 -0.1405  0.1822
12051W        W27182  13.722  13.918   0.696  0.0265  0.3190  0.1200
12052W        W27183  14.535   6.377  11.343  0.1559 -0.1747  0.1311
12053W        W27184  14.438   9.876   0.914  0.2501  0.0900 -0.1543
12054W        W27185  12.996  11.342   0.624 -0.1572 -0.1109  0.2193
12055W        W27186  10.412  10.975   0.137  0.0733 -0.1786 -0.2500
12056W        W27187  17.234   2.522  11.748 -0.0723  0.2931 -0.0382
12057W        W27188  17.791  12.215   1.922 -0.1076 -0.0269 -0.0919
12058W        W27189   3.351   6.770  14.250 -0.2928  0.1340 -0.0305
12059W        W27190  12.057   6.344  12.826  0.0889 -0.0997  0.0160
12060W        W27191   1.810   6.602  13.227 -0.0583 -0.1760 -0.2525
12061W        W27192   1.492   5.945  16.250  0.0874 -0.2271  0.0578
12062W        W27193  10.964  12.470   2.013 -0.0612  0.3960 -0.2465
12063W        W27194  10.194  10.511   0.069  0.0605  0.0209 -0.0456
12064W        W27195  12.337   6.780  14.282 -0.2011 -0.1293 -0.0165
12065W        W27196   1.838   8.644  11.730  0.5089 -0.2579 -0.1569
12066W        W27197   0.153  14.467  11.450 -0.0488  0.2314 -0.0636
12067W        W27198   5.286  17.428   3.125  0.0356 -0.4271  0.0129
12068W        W27199   6.241   5.957  15.433 -0.2538  0.1940 -0.0249
12069W        W27200   8.453   4.233  12.036  0.2185 -0.1372  0.3555
12070W        W27201  17.506   4.413  14.040  0.0137  0.4350 -0.3365
12071W        W27202   1.282  13.432   2.733  0.0014  0.0184  0.0209
12072W        W27203   6.385  10.295   2.369 -0.4996 -0.0476 -0.0081
12073W        W27204  12.662  16.445   2.621  0.3639  0.0595  0.1120
12074W        W27205   6.630  15.364  14.639  0.1256  0.1644  0.2915
12075W        W27206   6.465   8.573   0.533  0.0235  0.0148 -0.1460
12076W        W27207   3.494  13.572  16.200  0.0228  0.0645  0.2176
12077W        W27208   7.388   9.404  11.698 -0.3513  0.1142  0.0043
12078W        W27209  13.640  17.311   4.410 -0.5397 -0.2876  0.3204
12079W        W27210  15.670   2.845   4.759 -0.1949  0.1273  0.1905
12080W        W27211  11.469  13.562   3.955  0.1194 -0.1664  0.4594
12081W        W27212   4.876   1.397  13.089 -0.2419 -0.1610 -0.1887
12082W        W27213  11.500   5.111  11.562  0.1943 -0.0094  0.1704
12083W        W27214   8.086   6.714  10.353 -0.0923  0.1667 -0.0421
12084W        W27215  11.189  13.432   6.054  0.0785  0.3401  0.2138
12085W        W27216   9.468   6.598   5.048  0.0220  0.1534 -0.0660
12086W        W27217  12.767   7.065  16.204  0.0566 -0.0459  0.4892
12087W        W27218  11.946   7.686   1.717  0.0362 -0.3863 -0.0917
12088W        W27219   9.465   1.364  13.353 -0.1287 -0.1590  0.1973
12089W        W27220   9.064   2.366  10.985 -0.0794  0.1793 -0.1797
12090W        W27221   0.876  13.193  15.801 -0.1728  0.1321  0.3808
12091W        W27222   6.186  17.774  14.117  0.3014 -0.0808  0.2340
12092W        W27223  13.280   7.636  14.898 -0.1088  0.3643  0.1939
12093W        W27224   4.938  10.603  15.334  0.2304  0.0376  0.1272
12094W        W27225   8.787   4.603  16.668 -0.0022  0.1082 -0.0963
12095W        W27226   6.564  11.792   3.733 -0.2905  0.0872 -0.3117
12096W        W27227   4.368   2.925   3.851 -0.3672  0.1328 -0.3026
12097W        W27228  11.995  15.403   4.415  0.0914 -0.0650 -0.4278
12098W        W27229   3.458   4.103   2.156  0.3634  0.0998 -0.4070
12099W        W27230  14.745  14.587   2.090 -0.2036 -0.2203  0.0220
12100W        W27231  10.321  16.230  13.046 -0.1035  0.1356 -0.1023
12101W        W27232   2.610   0.688   1.577  0.0890  0.1865 -0.2272
12102W        W27233   9.700   2.373  16.473  0.0473 -0.0804 -0.0840
12103W        W27234  15.889  14.969   1.441 -0.0490 -0.2642 -0.1697
12104W        W27235  11.084  15.848  13.781  0.0983  0.0617 -0.0569
12105W        W27236   3.950   4.509  15.052 -0.3788 -0.3555 -0.2427
12106W        W27237   7.833   9.363   5.403 -0.1740  0.2312  0.0885
12107W        W27238   5.675  10.902  14.159 -0.2194 -0.0401 -0.3720
12108W        W27239   5.259  10.870  13.162 -0.0074 -0.1559  0.1020
12109W        W27240  16.483   4.625  16.360  0.4640 -0.0837  0.2281
12110W        W27241  13.692   6.057   5.758 -0.0289 -0.0376 -0.4424
12111W        W27242  14.859   8.084  16.442  0.0299  0.1477  0.1368
12112W        W27243   9.886  14.906   2.392 -0.0707  0.0500 -0.1224
12113W        W27244  12.814   4.743   3.137 -0.2412  0.1906 -0.1569
12114W        W27245  13.788   6.375  12.909 -0.0303  0.0945  0.1095
12115W        W27246  11.675  13.984  16.440 -0.0495  0.0216  0.0315
12116W        W27247   7.566   7.261  16.379 -0.0833 -0.3437 -0.2059
12117W        W27248   2.956   4.917   4.693 -0.1210 -0.1153  0.2675
12118W        W27249   2.889   9.756   4.607  0.1257  0.1675 -0.2434
12119W        W27250  13.265  16.028   3.300  0.2798 -0.1365 -0.0042
12120W        W27251  13.288   0.009   5.028  0.2006  0.0997 -0.0268
12121W        W27252  10.451   2.813  12.630 -0.3126  0.1160  0.0485
12122W        W27253   7.532  16.231   2.405 -0.0495  0.0380  0.0644
12123W        W27254  15.667   5.953   5.633 -0.1463 -0.1570 -0.2024
12124W        W27255   2.729   6.229  12.601 -0.0599  0.3507 -0.0725
12125W        W27256  11.219   0.666   1.812 -0.0037 -0.0145 -0.3373
12126W        W27257  15.325  13.939   2.329  0.3494 -0.1219 -0.0296
12127W        W27258   6.399   6.647  10.804  0.1934  0.0868 -0.3212
12128W        W27259   2.665   8.037   4.093 -0.1765  0.0640 -0.0709
12129W        W27260   8.704   6.399   1.846 -0.0754 -0.2818  0.0213
12130W        W27261  13.287   8.847   5.016  0.0818  0.0866  0.0150
12131W        W27262   9.662  14.473  14.390 -0.3261  0.1650 -0.2255
12132W        W27263  12.251   5.602   3.649  0.0277  0.1164 -0.3958
12133W        W27264   6.283  12.436  15.673  0.1090 -0.1141  0.0088
12134W        W27265  14.997  13.226   6.189  0.2045 -0.2813  0.0280
12135W        W27266  16.629   4.802  12.029 -0.2231 -0.1677 -0.4107
12136W        W27267   1.309  17.590   1.156 -0.0812 -0.1137 -0.0256
12137W        W27268   7.321   8.685  15.837 -0.0695  0.1638  0.1239
12138W        W27269  15.631   0.809  15.147  0.1133 -0.0100 -0.0827
12139W        W27270  13.653   8.770   4.601  0.2028 -0.0662 -0.2072
12140W        W27271  14.620   9.713  14.411  0.3142  0.2068 -0.0378
12141W        W27272   8.146  13.389   2.190  0.3260  0.2931  0.4780
12142W        W27273  17.429   3.021  12.914  0.2214  0.1741  0.2874
12143W        W27274  11.834  10.282  14.361  0.1624  0.1395  0.1361
12144W        W27275   7.169   8.276   0.708  0.1890  0.1446  0.0374
12145W        W27276   8.869  17.131   0.714 -0.1434  0.2238 -0.1286
12146W        W27277  14.587  10.958  11.774 -0.1910 -0.1067 -0.0588
12147W        W27278   5.269  15.649   2.045  0.0038  0.2760 -0.1541
12148W        W27279  17.718   7.178  14.984 -0.2992 -0.2180 -0.1203
12149W        W27280  17.328   7.873  15.421 -0.4161 -0.3706  0.1821
12150W        W27281   9.778  12.832  12.700 -0.0643  0.0857  0.0910
12151W        W27282  10.475   7.089   5.513 -0.3070 -0.0442  0.0470
12152W        W27283   5.751  11.766  15.904 -0.1394  0.0960  0.0937
12153W        W27284  16.612  13.357   5.321 -0.1847 -0.2838 -0.1708
12154W        W27285   0.841   7.209   0.504  0.3266 -0.3238 -0.1394
12155W        W27286  14.599   8.399  16.679  0.0886 -0.3064  0.2771
12156W        W27287  10.170  13.316   4.261 -0.0270 -0.0002 -0.0178
12157W        W27288  13.728   8.841  14.145 -0.3290 -0.3371 -0.1757
12158W        W27289  14.891   7.858  11.219  0.1938  0.1217  0.1423
12159W        W27290  17.552  15.360  14.419 -0.0842 -0.0117 -0.1143
12160W        W27291  10.842   1.175   3.470 -0.1121  0.0237 -0.0686
12161W        W27292  12.446   3.827   0.177  0.4954  0.0861 -0.1217
12162W        W27293   5.086   8.578  15.664 -0.0788  0.2337  0.0786
12163W        W27294  17.723  14.465   3.171 -0.3889  0.1489 -0.1334
12164W        W27295  16.962   2.407   3.463  0.0737 -0.6156 -0.0995
12165W        W27296   0.268  10.632   2.654 -0.5813  0.4036  0.2001
12166W        W27297  17.515   5.436   6.064 -0.1981  0.0658  0.2360
12167W        W27298   6.772   0.025   2.795  0.0897  0.2455 -0.0961
12168W        W27299  15.311   3.759  15.337  0.0496  0.0791  0.4157
12169W        W27300  11.847  15.718  14.691  0.0666  0.2917  0.2469
12170W        W27301  11.532  10.752  16.153 -0.3542 -0.1937 -0.1135
12171W        W27302   2.383   3.461   0.582 -0.2131  0.2138 -0.1425
12172W        W27303   2.173   0.993  15.517 -0.0108  0.1279  0.0400
12173W        W27304   0.807  12.642   0.723  0.1018 -0.1520  0.3251
12174W        W27305   0.087  12.013  16.215  0.1712  0.2613  0.1331
12175W        W27306  16.767  13.429   4.738 -0.0415 -0.0357  0.1091
12176W        W27307   9.691   9.794  12.878  0.1729 -0.1647  0.0489
12177W        W27308   2.614   2.624   3.409  0.1842 -0.0744 -0.4002
12178W        W27309  12.263   2.240   3.694 -0.2744  0.0408  0.1997
12179W        W27310   4.271  13.516   3.522 -0.0206 -0.2650  0.0609
12180W        W27311   1.381  15.098  12.681  0.1384  0.1943  0.0367
12181W        W27312   4.227   7.670  16.368 -0.1342 -0.2919 -0.2119
12182W        W27313  10.355   6.024  11.119 -0.1949 -0.0982 -0.0430
12183W        W27314   8.570  16.826   0.470  0.1152  0.0203 -0.1720
12184W        W27315  13.644   0.033   0.072  0.0717 -0.0164  0.0507
12185W        W27316   0.754   2.888  11.791  0.0558 -0.0155  0.2657
12186W        W27317   7.221  14.723  16.414  0.0908  0.0269  0.1659
12187W        W27318   8.465  14.137  13.588  0.1815  0.1884  0.0542
12188W        W27319   1.579  11.426   5.695  0.1078 -0.1633 -0.1356
12189W        W27320   6.397   0.664  13.496 -0.3192  0.2901 -0.1432
12190W        W27321   2.849  17.727   1.110  0.0242 -0.0950 -0.0720
12191W        W27322  12.431   7.360  15.405 -0.4005 -0.0776  0.2075
12192W        W27323   6.791  12.917   4.128  0.0772  0.0901 -0.1613
12193W        W27324   7.158  12.970   2.520  0.0662  0.1501 -0.2306
12194W        W27325   9.629   5.433   4.671 -0.0371  0.0491 -0.2047
12195W        W27326  17.301   1.785  12.724 -0.1893  0.0634 -0.0290
12196W        W27327   5.536   5.346   1.159  0.1579  0.2563 -0.0708
12197W        W27328  11.462   0.287  10.110  0.1523  0.1126 -0.2179
12198W        W27329   9.420  10.136   0.097  0.0384  0.0690  0.0750
12199W        W27330  17.535   0.995  16.384  0.0215  0.0146  0.1138
12200W        W27331  16.934   3.130  15.661  0.1948  0.2360  0.0191
12201W        W27332  16.769   6.836   3.078 -0.1373  0.1309 -0.1103
12202W        W27333  15.033  13.885   1.150 -0.0213  0.1596 -0.0202
12203W        W27334  13.348  12.012  14.550 -0.1265  0.2144 -0.0946
12204W        W27335   2.199   7.752  16.263 -0.1014  0.0516  0.1215
12205W        W27336   2.580  12.548  14.560 -0.2031  0.0966 -0.0842
12206W        W27337   8.528   7.754   0.575 -0.1035  0.1384  0.1841
12207W        W27338   6.521   2.623  13.030  0.0984  0.1035 -0.2612
12208W        W27339  12.273  16.026  14.975 -0.1921 -0.0678  0.1141
12209W        W27340   5.126   0.565   2.782 -0.0157 -0.2092 -0.0362
12210W        W27341   6.815  12.276  14.368 -0.0769 -0.1415  0.1795
12211W        W27342   3.103  15.074  14.233  0.0111 -0.0352  0.3198
12212W        W27343   1.994  12.522   4.652 -0.1328 -0.1819 -0.1220
12213W        W27344   7.574  16.833  11.471  0.1181  0.1257 -0.0816
12214W        W27345  14.388   3.286  16.316 -0.1563  0.1278  0.0643
12215W        W27346  11.343   7.887  13.952 -0.0204  0.0046 -0.2145
12216W        W27347   3.227   8.456   2.937  0.1451 -0.0999 -0.2045
12217W        W27348   9.084  10.910  11.559  0.0030  0.0088 -0.1444
12218W        W27349  15.173  10.521  15.703  0.3036 -0.0558  0.0341
12219W        W27350  14.739  12.675   2.483  0.1531  0.3880  0.0187
12220W        W27351   8.517   2.474  12.015  0.0222 -0.0408  0.0046
12221W        W27352  16.155  10.790  12.521  0.0217  0.0971  0.0591
12222W        W27353   6.472   9.798  15.813 -0.0545 -0.0278 -0.1743
12223W        W27354   0.950   7.123  15.667  0.0157  0.0816  0.1645
12224W        W27355   3.906  13.589   0.850  0.0151 -0.3245  0.1106
12225W        W27356  17.356  13.035  16.726 -0.0014 -0.3231 -0.2638
12226W        W27357   2.686  12.715  13.516 -0.0267  0.1906 -0.2694
12227W        W27358   0.034   2.609   0.332  0.1485  0.2450 -0.2738
12228W        W27359   3.047  11.590   1.888  0.2512  0.0456 -0.0907
12229W        W27360  14.584  13.796  13.584 -0.2192  0.2972  0.3067
12230W        W27361   1.547  17.338  15.384  0.1250 -0.2828  0.1433
12231W        W27362  14.086   2.950  14.472  0.0639 -0.0651 -0.1060
12232W        W27363   0.113  14.480   2.718  0.2247 -0.3994 -0.2355
12233W        W27364   5.893  13.461   5.735 -0.0627  0.1587  0.1384
12234W        W27365   4.726   0.838  11.358 -0.0078 -0.0712  0.1393
12235W        W27366   3.753   5.045  14.445  0.3567 -0.1015  0.0433
12236W        W27367  14.713  15.308   2.210  0.0632  0.4371 -0.0736
12237W        W27368   0.134   1.077  11.740  0.1375  0.1148 -0.0424
12238W        W27369  16.427  17.265   4.994 -0.0684  0.1205  0.2894
12239W        W27370  11.443  13.854   4.854 -0.1398  0.0830  0.1677
12240W        W27371   7.524  16.534  15.473  0.1108  0.1578  0.0486
12241W        W27372   2.920   2.742  16.091 -0.0954  0.0884 -0.1226
12242W        W27373  11.085  10.743  12.178 -0.2966 -0.0659 -0.1648
12243W        W27374   4.232  13.334  11.742 -0.0477 -0.2450  0.0284
12244W        W27375  14.650   0.919   1.654 -0.0362  0.1986  0.0237
12245W        W27376   2.577   8.516   5.269  0.0002  0.2640  0.4656
12246W        W27377   3.234   8.988   1.645 -0.0563  0.0223 -0.1786
12247W        W27378  15.327   0.086  12.883 -0.0632 -0.0661  0.4049
12248W        W27379  12.367  13.385  13.407  0.0290 -0.0646 -0.1141
12249W        W27380  16.368  13.043   4.532 -0.0763 -0.2843 -0.2045
12250W        W27381   5.714  15.383   0.311  0.0211 -0.0527 -0.0384
12251W        W27382   9.085  14.816   3.059  0.1025 -0.0869 -0.2875
12252W        W27383  12.770  13.190  16.073 -0.1760  0.0773  0.1022
12253W        W27384   9.652   8.841   6.457 -0.0824  0.2534  0.0277
12254W        W27385  15.807   3.494  16.583  0.1981 -0.0421  0.1582
12255W        W27386  10.672  13.609   0.427 -0.1774 -0.0696  0.0284
12256W        W27387  10.142   8.414   2.724 -0.0001  0.1966 -0.0159
12257W        W27388   0.138  11.820  14.918  0.2069 -0.0706  0.2391
12258W        W27389  11.343  17.618  14.983 -0.2562  0.2008 -0.0468
12259W        W27390  10.227   4.477  12.344  0.2246 -0.0391 -0.1184
12260W        W27391   3.593  16.947  12.827  0.2720 -0.0100 -0.0773
12261W        W27392  10.511  10.489   5.495 -0.0005  0.1008 -0.0343
12262W        W27393   9.015   8.163   2.095 -0.2318 -0.5079  0.0126
12263W        W27394   9.484   9.640  15.442  0.2090  0.1350  0.0791
12264W        W27395   7.224  12.049  14.090 -0.1483 -0.0127  0.0199
12265W        W27396   7.145  10.633   1.330  0.2231  0.0358  0.1941
12266W        W27397   8.669   1.307  15.852 -0.0573 -0.0501 -0.3461
12267W        W27398   2.535  10.697  14.358  0.3009  0.0164  0.1307
12268W        W27399  12.699   0.483   2.975  0.0064 -0.0076 -0.3138
12269W        W27400  14.152   3.382  11.125 -0.4317 -0.1744  0.1283
12270W        W27401   0.798  13.537   1.759  0.1529  0.0768  0.3735
12271W        W27402  17.547  17.518   2.714  0.0080  0.2222  0.1878
12272W        W27403  10.100   7.915  16.745 -0.1103 -0.1063 -0.1505
12273W        W27404   9.354   6.698  14.479 -0.0282 -0.1542  0.2120
12274W        W27405   4.853  17.020  13.061  0.0103 -0.0532 -0.2060
12275W        W27406   8.964   0.322  14.021  0.0000  0.0513  0.0988
12276W        W27407   6.959  15.142   4.207  0.0474  0.0275  0.1107
12277W        W27408  12.174  12.024   2.419  0.1394  0.2950 -0.2843
12278W        W27409   1.343  13.135   3.748  0.0827 -0.0406  0.1036
12279W        W27410   3.090  13.584  12.679  0.0676 -0.2592 -0.0357
12280W        W27411  12.497  10.333   0.430  0.1756 -0.0640  0.2197
12281W        W27412  15.290  10.715  13.094  0.3829 -0.2825 -0.3553
12282W        W27413   6.738   6.522  15.538 -0.2682 -0.0768 -0.0002
12283W        W27414  14.354  14.203  11.551  0.2141 -0.1857 -0.2034
12284W        W27415  17.487  13.508  15.288 -0.0372  0.1477  0.3007
12285W        W27416  16.709  16.476  15.109  0.2790  0.0488 -0.0526
12286W        W27417  11.744   2.785   1.003 -0.0367  0.0578  0.1989
12287W        W27418  15.566   3.994  13.526 -0.0265 -0.1168 -0.1053
12288W        W27419   9.713  15.707  11.219  0.0425  0.2620 -0.1147
12289W        W27420   2.554   9.319  15.393  0.4344  0.0194  0.0844
12290W        W27421   6.595   4.498   3.448 -0.0650 -0.0227 -0.1604
12291W        W27422  17.335   1.999  11.708  0.2114 -0.1489 -0.1427
12292W        W27423   1.887  12.333   1.806 -0.1065  0.2682  0.0619
12293W        W27424   3.509  14.294  15.976  0.5921  0.0243  0.1069
12294W        W27425   6.062  13.760   4.206  0.1059  0.1011  0.1496
12295W        W27426   2.810  12.029   5.084  0.0277 -0.2365  0.0636
12296W        W27427   9.620   0.034  14.419 -0.2403 -0.1620 -0.2614
12297W        W27428  10.313  13.533   2.664 -0.1037 -0.1773  0.1297
12298W        W27429   5.404   9.195  15.234 -0.1418 -0.2541  0.0736
12299W        W27430  17.395  10.028  12.955 -0.4001 -0.2479 -0.1051
12300W        W27431   5.089   5.603   2.016  0.0270 -0.1151 -0.2473
12301W        W27432  11.938  14.458  16.086 -0.1568 -0.1114 -0.5464
12302W        W27433  10.242   2.497   4.643  0.0698 -0.2005  0.1066
12303W        W27434   8.055   6.175   4.355 -0.1613 -0.0471  0.1225
12304W        W27435  10.855  12.646   1.467 -0.1217  0.4421 -0.1537
12305W        W27436  14.824   5.526   1.011 -0.1179 -0.0117  0.0014
12306W        W27437   9.018  13.389   5.927  0.0084  0.1236  0.2281
12307W        W27438   9.834   9.454   1.454 -0.1598 -0.2953  0.0904
12308W        W27439  12.026   5.653   4.098  0.0775  0.0174 -0.0718
12309W        W27440   1.457   1.478   1.193  0.1245  0.0806  0.3478
12310W        W27441   9.650   9.829  11.497  0.1405  0.0466 -0.1536
12311W        W27442  14.374   8.341  13.769  0.1313  0.0048 -0.2142
12312W        W27443   1.568  13.949   4.355 -0.0055 -0.2540 -0.1177
12313W        W27444  13.329   4.916  12.939 -0.1117 -0.0240 -0.2485
12314W        W27445  15.647   9.486  14.214  0.0040  0.0078 -0.0324
12315W        W27446  11.357   2.370   2.831 -0.1250 -0.1662 -0.1772
12316W        W27447   5.277   4.087  10.329 -0.2368  0.2672 -0.1088
12317W        W27448  15.479  10.458  13.464  0.0951 -0.0078 -0.2317
12318W        W27449   5.300   2.329  13.329 -0.1200  0.0050 -0.2105
12319W        W27450  14.471   9.141   2.461  0.0343 -0.5904  0.3163
12320W        W27451  17.537   6.181   3.174  0.1209  0.0800  0.2529
12321W        W27452  13.103   0.451  13.303  0.1790  0.2584 -0.2512
12322W        W27453   0.878  11.863  16.021 -0.2611 -0.0970  0.1578
12323W        W27454  15.515  15.148  15.281  0.1371  0.0039  0.0711
12324W        W27455   1.171   5.529  13.846 -0.0038 -0.1199 -0.1613
12325W        W27456   9.869  10.423  15.247 -0.0572  0.0298  0.1207
12326W        W27457   7.063  10.292   0.459 -0.2122  0.0377 -0.0147
12327W        W27458   9.896   3.985  15.266  0.2185  0.0173  0.3095
12328W        W27459  13.386   2.300   0.088 -0.1443  0.0869  0.3422
12329W        W27460   8.039   7.330   2.390 -0.0456  0.1755  0.1734
12330W        W27461   7.738  15.935   3.453 -0.2248  0.1912 -0.1164
12331W        W27462  14.865   8.098  15.287  0.3455 -0.1594 -0.1816
12332W        W27463   5.253  11.915   2.201  0.0844  0.3085  0.1527
12333W        W27464   9.987  14.769  12.009  0.1666  0.1131 -0.2065
12334W        W27465  17.799  11.581  15.956 -0.0268 -0.1179 -0.1469
12335W        W27466   8.812   6.040  14.536  0.0122 -0.0042 -0.1322
12336W        W27467   1.804   4.194  14.437 -0.3988  0.0494  0.2882
12337W        W27468   5.586  17.038  15.473  0.2068 -0.0949 -0.0191
12338W        W27469   5.378  16.927   3.005  0.2438 -0.2474  0.1481
12339W        W27470  11.646   7.551   1.266  0.3472 -0.2279  0.1998
12340W        W27471   3.320   9.409   0.616 -0.0208 -0.1257 -0.1272
12341W        W27472   6.938   8.482   0.003 -0.1064  0.2546 -0.0631
12342W        W27473   8.614   7.847  14.964 -0.0608  0.0428  0.0769
12343W        W27474   6.241   0.948   1.080  0.1984 -0.1684  0.0143
12344W        W27475  10.308  14.232   6.068  0.0226 -0.1335 -0.4968
12345W        W27476   4.003   3.640   0.983 -0.0597 -0.2402  0.0211
12346W        W27477   7.025  13.270  15.015  0.1336  0.0484  0.0633
12347W        W27478   1.227   6.967   5.438  0.0048 -0.3198 -0.1796
12348W        W27479  12.118  12.529   6.317 -0.1860 -0.0590 -0.4113
12349W        W27480  17.204  14.891  11.401 -0.0579  0.0677 -0.1582
12350W        W27481   5.705  15.495  12.167 -0.1068 -0.3492  0.1497
12351W        W27482   8.946   8.631   1.839  0.2332 -0.1711  0.3463
12352W        W27483   2.005   5.448  14.900 -0.0990 -0.2167 -0.2000
12353W        W27484   4.585  10.728  14.066 -0.2394 -0.0774  0.1165
12354W        W27485  14.893   1.572  15.406  0.0678  0.2442 -0.3505
12355W        W27486  10.749   5.626   1.162 -0.0132  0.2517  0.1364
12356W        W27487   3.196  13.970   3.701 -0.0100 -0.0895 -0.3356
12357W        W27488   0.972  10.282  16.259  0.0227  0.0930 -0.0362
12358W        W27489   2.688  13.391  15.623  0.4730  0.1601  0.1662
12359W        W27490   0.899  16.162  14.684  0.2714  0.2466 -0.0460
12360W        W27491   7.265  11.514  11.934 -0.0739 -0.3594 -0.2900
12361W        W27492   3.524   9.837   5.724  0.1165  0.0495  0.0018
12362W        W27493   1.661   0.759   6.016 -0.1597  0.0511  0.0834
12363W        W27494  15.628   8.653  14.688  0.2030  0.1990 -0.0556
12364W        W27495  14.375   1.371   1.390  0.0232 -0.0088  0.1503
12365W        W27496  16.812  10.683  11.353  0.0325 -0.0940 -0.0370
12366W        W27497   4.477   9.628   5.237  0.0547  0.1643  0.1027
12367W        W27498   9.765   8.569  12.131  0.0193 -0.2582  0.0100
12368W        W27499  14.343   3.992  14.823 -0.0485 -0.1044  0.0365
12369W        W27500  14.899   8.542   1.855  0.3506  0.1614 -0.5276
12370W        W27501   1.906   4.120   2.514  0.0747 -0.0536 -0.0573
12371W        W27502   5.326   9.300  11.540 -0.0591 -0.3239  0.2143
12372W        W27503   8.389  10.653   0.095 -0.1041  0.2660 -0.0549
12373W        W27504  14.069   2.337   4.401  0.2104  0.1421 -0.1603
12374W        W27505   5.998   4.914  16.748 -0.0011  0.3636 -0.0526
12375W        W27506   9.463  14.470   1.873 -0.0028 -0.3432 -0.1279
12376W        W27507  17.134   4.858  11.814  0.0797  0.2017 -0.0387
12377W        W27508   6.753   8.697   3.639 -0.2456  0.3739 -0.2313
12378W        W27509   9.463   9.780   1.173 -0.1665 -0.3837  0.0897
12379W        W27510  12.931  12.229   4.077 -0.2340 -0.0491 -0.1057
12380W        W27511   1.225   6.145   3.313 -0.0801 -0.1778 -0.1285
12381W        W27512  12.453   3.144  16.391  0.1080 -0.0396  0.0862
12382W        W27513   4.559   0.145   0.953 -0.1313  0.0538 -0.0879
12383W        W27514  15.509  17.523  15.161  0.1631 -0.0910  0.0754
12384W        W27515  16.487   5.841   4.944  0.1722 -0.2828 -0.2516
12385W        W27516  16.853   0.523  15.593 -0.2936  0.1704 -0.0803
12386W        W27517  15.002  15.495   4.233 -0.0636  0.2887 -0.0419
12387W        W27518   0.849   0.524   3.208 -0.1561 -0.1622 -0.4088
12388W        W27519   5.891  15.243   4.410  0.1810  0.0391  0.3453
12389W        W27520   8.545   1.008   1.797  0.3336 -0.1679  0.3086
12390W        W27521   4.226  10.343  13.903 -0.1099  0.0528 -0.0412
12391W        W27522   1.189   0.882   6.052 -0.0128  0.1631 -0.1584
12392W        W27523   1.584   8.691   0.598  0.1700  0.1655  0.2499
12393W        W27524  15.920  16.377   3.128 -0.0528  0.0384 -0.2199
12394W        W27525   2.323   4.605  13.634  0.1519 -0.0184 -0.0896
12395W        W27526  15.582  12.783   2.750  0.0702 -0.0435  0.1848
12396W        W27527   0.155   6.443  15.034 -0.1957 -0.3464 -0.2624
12397W        W27528  14.512  13.300  14.855 -0.0027  0.0519  0.1950
12398W        W27529  15.570  11.173   5.759 -0.0149 -0.4023 -0.2977
12399W        W27530   3.024  17.686   3.415  0.3085 -0.0742 -0.0783
12400W        W27531   4.205   8.536  14.156  0.0509 -0.1098  0.1147
12401W        W27532   3.369  16.021   1.219  0.2409  0.1997 -0.0528
12402W        W27533  13.877   7.544   1.956  0.0479 -0.2628  0.0056
12403W        W27534   7.641  11.464  14.363  0.0975  0.2311  0.0390
12404W        W27535  12.395  13.204  12.929 -0.2440  0.1815  0.0178
12405W        W27536   4.346   8.440  12.344 -0.0352  0.1775 -0.1572
12406W        W27537   5.765  17.165   4.327 -0.1506  0.1630  0.1216
12407W        W27538  14.523   9.209  15.237  0.1588  0.0309  0.1373
12408W        W27539   1.146   7.976   2.096  0.2418  0.2074 -0.1421
12409W        W27540   8.752  13.910  11.786 -0.3870  0.0586  0.0055
12410W        W27541  13.933  13.896  11.784 -0.0074 -0.1233 -0.2326
12411W        W27542  11.705   7.740  11.232  0.2649 -0.1312 -0.1390
12412W        W27543   3.373   4.163   1.633 -0.2251  0.1670 -0.1068
12413W        W27544  13.006   3.176   2.736 -0.1731 -0.0725  0.2873
12414W        W27545   1.487   3.517   0.052 -0.4426 -0.0621 -0.2725
12415W        W27546   4.972  10.972   3.842  0.1451 -0.0835  0.2131
12416W        W27547   1.235  15.693  13.947  0.2707 -0.0089  0.1865
12417W        W27548  13.914  15.769   2.252 -0.2344 -0.0491  0.0598
12418W        W27549   4.603   7.202  12.355 -0.2166  0.2568  0.1991
12419W        W27550   8.237   2.972   0.035 -0.0237 -0.1916  0.0189
12420W        W27551  15.237  13.506  11.391 -0.0677 -0.0368 -0.3274
12421W        W27552   3.324   4.102  11.294  0.1580 -0.2053 -0.1994
12422W        W27553   4.397  12.702  14.815  0.0213 -0.0819 -0.1092
12423W        W27554  12.102  10.645   3.591 -0.1886  0.2153  0.0998
12424W        W27555  15.178   4.848  14.431  0.0302  0.1029 -0.0201
12425W        W27556   6.287  12.631   1.249 -0.1404 -0.1022 -0.1491
12426W        W27557   6.443  13.333   4.061 -0.0664  0.1794 -0.0810
12427W        W27558  17.869   9.858  14.373 -0.3029 -0.2336 -0.0167
12428W        W27559   4.210   3.289   4.277  0.1622  0.2250 -0.1215
12429W        W27560   9.994  13.134  12.342  0.0853  0.0557  0.1056
12430W        W27561  10.409  14.594  12.172 -0.1205  0.0843 -0.3705
12431W        W27562   0.420   2.102   1.490  0.0405 -0.0631 -0.0167
12432W        W27563  12.747  10.735   0.104  0.4832  0.0782 -0.3347
12433W        W27564   6.880  13.952  12.328 -0.0460  0.2592 -0.0086
12434W        W27565  12.737   2.764   2.560  0.1235  0.1168  0.0994
12435W        W27566  12.799  11.141   2.128  0.0882  0.1974  0.1237
12436W        W27567   3.898   7.769   2.657 -0.1579  0.1903  0.0267
12437W        W27568  10.221   7.463  14.215 -0.1799  0.0299  0.0331
12438W        W27569   9.414  10.947   6.123  0.0460  0.2610 -0.0410
12439W        W27570   6.924  16.103  16.682  0.0144  0.2392  0.1492
12440W        W27571  12.394  12.717  15.250  0.1773  0.2171  0.1192
12441W        W27572  14.748  14.278  11.260  0.5068  0.0285  0.1843
12442W        W27573  11.353   2.725   1.931 -0.1941  0.2473  0.0164
12443W        W27574   1.360   7.968   0.275  0.1113  0.0817 -0.1338
12444W        W27575  12.698   1.191  14.401  0.0302  0.3112 -0.1282
12445W        W27576  15.103  15.471  11.583 -0.1006 -0.2062 -0.2941
12446W        W27577   2.587   6.203  16.073 -0.1553 -0.0210 -0.0796
12447W        W27578  13.214   7.237  11.105  0.0393  0.0637 -0.0410
12448W        W27579   9.848   0.384   4.019  0.1236 -0.2346 -0.1166
12449W        W27580   5.125  16.822  15.386 -0.4941  0.0798  0.0101
12450W        W27581   2.909   1.372  15.729 -0.0371  0.1157 -0.0044
12451W        W27582  13.947   1.457  11.286  0.0785  0.0729 -0.0876
12452W        W27583  16.749   6.560   4.252 -0.1973  0.0786 -0.1083
12453W        W27584  11.502   6.674   3.242 -0.1652 -0.4294  0.3181
12454W        W27585  14.769  15.159  15.820  0.0496 -0.3452  0.0080
12455W        W27586   4.376  12.597   3.057 -0.0537  0.0399  0.1835
12456W        W27587  13.672   8.397  11.526 -0.0831 -0.2369 -0.1565
12457W        W27588  13.951   8.160   1.684  0.0885  0.1269 -0.1601
12458W        W27589   2.202   9.760   1.379  0.1181 -0.0319  0.0298
12459W        W27590   3.243  12.938  15.501  0.2628  0.0544  0.1001
12460W        W27591  11.841   0.322   0.994 -0.0125 -0.0180 -0.2041
12461W        W27592   4.858  17.318   5.342  0.0646 -0.0161 -0.2734
12462W        W27593   8.979   7.653   5.052  0.2485  0.0056  0.1619
12463W        W27594  12.736   0.331  16.072 -0.0481 -0.1274 -0.1345
12464W        W27595   3.300  16.682  11.487 -0.2183 -0.0834  0.1349
12465W        W27596   6.074  11.541  15.516  0.0322  0.1030  0.2446
12466W        W27597   2.757   8.347  15.433 -0.0197 -0.1449 -0.1552
12467W        W27598   1.824   0.656   5.290  0.1300 -0.2057  0.0012
12468W        W27599  16.148   8.623   1.767 -0.0707  0.0991  0.1864
12469W        W27600  11.728  10.197   2.740 -0.2111 -0.0923  0.1847
12470W        W27601  10.916   2.108   3.138  0.0056 -0.0035 -0.0799
12471W        W27602  16.205  14.784   3.158  0.4160 -0.2104 -0.0253
12472W        W27603  15.874  10.237   4.709  0.0404  0.0240 -0.1192
12473W        W27604   4.044  14.053   4.744 -0.0803 -0.0387 -0.0573
12474W        W27605  11.287   6.886   5.110 -0.0730  0.1195  0.0055
12475W        W27606  12.380  16.837   4.075  0.0080 -0.2784 -0.2062
12476W        W27607  16.702   7.894   4.850  0.1674 -0.0949  0.0999
12477W        W27608   5.469   7.590   0.799 -0.0534  0.1178 -0.2784
12478W        W27609   5.835   2.421  12.466 -0.1088 -0.0966 -0.4260
12479W        W27610  14.898   2.394   5.110 -0.0939  0.4448 -0.0465
12480W        W27611  12.162  14.733  14.923  0.1726  0.0858  0.2139
12481W        W27612   7.375   4.318   2.973 -0.1417 -0.2958 -0.3130
12482W        W27613   2.893   8.789   4.876 -0.0303 -0.1673 -0.0316
12483W        W27614  10.671  10.448  12.216 -0.1486 -0.0548 -0.2368
12484W        W27615  11.196  12.066  13.530 -0.1135 -0.2503 -0.2998
12485W        W27616  13.668   2.912  16.164  0.0022 -0.1116 -0.1112
12486W        W27617   3.405   1.352  14.461  0.0001  0.4161 -0.1500
12487W        W27618   5.386   7.287   5.235  0.0236 -0.2099  0.2296
12488W        W27619   5.590   5.880  12.309  0.0056  0.4278 -0.0792
12489W        W27620   1.670  16.222   5.578 -0.0761 -0.2655  0.3514
12490W        W27621  10.777   9.075  13.549 -0.1160 -0.1664  0.2538
12491W        W27622   2.409   8.625  14.111  0.2060  0.4454  0.1629
12492W        W27623   7.951  14.303  14.904  0.1187  0.1173  0.3311
12493W        W27624  16.297   0.228   2.112 -0.0445  0.0341 -0.3562
12494W        W27625   6.068  12.967   4.807 -0.1424 -0.1903  0.0747
12495W        W27626  17.147  13.863  13.119 -0.1963  0.0018  0.0165
12496W        W27627   7.077   6.442  13.513 -0.2441 -0.1342  0.3655
12497W        W27628   5.062   1.788  12.715 -0.0793 -0.2695 -0.0176
12498W        W27629  10.553   0.631   2.578 -0.2275  0.2832  0.1342
12499W        W27630   1.722  16.170   1.967  0.1278 -0.0677 -0.1335
12500W        W27631  16.949  15.846  11.376 -0.0047 -0.0362 -0.2407
12501W        W27632  17.326   7.039  12.866 -0.0548 -0.0228 -0.2157
12502W        W27633  11.719   1.039  13.487  0.1365 -0.3351  0.4505
12503W        W27634   5.272  13.367  16.693  0.1903 -0.0101 -0.1190
12504W        W27635   3.631  16.772   6.143 -0.1252  0.0164  0.2640
12505W        W27636   3.744  17.850   1.500 -0.1775  0.1466 -0.1371
12506W        W27637  17.442  17.701   1.236 -0.1345 -0.2684  0.1827
12507W        W27638  13.402  14.761   6.265  0.0365 -0.1485  0.0396
12508W        W27639   7.533  12.601  16.019  0.0989 -0.1753 -0.1042
12509W        W27640   0.088   5.985   1.515  0.0447  0.0468  0.1048
12510W        W27641  14.640  11.380  16.541 -0.6399 -0.4219  0.1741
12511W        W27642   8.925   0.762   1.263 -0.3131 -0.1299 -0.1151
12512W        W27643  17.076   1.798   0.815 -0.2299  0.0958  0.3808
12513W        W27644   9.247   2.346  11.745  0.1049 -0.1022  0.2080
12514W        W27645  12.046  13.156  11.673 -0.0759  0.1972  0.0069
12515W        W27646   7.651   7.650  15.145 -0.1559  0.0020 -0.1252
12516W        W27647   8.804  15.467  13.577 -0.0911 -0.1230 -0.0648
12517W        W27648   3.716  10.369   3.225 -0.0549  0.0577  0.2384
12518W        W27649   6.361   4.579   2.558  0.0269 -0.2536 -0.3758
12519W        W27650   0.465   2.698   3.498 -0.0604  0.0443  0.1602
12520W        W27651  16.072   4.030  15.815  0.0975  0.4004 -0.4612
12521W        W27652  17.250  14.553  16.578  0.1671  0.2191 -0.0147
12522W        W27653   2.506   1.812  16.652 -0.1853  0.2277 -0.1065
12523W        W27654  15.761  14.439   4.915 -0.0850 -0.0794  0.0606
12524W        W27655   7.632  14.009  11.947 -0.1961 -0.1942 -0.0367
12525W        W27656   7.967   1.323  15.041 -0.0814  0.1267 -0.0719
12526W        W27657   1.959   9.230   1.217  0.1147  0.3434 -0.2236
12527W        W27658  13.002  17.532   1.424 -0.1588  0.0762  0.2273
12528W        W27659   8.419   1.798  15.132  0.2928 -0.1054  0.0915
12529W        W27660  13.614  12.031  13.741 -0.1173 -0.2188  0.0859
12530W        W27661   0.911  10.867   0.612  0.1525  0.2623 -0.2410
12531W        W27662   9.252  14.193  13.587 -0.2757 -0.1403  0.0006
12532W        W27663   7.125  10.200   2.186  0.3074 -0.0257 -0.1163
12533W        W27664  14.091  11.006   1.590  0.4646 -0.1027 -0.0772
12534W        W27665   9.381   9.828  13.352  0.2041  0.2239 -0.0096
12535W        W27666  14.724  12.380   1.255 -0.2163 -0.1046 -0.3447
12536W        W27667  12.908   6.059  12.014  0.1212 -0.2017 -0.0465
12537W        W27668   3.904   8.886  14.894 -0.0789 -0.1338  0.1178
12538W        W27669   6.267   9.444  14.583 -0.0688  0.0877  0.0341
12539W        W27670   0.052  11.352  12.374  0.0435 -0.1034  0.1417
12540W        W27671   7.311   7.722   3.312 -0.3783  0.0542  0.2315
12541W        W27672  12.897   6.066  15.495  0.2035 -0.1730 -0.1602
12542W        W27673  17.305  15.605   2.981 -0.0946  0.2708  0.1477
12543W        W27674   1.474   8.393  16.332  0.2944  0.0420  0.2745
12544W        W27675   5.329  13.282  12.764 -0.0528 -0.4166  0.0206
12545W        W27676   3.225  16.156   2.638 -0.0242 -0.0665  0.1448
12546W        W27677   4.073   6.592   3.090  0.0847 -0.2534  0.0339
12547W        W27678   5.072   2.573   5.849  0.1793  0.0045  0.0507
12548W        W27679  15.627   7.570  10.482 -0.2215  0.0960  0.1895
12549W        W27680   4.370   3.612  12.149  0.0175  0.2198  0.1709
12550W        W27681   8.372   9.964  12.486 -0.2429  0.0882  0.0269
12551W        W27682  10.863  10.835   5.504 -0.0776 -0.1069  0.0397
12552W        W27683   9.564   0.315   4.724  0.0712  0.2699 -0.2283
12553W        W27684  14.655   9.709   3.413 -0.0008 -0.0634 -0.1248
12554W        W27685   7.368   4.756   2.703 -0.0469  0.2754  0.0756
12555W        W27686   0.458   5.175  12.527  0.1080 -0.0884 -0.0635
12556W        W27687  12.387   3.130   3.557 -0.0796  0.2911 -0.2021
12557W        W27688   2.923   4.348  12.378  0.1259  0.0894  0.0905
12558W        W27689  16.583   7.685   5.815 -0.2102 -0.0699  0.1933
12559W        W27690  13.778   8.955   2.773  0.0284  0.1421  0.1822
12560W        W27691  13.898  17.595  13.261  0.0469 -0.2636  0.0646
12561W        W27692  16.006   9.147   0.011 -0.2825 -0.0891 -0.0983
12562W        W27693   3.255   3.852  12.118 -0.0227 -0.1822  0.0990
12563W        W27694   3.374  16.391   0.259  0.2742 -0.1300 -0.1153
12564W        W27695  15.028  14.527  11.572  0.1353 -0.1438 -0.0411
12565W        W27696  10.486  13.051  12.222  0.3185 -0.2825  0.1056
12566W        W27697   8.368  12.171  15.165  0.1017  0.0494  0.1899
12567W        W27698  12.613   6.152   1.359 -0.2340 -0.2020  0.0090
12568W        W27699   1.143   2.091   1.928 -0.1976  0.0326 -0.0525
12569W        W27700   4.947   2.784   2.433  0.1612  0.0024 -0.0105
12570W        W27701  10.084  15.170  13.679 -0.2422  0.0209 -0.1154
12571W        W27702   5.119  16.591  12.015 -0.0061  0.3797 -0.0460
12572W        W27703  17.502  16.648   4.223 -0.1408 -0.0731  0.2540
12573W        W27704   9.206   1.866   3.033  0.1354  0.4167  0.0366
12574W        W27705  16.506   9.558  13.994 -0.0756 -0.1199 -0.2880
12575W        W27706   4.800  15.776   4.937 -0.0433 -0.2213 -0.1775
12576W        W27707   8.762   7.073   1.128 -0.0135 -0.2277  0.2170
12577W        W27708   4.507   8.929   2.667 -0.2026 -0.0309  0.1085
12578W        W27709   5.792   9.701  14.700  0.0984  0.0878  0.1097
12579W        W27710  16.916  11.260   2.610 -0.1674  0.0715  0.0829
12580W        W27711  13.174   5.799  14.104  0.1092 -0.1491  0.1594
12581W        W27712  17.371   4.841  12.489 -0.0252  0.2361  0.0974
12582W        W27713  11.172  11.632   1.445 -0.2541  0.3285 -0.2510
12583W        W27714  11.238   0.706  14.561  0.0233 -0.1771  0.1372
12584W        W27715   0.964  13.265  14.935 -0.2150 -0.1453  0.3602
12585W        W27716  15.514   1.885  11.876  0.1945  0.0795  0.4789
12586W        W27717  12.984   2.560   0.365 -0.2449  0.1315  0.0700
12587W        W27718   6.584  16.604  12.842  0.0822  0.1586  0.1001
12588W        W27719   8.391  10.825   2.235 -0.0008  0.1430 -0.0827
12589W        W27720  10.628  12.296  14.868 -0.0847 -0.0512  0.1507
12590W        W27721  16.188   5.001   3.339  0.1653 -0.0868 -0.3219
12591W        W27722  13.511   1.551   2.626  0.0199 -0.1431  0.0077
12592W        W27723   9.891  14.496  15.992 -0.1657  0.2397 -0.0091
12593W        W27724   5.538  14.358  15.553  0.2432  0.0064 -0.1315
12594W        W27725  10.376  16.797  11.323 -0.1144 -0.1067  0.0255
12595W        W27726   0.939   8.431   0.922  0.1742 -0.1438 -0.0166
12596W        W27727   8.044   4.591  12.886  0.0426 -0.1049 -0.1697
12597W        W27728   1.416   4.377   1.116 -0.2089  0.1061 -0.0751
12598W        W27729   9.336   1.101  15.749  0.2236 -0.0776 -0.3529
12599W        W27730   1.919  11.013  13.533 -0.0861 -0.0537 -0.0234
12600W        W27731   6.358   5.679   1.066  0.2370 -0.0602  0.2708
12601W        W27732   6.024   2.554   1.739  0.0733 -0.2926 -0.0951
12602W        W27733   5.992  16.550  13.008 -0.0211  0.1128  0.2375
12603W        W27734   0.308   5.668  13.861 -0.4406  0.0798 -0.1586
12604W        W27735   5.098   1.245  14.856 -0.0087 -0.1731  0.0515
12605W        W27736  15.595  15.037  15.809  0.1098  0.2111  0.1394
12606W        W27737   0.809  12.431   5.305 -0.3457  0.2902  0.2757
12607W        W27738   0.337   7.485   2.274 -0.1239  0.0555  0.2010
12608W        W27739  12.234  12.691  12.982 -0.0272  0.1675 -0.2463
12609W        W27740   0.589  14.245  11.944  0.2063 -0.0974 -0.0406
12610W        W27741   6.062  15.845   3.020  0.1702  0.2060 -0.1455
12611W        W27742   1.378  12.940  12.321 -0.0055 -0.0657 -0.1786
12612W        W27743  17.435  11.711   4.295 -0.3488  0.2089  0.1704
12613W        W27744   6.830  14.411   5.458  0.1756 -0.1850 -0.1349
12614W        W27745  14.692   4.503   0.056 -0.0454 -0.1524  0.1358
12615W        W27746   2.250   0.415   2.627  0.0788  0.0322 -0.0615
12616W        W27747  11.237   3.024   1.050 -0.0838 -0.1615 -0.2518
12617W        W27748  14.103   7.586  16.308 -0.2161 -0.1554  0.1690
12618W        W27749  13.482  10.687  12.549 -0.1101  0.1229 -0.0637
12619W        W27750   5.893   0.766   5.149 -0.1342 -0.2461  0.0762
12620W        W27751   6.314   9.114  15.118 -0.2356 -0.2761  0.4592
12621W        W27752  12.682   1.155   4.640 -0.1571 -0.0775 -0.4139
12622W        W27753  15.137   6.307   1.582  0.0496 -0.0070  0.1301
12623W        W27754  10.845   8.068   2.315 -0.1422 -0.0346  0.1219
12624W        W27755   7.203  12.302   1.000 -0.0756  0.2120  0.1183
12625W        W27756   4.013   7.398  11.260  0.0547 -0.1802  0.1428
12626W        W27757   0.633  11.153  16.295  0.0857  0.0940 -0.1482
12627W        W27758   4.363   6.037  15.834  0.2282  0.3166 -0.2052
12628W        W27759   4.498  16.004  12.256  0.1411  0.3367  0.3258
12629W        W27760  14.451  13.106   3.212 -0.1143  0.1431  0.0312
12630W        W27761  14.316   2.114  14.304 -0.3974 -0.0060 -0.1403
12631W        W27762   6.971   0.991  12.161 -0.1356 -0.1999  0.3518
12632W        W27763   9.837  13.758  12.470 -0.0864  0.0478  0.0577
12633W        W27764   3.522   6.126   2.094  0.0538  0.0846 -0.0910
12634W        W27765  14.353   0.948  16.344  0.2682 -0.1343  0.0773
12635W        W27766   3.127   5.355  12.642 -0.1781 -0.1163  0.1158
12636W        W27767   4.058   0.044  13.992 -0.2150  0.0962  0.0094
12637W        W27768   9.557   3.471   0.179  0.2452  0.0943 -0.1622
12638W        W27769   1.462   8.677   5.253  0.0850 -0.2957 -0.3214
12639W        W27770   9.440  17.051  14.480  0.0394  0.2361  0.0259
12640W        W27771   5.024   2.549  14.296 -0.1658  0.3328  0.2168
12641W        W27772  17.755  13.210  14.570 -0.0760 -0.2118 -0.0038
12642W        W27773  11.732   1.414  11.605  0.4611 -0.2881  0.4002
12643W        W27774  14.914   0.206  15.972  0.2464  0.1903 -0.2959
12644W        W27775   0.254   0.312   6.433  0.1889 -0.1767  0.2574
12645W        W27776   1.418   4.538   5.491 -0.0919  0.2362  0.2209
12646W        W27777   1.013   2.454  13.067  0.1173  0.0379 -0.0250
12647W        W27778   2.209   0.995   5.158  0.1536 -0.3899  0.1743
12648W        W27779   2.019   7.600  12.518  0.0699  0.0257 -0.0454
12649W        W27780   0.045   3.678  13.665  0.3446  0.1728 -0.0119
12650W        W27781   4.556   3.608   3.303 -0.2139  0.0674  0.0099
12651W        W27782   8.043   8.236  16.243 -0.1752  0.0110  0.0022
12652W        W27783   5.502  16.471   4.832  0.0029  0.0105 -0.0652
12653W        W27784  15.906   5.002  12.645 -0.1569 -0.0510 -0.1045
12654W        W27785   1.229  15.077   1.177 -0.3963  0.2371  0.0595
12655W        W27786  14.632   2.684   2.854 -0.1992 -0.0350  0.1238
12656W        W27787  12.401   4.867   1.160 -0.2699  0.0715 -0.1168
12657W        W27788   4.288  15.509  14.681 -0.0752  0.0679  0.2729
12658W        W27789   5.282   0.411  13.053  0.0737 -0.1069  0.2759
12659W        W27790   9.177  11.094  12.623 -0.0195  0.1449 -0.3121
12660W        W27791   3.344   6.620  11.597 -0.3048 -0.2018 -0.1208
12661W        W27792  11.750   7.474  13.189  0.1568 -0.0904  0.1011
12662W        W27793  14.316   1.657   2.157  0.0896 -0.0611  0.0915
12663W        W27794  17.686  11.220   4.326  0.3245 -0.0784  0.1232
12664W        W27795   0.650   4.483  12.032  0.0911 -0.0601  0.2448
12665W        W27796   6.640   2.145   2.464  0.1801 -0.0056  0.1024
12666W        W27797   5.949   0.871   2.757  0.3217  0.0537 -0.1156
12667W        W27798   9.375  10.045  14.216 -0.0736 -0.2665  0.0873
12668W        W27799   5.912   5.545  16.266  0.0429  0.0373  0.2304
12669W        W27800   3.785  11.855   0.782 -0.1348 -0.0992  0.1346
12670W        W27801   6.084   4.792   5.292  0.2868 -0.0409  0.2355
12671W        W27802  12.406  17.598   3.519  0.1736  0.0338  0.2101
12672W        W27803  13.186  14.800  14.167  0.0336 -0.1573 -0.0403
12673W        W27804  12.348   4.901  11.255  0.1007  0.1362  0.1379
12674W        W27805  12.381   9.784   3.840 -0.0149 -0.5080 -0.0301
12675W        W27806   6.820   0.042   2.291 -0.0711 -0.2652 -0.1114
12676W        W27807  16.660   9.385   0.585 -0.4229  0.0190 -0.1900
12677W        W27808   9.846   9.983   1.446 -0.1103  0.0275 -0.0127
12678W        W27809   0.159  11.075  11.332 -0.0243 -0.1137  0.0248
12679W        W27810   4.861   6.377   5.010  0.0107 -0.0113  0.1989
12680W        W27811   5.223  12.410  12.115  0.2428 -0.0567 -0.0367
12681W        W27812  17.112  17.119  11.980 -0.1428  0.0589  0.0259
12682W        W27813  10.945  14.140   1.524  0.1247  0.1590 -0.1940
12683W        W27814   4.320   4.193   1.631 -0.1678 -0.2810 -0.0177
12684W        W27815   3.386  16.860   4.296  0.1535  0.2959 -0.0132
12685W        W27816   1.861   5.988  16.644  0.0527 -0.4560 -0.0627
12686W        W27817  13.152   6.234  14.390  0.3088  0.1705  0.0576
12687W        W27818   0.124   5.206  13.825  0.0272  0.2916  0.0310
12688W        W27819   8.923   3.954  12.311 -0.0871  0.0203 -0.1213
12689W        W27820   5.378   7.722  12.484 -0.2233  0.0083  0.1975
12690W        W27821  17.289   2.579   4.530 -0.3191  0.1011  0.1312
12691W        W27822  10.078  17.836   0.803 -0.2452 -0.1547  0.1881
12692W        W27823   1.804  12.597  12.457 -0.1415 -0.2867 -0.2860
12693W        W27824  14.988  11.709   4.072 -0.2404 -0.1403  0.1660
12694W        W27825   9.204   3.792  14.345  0.0628  0.2292  0.1551
12695W        W27826  17.422   6.449  16.701  0.4679 -0.0522 -0.0103
12696W        W27827  14.963  17.032   0.120 -0.0644 -0.2774  0.1885
12697W        W27828  15.786   2.551   1.595  0.0442 -0.1160  0.0480
12698W        W27829  12.562  10.673   1.519  0.0956 -0.1395  0.0183
12699W        W27830   8.004  13.574  14.094 -0.1200  0.1172  0.2017
12700W        W27831  16.914  17.356   4.771  0.2911 -0.0140 -0.0042
12701W        W27832   4.558   5.968  16.394  0.1611 -0.2755 -0.1319
12702W        W27833  10.718   6.202  15.704  0.2158 -0.3649 -0.2386
12703W        W27834   3.722   0.875  14.227  0.3672 -0.2777 -0.2516
12704W        W27835   9.713  17.645   1.075  0.0087 -0.2444 -0.2468
12705W        W27836  16.424  12.284   0.803 -0.1578 -0.1507 -0.0780
12706W        W27837   9.197   8.598  13.321  0.0996  0.0243  0.1433
12707W        W27838  15.247   9.759   3.368 -0.1052 -0.2356  0.5078
12708W        W27839   2.945   6.556  10.186  0.0151  0.0074 -0.2079
12709W        W27840  12.657   4.421   1.358 -0.2893 -0.1315 -0.1060
12710W        W27841  10.183  11.896   3.083 -0.1834  0.1249 -0.3273
12711W        W27842   9.937  17.353  14.274  0.2941 -0.1855 -0.0049
12712W        W27843   2.110   4.921   2.185  0.0904  0.0110  0.0692
12713W        W27844   5.942   3.468  11.561 -0.0761  0.0368  0.0322
12714W        W27845  12.435   6.414   3.521  0.0040 -0.1809 -0.1519
12715W        W27846  11.786   1.027  15.223  0.1497 -0.1105  0.0120
12716W        W27847   1.727   3.930  14.988 -0.2736  0.1082 -0.1449
12717W        W27848  10.258   9.749  13.861 -0.4552 -0.2368 -0.1304
12718W        W27849  10.741  16.038  12.755 -0.2471 -0.0860 -0.1292
12719W        W27850   3.193  17.704  15.803  0.0090 -0.0345  0.0410
12720W        W27851   2.235   3.817   2.155  0.3243 -0.0881 -0.1928
12721W        W27852   2.415  16.697   0.386  0.5059 -0.0967 -0.3254
12722W        W27853   2.218   0.181   2.144 -0.2682  0.1151 -0.0240
12723W        W27854   6.617  16.128  13.069  0.4081 -0.0765 -0.2132
12724W        W27855   7.681  16.261  12.697 -0.1389 -0.1353  0.0125
12725W        W27856   2.761   9.785   3.964  0.0556 -0.0777  0.0339
12726W        W27857   1.276  14.445   0.269 -0.1456 -0.1895 -0.1737
12727W        W27858   3.585  16.713   1.544  0.0539 -0.2066 -0.2670
12728W        W27859  15.007   6.852   5.324  0.1677 -0.1389  0.3051
12729W        W27860   3.056   9.511   0.182 -0.1088 -0.0875  0.2863
12730W        W27861   0.572   6.400   0.905  0.1437 -0.0310  0.1941
12731W        W27862   7.700   0.333   3.314  0.0840  0.0329  0.2918
12732W        W27863  10.779  17.713  14.321  0.1565  0.3326 -0.1045
12733W        W27864  12.386   9.266  13.721  0.0106  0.0286  0.1165
12734W        W27865   0.668   7.550  11.827  0.2116 -0.1172  0.0713
12735W        W27866   9.596   0.910  16.131  0.0347  0.2400 -0.0627
12736W        W27867  12.200   9.159  15.631  0.1565 -0.0299  0.0406
12737W        W27868  14.357   6.099   5.105 -0.1186  0.1977 -0.1281
12738W        W27869  17.851  11.781  13.206 -0.0531  0.0414  0.1413
12739W        W27870   1.287  15.951   1.700 -0.1724  0.1015 -0.2346
12740W        W27871   5.952  16.049  16.380  0.2213 -0.0328 -0.5099
12741W        W27872   7.695  17.701   0.210  0.1391  0.0881 -0.1143
12742W        W27873   7.886  10.958   5.308 -0.3192  0.1074  0.0065
12743W        W27874  16.218  16.043  13.534 -0.2815  0.0366  0.1597
12744W        W27875   1.933   3.723  11.380 -0.2033 -0.1457 -0.1885
12745W        W27876  10.046  16.547   0.466 -0.0139 -0.1306 -0.1454
12746W        W27877   6.615   1.705  12.709  0.0227  0.3120  0.0099
12747W        W27878  15.785   4.809  15.176  0.1690  0.0464  0.0710
12748W        W27879   1.259   0.621   1.262  0.0993  0.1396  0.1527
12749W        W27880  12.620   7.437   0.861 -0.0004 -0.1417  0.0337
12750W        W27881  10.685   4.150   4.400 -0.3189  0.2282  0.1526
12751W        W27882  10.619   3.808   5.489  0.0048 -0.2478 -0.1927
12752W        W27883  13.562   4.802  11.939  0.1760  0.0857  0.1084
12753W        W27884  10.242   2.302  14.124  0.0365  0.1374  0.2544
12754W        W27885   0.172  17.690  12.066 -0.2227  0.0714  0.1663
12755W        W27886   5.915  12.591  15.386 -0.0444  0.1630 -0.1099
12756W        W27887   1.732  15.819   1.513  0.3332 -0.0657 -0.0927
12757W        W27888   3.852   7.787  16.769  0.1957  0.3733  0.1485
12758W        W27889   6.351  16.370  16.528 -0.2152  0.0095  0.0623
12759W        W27890  16.124  10.171  11.867  0.1001 -0.2354 -0.0344
12760W        W27891   7.023   3.544  10.517  0.1040 -0.0792  0.1748
12761W        W27892   7.599   4.521  13.479 -0.2480  0.1120 -0.1395
12762W        W27893   4.766  14.789  15.132  0.2015  0.0056  0.2160
12763W        W27894  15.875   3.383  14.050  0.1091  0.3794 -0.0263
12764W        W27895   8.882   3.275   0.853 -0.0396  0.0007 -0.2923
12765W        W27896   5.936   5.987  10.899 -0.1685  0.2053  0.0461
12766W        W27897   2.093  16.151   1.132  0.3753 -0.0814 -0.0113
12767W        W27898  13.708  16.243   1.453 -0.1334 -0.1563 -0.2368
12768W        W27899   6.323  11.998  14.865 -0.0220 -0.2533 -0.1531
12769W        W27900   7.704  11.283   1.318  0.1899 -0.2231 -0.2285
12770W        W27901   6.437   3.868  14.500 -0.0548  0.2313 -0.1262
12771W        W27902   6.280   7.523  11.431  0.3084 -0.0344  0.2804
12772W        W27903   9.821  11.820  14.741 -0.2778  0.1678  0.0383
12773W        W27904   5.072   8.795   5.109  0.2533 -0.3096  0.1520
12774W        W27905   8.389  12.225  16.652  0.0545  0.1600 -0.1000
12775W        W27906  16.966   1.043   1.927 -0.2069 -0.1229 -0.0109
12776W        W27907   7.935   3.010  11.599 -0.0236  0.0824  0.0248
12777W        W27908   3.819   9.343  15.073  0.1126  0.0858 -0.1611
12778W        W27909   3.988  17.510   2.727 -0.1816  0.1750  0.0961
12779W        W27910  12.402  13.289  16.721  0.1374  0.1527  0.1065
12780W        W27911   4.463   9.241  13.176 -0.1746 -0.1336  0.0238
12781W        W27912   6.880  13.168  14.168  0.0979  0.1577  0.2059
12782W        W27913  15.173   4.098  13.867  0.1177 -0.1316  0.2402
12783W        W27914   2.389   6.629   0.136  0.2300  0.0347 -0.2598
12784W        W27915  10.541   2.070   1.034 -0.1631  0.3266 -0.2010
12785W        W27916  11.788   9.436   2.071  0.1189  0.0005  0.0745
12786W        W27917  11.142   5.369  11.131 -0.1849 -0.2302 -0.1145
12787W        W27918  12.808   0.150   5.310  0.0727 -0.1411 -0.0939
12788W        W27919   9.992   7.503  12.750  0.0798 -0.0583 -0.4246
12789W        W27920  12.627   3.308   4.595 -0.0646  0.1283 -0.1731
12790W        W27921   0.929  12.848   5.596 -0.0568  0.4946 -0.0077
12791W        W27922   3.401   3.039  14.995 -0.2813 -0.0138 -0.2416
12792W        W27923  11.493  13.737  10.994  0.1732  0.0565 -0.0739
12793W        W27924  12.257  14.859   3.167  0.0731 -0.4777  0.2392
12794W        W27925  17.758   4.530  16.738 -0.0236 -0.1372 -0.1332
12795W        W27926   9.022   6.277   4.259 -0.0778  0.1469 -0.3001
12796W        W27927  15.777   1.914   4.953 -0.0952 -0.1180  0.1135
12797W        W27928  16.101   4.144  12.678  0.2102  0.0812 -0.0423
12798W        W27929   1.873  15.368  16.135  0.0613 -0.2692 -0.1191
12799W        W27930  11.145   8.144   4.688 -0.1399 -0.2160  0.0360
12800W        W27931   2.175   1.701  14.416  0.1864  0.2012 -0.1209
12801W        W27932   8.612   7.508   4.732  0.0942 -0.1822  0.2320
12802W        W27933  12.518   9.138  16.679  0.0732 -0.1202  0.1897
12803W        W27934   1.631   2.574   4.234  0.1891  0.4262 -0.4850
12804W        W27935   4.354  17.624  14.387  0.3497 -0.0367 -0.0898
12805W        W27936   9.632  14.216  12.504 -0.3779  0.0698 -0.0124
12806W        W27937  10.492   3.742  13.497 -0.0826 -0.0435  0.2008
12807W        W27938  16.861   7.813  10.859 -0.0802  0.1966 -0.2353
12808W        W27939   8.512  17.367  14.948  0.1878 -0.0491 -0.0685
12809W        W27940   5.928  11.227  12.536  0.2248  0.1818  0.0485
12810W        W27941   9.473  11.158  11.818  0.0547 -0.0706  0.0468
12811W        W27942  11.880  12.440   4.468 -0.2026 -0.1862  0.1642
12812W        W27943  10.034  10.563   4.554 -0.4280 -0.3450 -0.4334
12813W        W27944   1.458   1.138  12.299 -0.0739  0.1357  0.0142
12814W        W27945  15.904   6.694  13.094 -0.0677 -0.1573  0.2501
12815W        W27946   9.104   0.222  13.517  0.2158 -0.1322 -0.2312
12816W        W27947  10.480  12.609  10.892  0.2307 -0.1689 -0.0435
12817W        W27948  15.672  10.327  15.943 -0.0729  0.0063  0.0575
12818W        W27949   2.283   9.609  11.232 -0.0945  0.4019 -0.0718
12819W        W27950  11.157   3.531   0.927 -0.1565  0.0939  0.2720
12820W        W27951   3.169   8.257  11.762 -0.2143  0.0498 -0.1342
12821W        W27952  13.163   8.372   2.256 -0.1410  0.1284  0.1364
12822W        W27953   8.161  12.771   0.035 -0.0775 -0.0287 -0.3778
12823W        W27954   1.605   9.027  11.345 -0.0746  0.0791 -0.1429
12824W        W27955  16.774  16.400   3.086 -0.0157  0.2880  0.2013
12825W        W27956   5.928  13.137  13.121 -0.3541 -0.1817 -0.0279
12826W        W27957  12.206   0.184   5.386  0.0835  0.0269 -0.0595
12827W        W27958   3.017   4.637  12.870 -0.1016  0.1926 -0.0560
12828W        W27959   0.543  12.155   0.728  0.0892  0.2258  0.1932
12829W        W27960   6.995  16.430   1.732 -0.1374 -0.5196  0.1400
12830W        W27961  13.503   3.028   5.421 -0.2187  0.0847  0.1557
12831W        W27962   2.835  12.955   2.333  0.0941  0.2946 -0.0481
12832W        W27963  10.443   8.031   2.627  0.0436  0.1672  0.2936
12833W        W27964   0.015   4.825   4.228 -0.1253 -0.0864 -0.3309
12834W        W27965   2.464  14.329   3.913  0.1507 -0.4114 -0.1569
12835W        W27966   8.275   1.583  15.973  0.0481 -0.2041  0.0262
12836W        W27967   1.700   5.522  12.224 -0.0185  0.1144 -0.1113
12837W        W27968   5.502   3.486  15.878  0.2691 -0.1285 -0.2024
12838W        W27969   4.698  11.566  14.220  0.0771 -0.0372 -0.0315
12839W        W27970  13.159   5.239  14.371  0.1697 -0.0368  0.0477
12840W        W27971  14.400   3.691   0.501  0.1264  0.0641  0.1492
12841W        W27972   4.629   8.819  12.896 -0.1237  0.1369 -0.1066
12842W        W27973   7.194   1.987   3.901  0.1071  0.1508  0.0175
12843W        W27974  15.346  14.118  11.630 -0.0974  0.1016  0.1007
12844W        W27975   4.354   0.716   3.648 -0.2811 -0.1485  0.0847
12845W        W27976  14.669   2.232  13.129  0.1653 -0.0808  0.0270
12846W        W27977   3.932  12.991   5.355  0.0699  0.2377 -0.1856
12847W        W27978  10.086   9.017   4.052  0.4104  0.0161  0.1419
12848W        W27979  17.522   7.867   5.410 -0.0451  0.3971 -0.1788
12849W        W27980  12.573  11.803   4.953  0.0428  0.1088  0.0996
12850W        W27981   2.370  13.867   4.680  0.1261  0.0296  0.2235
12851W        W27982   4.124  11.696  14.793  0.0795 -0.2007  0.1462
12852W        W27983  12.072  11.856  12.437 -0.1044 -0.2674 -0.3815
12853W        W27984   6.763  10.934   0.625  0.0853  0.0123 -0.1017
12854W        W27985   1.000  17.843   5.244 -0.1039 -0.1758  0.0752
12855W        W27986  17.267   1.520   0.425 -0.2106 -0.0741 -0.0278
12856W        W27987  12.547   2.333   4.817 -0.2939 -0.2934 -0.0075
12857W        W27988  14.394   6.532   5.497 -0.2556  0.1343 -0.3318
12858W        W27989   3.204   4.399  13.871  0.0695  0.0699  0.1174
12859W        W27990  14.857   0.232  12.071  0.2063 -0.0101 -0.0559
12860W        W27991   2.268   1.778  12.848 -0.0615 -0.0891  0.1502
12861W        W27992   3.670  15.087  16.488  0.2706 -0.0284  0.4069
12862W        W27993  14.080   5.139  11.220  0.0264 -0.1061 -0.0250
12863W        W27994  12.694   4.243  13.887 -0.0292 -0.1664  0.1402
12864W        W27995   4.553   0.082   5.661 -0.1490  0.0945 -0.0079
12865W        W27996  14.856   1.105  13.687 -0.1363  0.1708  0.1493
12866W        W27997  16.055  15.780   4.768  0.0433  0.3561 -0.0457
12867W        W27998   4.723   2.099  12.862 -0.1232  0.1783 -0.1118
12868W        W27999   6.061   9.518   4.181 -0.3240 -0.0969 -0.1107
12869W        W28000  16.894  15.916   5.775  0.1297  0.1021  0.0783
12870W        W28001   2.500  13.892  11.648  0.3835 -0.0223  0.6687
12871W        W28002   1.260  11.053  13.210 -0.0909  0.2273  0.1431
12872W        W28003  10.330   4.581   2.053 -0.0348 -0.2058  0.1721
12873W        W28004   8.697  10.141   2.940  0.0592 -0.1455 -0.0213
12874W        W28005  10.965   9.094   0.937  0.1321  0.1711 -0.4107
12875W        W28006  16.842   9.673  14.631  0.0285 -0.3211 -0.1910
12876W        W28007  17.421   7.426  13.615 -0.0695 -0.0270  0.2789
12877W        W28008   2.870   8.620   1.896  0.2367 -0.1213 -0.0722
12878W        W28009   9.337  14.024   4.966  0.1054  0.0642  0.0186
12879W        W28010   5.886   1.990   0.570  0.3499 -0.0664 -0.0716
12880W        W28011  15.151  15.830  16.549 -0.0614  0.0010 -0.0551
12881W        W28012   4.437   9.256   3.507  0.0540  0.1864 -0.1890
12882W        W28013  12.516  13.790  16.757 -0.0650  0.1799  0.0852
12883W        W28014  16.806   6.758  14.749  0.1843 -0.1848  0.0207
12884W        W28015   6.801  15.144   1.745  0.1141  0.0872  0.0804
12885W        W28016   0.436  15.446  15.608 -0.0698 -0.1066  0.2546
12886W        W28017  17.494   7.290   2.070 -0.3567 -0.0228  0.1058
12887W        W28018   5.786  12.288  15.787 -0.0873 -0.0476 -0.3878
12888W        W28019   7.315   0.446  12.885 -0.0729 -0.1351  0.1468
12889W        W28020   8.102   7.561   4.890  0.1183 -0.0505 -0.1914
12890W        W28021   2.661   0.887  13.972 -0.0463  0.2208 -0.3113
12891W        W28022  15.590   8.569   5.341 -0.0884  0.0374 -0.1029
12892W        W28023   9.466   5.871   5.995 -0.0540  0.2623 -0.0070
12893W        W28024  10.298   2.285  16.544 -0.1316 -0.2400  0.2098
12894W        W28025   9.433  16.222  16.371 -0.0211 -0.0257  0.0245
12895W        W28026   9.331   7.675  16.263 -0.2839 -0.1196 -0.0693
12896W        W28027   5.969   3.873   5.315  0.2777  0.2486  0.0548
12897W        W28028  12.492   8.974  12.235 -0.0995  0.3603 -0.1206
12898W        W28029   0.865  12.021  12.741 -0.3046  0.0252  0.3737
12899W        W28030   6.465   3.889   4.144  0.0351  0.0687  0.1476
12900W        W28031  17.749   8.648  14.677 -0.0017 -0.1774  0.1387
12901W        W28032  16.050   0.151   5.479 -0.2557 -0.0091  0.1267
12902W        W28033   3.492  17.592  15.271 -0.3418 -0.2042  0.0677
12903W        W28034  14.701   0.559   5.585  0.2849 -0.0548  0.1537
12904W        W28035   0.023  16.884   0.004  0.0141 -0.2529 -0.0954
12905W        W28036   9.106  11.320   3.846 -0.3574  0.1329  0.1080
12906W        W28037   7.233   7.884  14.883  0.1342  0.1373 -0.0290
12907W        W28038  11.347  15.793  16.642  0.2784 -0.0533 -0.0833
12908W        W28039  17.028   4.472  12.644  0.1091  0.0478  0.1296
12909W        W28040   5.798  16.889  11.250  0.0649 -0.0344 -0.1000
12910W        W28041   1.154  10.008   4.636  0.0433 -0.2084  0.1414
12911W        W28042   7.092   9.530  16.138 -0.0913 -0.2414 -0.1368
12912W        W28043  16.717  16.880   4.762 -0.0799 -0.2531  0.0095
12913W        W28044  13.885   9.178   0.246 -0.0052 -0.1128 -0.0327
12914W        W28045  17.206   7.823   0.421 -0.1452  0.0067  0.1315
12915W        W28046  17.802  10.879  14.017 -0.3350 -0.2268  0.0590
12916W        W28047   8.964   5.888   4.922  0.2003  0.4216  0.1584
12917W        W28048  13.308  15.724   2.145 -0.3535  0.2326  0.2286
12918W        W28049   8.236  15.013   6.282 -0.0441 -0.0793 -0.3060
12919W        W28050   7.023   3.351   2.886  0.1832 -0.0164  0.4512
12920W        W28051   5.195   4.514   3.830 -0.2239  0.0141 -0.0168
12921W        W28052   9.067   6.066  12.022  0.3553  0.1136  0.0167
12922W        W28053   8.229  16.512   0.860  0.0673  0.0015 -0.2294
12923W        W28054   7.030   3.751   2.501 -0.1311 -0.0769  0.2048
12924W        W28055   9.376  13.187   3.419  0.0189  0.0392 -0.2162
12925W        W28056   7.775   1.950  10.911  0.2309 -0.1151  0.0526
12926W        W28057  13.816  12.511   6.385  0.0462  0.1986  0.1738
12927W        W28058  12.421   7.292   5.644 -0.1538 -0.0707  0.3121
12928W        W28059   9.186   0.587  11.211 -0.1326  0.2178  0.1953
12929W        W28060   7.740  11.232  16.073  0.0801  0.1291  0.1036
12930W        W28061  12.312  15.557   2.988 -0.0716  0.0512 -0.0264
12931W        W28062  16.765   4.837   3.600  0.2566 -0.1804 -0.1919
12932W        W28063   6.647   8.405  12.865  0.0507 -0.0763  0.1573
12933W        W28064  12.045  13.123   2.367 -0.3648 -0.2485  0.0077
12934W        W28065  11.546   7.322  13.737  0.2980  0.0170 -0.0617
12935W        W28066   8.963  10.570  16.155 -0.1570 -0.0385 -0.0151
12936W        W28067   7.144   6.584   1.610 -0.1664 -0.0210  0.0451
12937W        W28068   0.942   8.530  12.051  0.1226 -0.1093 -0.2081
12938W        W28069  16.631  17.547   5.792  0.1074 -0.1184 -0.0845
12939W        W28070  12.276  11.725  13.981 -0.0644 -0.2419  0.0079
12940W        W28071   4.261   6.188   3.605 -0.2386 -0.5041  0.0190
12941W        W28072   5.251   6.844  14.054  0.2176 -0.1347 -0.0773
12942W        W28073   5.501   5.936   2.859 -0.0938 -0.1125  0.0002
12943W        W28074   4.949  11.489  15.183 -0.1119  0.1696 -0.0682
12944W        W28075  14.786  16.088  14.136  0.3038 -0.2360 -0.0049
12945W        W28076  14.269   6.201  10.980 -0.0312  0.2617 -0.1558
12946W        W28077   6.825   5.894  12.844 -0.1348  0.0381  0.0501
12947W        W28078  13.734   4.001   5.146  0.0553 -0.1113 -0.0728
12948W        W28079  10.281   4.930   0.720 -0.1444  0.1177 -0.2484
12949W        W28080   3.636   6.126   1.244  0.2249  0.1777  0.0709
12950W        W28081   6.425  14.914  10.751  0.0939  0.1456  0.1139
12951W        W28082  17.663  11.587  16.394 -0.4877 -0.3782  0.0349
12952W        W28083  14.917   0.946  11.710  0.1621  0.1673  0.3322
12953W        W28084  12.893  16.014  13.026  0.0317 -0.0739 -0.4694
12954W        W28085  13.741   2.970  15.625 -0.1005  0.2324 -0.0574
12955W        W28086  14.607  14.271   4.808 -0.3213 -0.0325 -0.0790
12956W        W28087   8.099   9.841   4.176  0.0182 -0.1234 -0.0576
12957W        W28088   1.179   4.403   3.306  0.2312 -0.3941 -0.0381
12958W        W28089  12.071  14.681   4.972 -0.2348 -0.1725  0.2407
12959W        W28090  11.165   1.592   4.471  0.2107  0.0368 -0.1746
12960W        W28091   9.922  14.347  16.765  0.0661 -0.2136  0.1800
12961W        W28092  14.858  17.058   0.973 -0.0753  0.3104  0.1311
12962W        W28093   4.149   0.114   4.531  0.1552  0.1867 -0.1117
12963W        W28094  16.785   3.825   3.570 -0.1477 -0.2894  0.1565
12964W        W28095   5.567   8.271  14.364  0.0095  0.0136 -0.0787
12965W        W28096   7.348   5.228   5.662 -0.2073  0.2134 -0.1333
12966W        W28097   3.947   2.461   4.829 -0.4825  0.3981 -0.0224
12967W        W28098  15.809  10.403  13.875  0.2681 -0.1020  0.0219
12968W        W28099   7.421  14.481   1.140  0.0173 -0.2435  0.1250
12969W        W28100   4.603   0.614   0.126 -0.0709  0.1990 -0.2032
12970W        W28101  16.438   1.355  11.564 -0.0728  0.0739  0.0456
12971W        W28102   7.820  12.905   5.037  0.1772  0.2309 -0.0020
12972W        W28103  15.891  17.333   5.083  0.2473  0.0906  0.1134
12973W        W28104  12.929  13.445   2.554 -0.1565 -0.0455 -0.1633
12974W        W28105   2.013   6.619  10.254  0.0387  0.2857 -0.0555
12975W        W28106  11.909   0.652   3.083  0.1911  0.2999 -0.0485
12976W        W28107   9.056   5.732  10.253  0.0455 -0.3402 -0.0107
12977W        W28108   6.394   3.889   1.193  0.2610 -0.0475 -0.0282
12978W        W28109  16.422   0.025  14.233  0.4272  0.0708 -0.1061
12979W        W28110   8.564  16.478   1.341 -0.1017  0.1667  0.3786
12980W        W28111   1.586   5.769   0.882  0.1030  0.0338  0.2717
12981W        W28112   4.437   4.645   4.692  0.1307  0.1017  0.1495
12982W        W28113  14.941  11.524  12.738 -0.1041 -0.0816  0.3038
12983W        W28114  16.300  16.381  16.110  0.0783 -0.1065  0.1760
12984W        W28115   8.962  17.787   3.669 -0.0478  0.0180 -0.1398
12985W        W28116   8.880  16.191   1.612 -0.1578 -0.0516 -0.0513
12986W        W28117  11.607   2.565   5.643  0.0134 -0.1872  0.3437
12987W        W28118   9.186   9.656  16.412 -0.1671 -0.0079 -0.0653
12988W        W28119   1.558  12.392  14.614 -0.1693 -0.4073 -0.0833
12989W        W28120  10.993  10.096   0.373 -0.1474 -0.2520 -0.3775
12990W        W28121  16.890  11.686   0.558 -0.3155  0.1246  0.0472
12991W        W28122  12.874  15.725   3.274 -0.1247 -0.2371  0.2032
12992W        W28123  15.158   1.076   1.141 -0.3251  0.0804  0.1127
12993W        W28124   6.720   4.506   0.452 -0.5028  0.2508 -0.1777
12994W        W28125  15.488  10.054   0.830  0.0114 -0.3101  0.1964
12995W        W28126   3.707  10.548   0.206 -0.0436 -0.1836  0.0284
12996W        W28127  16.583  10.700   4.268 -0.0288  0.2099 -0.0397
12997W        W28128   7.023  12.851  12.616 -0.0810  0.1680  0.2100
12998W        W28129  16.835   7.827  14.703 -0.0555  0.0340  0.1520
12999W        W28130   9.195   6.197  13.694 -0.2008 -0.1418  0.0280
13000W        W28131  13.169   1.817   3.564  0.1416  0.0260  0.0215
13001W        W28132  17.418   3.542  16.401  0.0835 -0.3352 -0.1621
13002W        W28133   5.440  14.668  12.392  0.1767  0.1063  0.5343
13003W        W28134   2.927  12.704  16.293  0.3534 -0.0717  0.0351
13004W        W28135   2.541   4.625  12.700  0.0583  0.2250 -0.0070
13005W        W28136  12.671   2.448   5.488 -0.0845 -0.0745 -0.0934
13006W        W28137  13.473   5.219   3.630  0.0390  0.3021 -0.3634
13007W        W28138  10.135   4.724  15.400 -0.0099  0.0877  0.4116
13008W        W28139  15.156  13.517   3.027  0.1237 -0.0778  0.1093
13009W        W28140  12.992   2.016  13.225 -0.0527  0.0427  0.1550
13010W        W28141   9.205   0.237   5.654 -0.1417 -0.2164  0.0577
13011W        W28142   5.532   5.354  12.007  0.1548 -0.1973 -0.1511
13012W        W28143   4.407   4.800   3.804 -0.0937  0.0291 -0.1230
13013W        W28144  14.947  15.597   3.617 -0.0895  0.1572  0.0697
13014W        W28145  12.659   1.780   3.512  0.3465  0.0885  0.0107
13015W        W28146   2.481  16.431  15.869  0.2031 -0.1672  0.0127
13016W        W28147   8.647   9.665   0.465 -0.0041  0.0293 -0.0954
13017W        W28148   3.780  11.939   1.329  0.0606  0.0445  0.0094
13018W        W28149   5.235  17.522  14.453  0.0918 -0.1861  0.1912
13019W        W28150   5.951   6.093  12.609  0.3827 -0.0858  0.0330
13020W        W28151   6.461  10.926  11.618  0.0121  0.3162 -0.0052
13021W        W28152   0.544   3.571  11.205  0.1381 -0.1923  0.0041
13022W        W28153   2.613   3.726   3.628 -0.1592 -0.4630 -0.1903
13023W        W28154  13.699  12.074   0.731  0.1733 -0.1585  0.0114
13024W        W28155   8.513   9.022  11.521  0.1840  0.0348  0.0555
13025W        W28156  13.024  14.034   6.548 -0.0164 -0.0281  0.0837
13026W        W28157   4.335  12.011  12.067  0.0218 -0.0844 -0.0862
13027W        W28158  14.927   1.496  12.914  0.0104  0.0719  0.0471
13028W        W28159  15.716  10.503  12.386  0.2583 -0.0443  0.0170
13029W        W28160   0.458  13.293   5.714 -0.2397  0.0163 -0.2644
13030W        W28161   5.933  16.646   4.558  0.1302 -0.1455 -0.0562
13031W        W28162   3.294   0.137  16.627 -0.2978  0.0541  0.2379
13032W        W28163   7.978   1.460   5.259 -0.1532 -0.0272  0.1215
13033W        W28164   5.892   6.338  16.574  0.0873 -0.3142  0.2590
13034W        W28165   8.987   4.290   5.260  0.1785 -0.0998 -0.4076
13035W        W28166   6.418   2.578   0.179 -0.0254 -0.0673  0.2316
13036W        W28167   4.110  16.172   0.855  0.0069  0.0874  0.2283
13037W        W28168   3.312   9.426  10.978 -0.0429 -0.1219 -0.0541
13038W        W28169   2.505  12.428   5.307  0.1773  0.0705 -0.3212
13039W        W28170  17.740   7.883  15.689  0.1120  0.2785  0.1044
13040W        W28171  11.087  16.896  10.510 -0.2278  0.0579 -0.0366
13041W        W28172   7.600   9.839  12.030  0.1597 -0.3734 -0.2659
13042W        W28173  11.853  12.452  13.353 -0.1500 -0.0631  0.0302
13043W        W28174  13.978   0.516  15.046 -0.0108  0.1189  0.0545
13044W        W28175  10.443   2.238   2.374  0.1396 -0.0969 -0.2495
13045W        W28176  15.336   6.339   5.368  0.2397 -0.1930  0.0473
13046W        W28177   1.796  10.890   0.826 -0.0665  0.0078  0.0253
13047W        W28178   4.561  14.031   1.924 -0.0819 -0.0344 -0.2422
13048W        W28179   3.139   8.985   2.698 -0.0116 -0.2851 -0.1999
13049W        W28180  17.087  16.923  13.318 -0.2986 -0.1391 -0.4454
13050W        W28181  10.385  12.310   0.023  0.1314 -0.0802  0.0821
13051W        W28182   9.378  12.187   4.340  0.0002  0.1784 -0.1654
13052W        W28183  14.825  11.189  14.363 -0.2835  0.0699 -0.1607
13053W        W28184   6.589   1.313  12.182  0.1885  0.1439  0.0291
13054W        W28185  14.090  13.788   4.351 -0.3319 -0.0050 -0.0795
13055W        W28186   0.320  14.776   0.680  0.1090  0.0630  0.1370
13056W        W28187   7.237   5.237   1.888 -0.0257  0.3210  0.0720
13057W        W28188   3.209   0.436  14.924  0.0546  0.3117 -0.0131
13058W        W28189  16.655   3.364   1.605  0.0631  0.3505  0.1204
13059W        W28190  12.779   8.693   5.241 -0.0015 -0.2362  0.1724
13060W        W28191   5.682   8.931   3.091  0.0422  0.2024  0.0716
13061W        W28192  14.072   2.462  14.687  0.2586 -0.1800  0.2741
13062W        W28193  15.058  17.794  12.496 -0.0080 -0.0267  0.0373
13063W        W28194  17.083  12.327   0.017 -0.1538 -0.1731 -0.0234
13064W        W28195  10.261   3.824  14.138  0.0236  0.0742  0.2553
13065W        W28196  14.143  12.545  13.152 -0.0736  0.0917  0.0434
13066W        W28197  17.582  11.288  14.847  0.0633 -0.1474  0.1946
13067W        W28198   7.543  14.365  15.581  0.1429 -0.0207 -0.2178
13068W        W28199  14.436  11.488   0.846  0.0135  0.0912  0.0626
13069W        W28200  12.152  13.833  12.268 -0.0992 -0.0452 -0.0030
13070W        W28201   1.627   3.693  11.841 -0.2003  0.1125  0.0810
13071W        W28202   3.540   9.573  14.705 -0.2386  0.3345  0.1668
13072W        W28203   1.066   3.663   0.382  0.0423  0.2531 -0.0138
13073W        W28204  12.122  10.168   3.513 -0.2707 -0.0416 -0.0007
13074W        W28205   9.285   2.476   4.242 -0.1194  0.0200 -0.2966
13075W        W28206   9.495  11.469   6.297  0.0430 -0.0764 -0.0790
13076W        W28207  12.222   5.788  11.210 -0.0970  0.0969 -0.1948
13077W        W28208  10.992   1.703   1.230  0.4160  0.0620  0.2327
13078W        W28209   8.817   5.451  16.266 -0.1156 -0.0653  0.3772
13079W        W28210  15.843   9.013  13.084 -0.0329  0.3098 -0.2708
13080W        W28211   0.287  11.779   5.993  0.1123 -0.0051 -0.0768
13081W        W28212  17.091   2.245  13.286 -0.0202 -0.0761  0.1479
13082W        W28213   3.197  11.742   5.248 -0.2738  0.4461 -0.0053
13083W        W28214  11.372   4.430  11.033  0.4783  0.0088 -0.0572
13084W        W28215   1.290   5.905  16.710  0.2707  0.0667  0.0023
13085W        W28216   8.393  14.177  11.585 -0.1142 -0.2477  0.1092
13086W        W28217   0.422   8.473   3.134  0.1867 -0.0522 -0.0059
13087W        W28218   7.979   2.074  12.759  0.2932 -0.0355  0.0299
13088W        W28219   1.729  15.707   3.310  0.3516 -0.2111  0.2330
13089W        W28220  13.819  12.989  10.342 -0.2288 -0.1528 -0.0613
13090W        W28221  10.916  17.219   0.869  0.0169  0.0592  0.2216
13091W        W28222   9.588  16.723  15.473  0.4880 -0.0584  0.1995
13092W        W28223   6.284  10.441  13.518 -0.1308  0.1234 -0.2143
13093W        W28224   1.393   8.041   4.786  0.0015  0.1576  0.0351
13094W        W28225   1.590  16.374  12.647 -0.0231  0.2547  0.0574
13095W        W28226  13.127  11.771  11.357  0.2111  0.2577  0.1296
13096W        W28227  13.697   2.621  16.637 -0.2575  0.2855  0.0873
13097W        W28228   8.953   0.893   0.578 -0.2449 -0.2206  0.0504
13098W        W28229  12.055   6.803   3.173  0.0525 -0.1310 -0.0904
13099W        W28230  10.837  12.610   0.098 -0.2474 -0.2268 -0.2119
13100W        W28231   6.345  15.330  15.922 -0.0282  0.1031 -0.2846
13101W        W28232   2.908  17.417   4.917 -0.2808 -0.0652 -0.0065
13102W        W28233  12.652  15.829   3.980  0.0650 -0.0195  0.1211
13103W        W28234  11.395   8.378  13.834  0.0993  0.2136 -0.2240
13104W        W28235  12.390  11.304   2.746 -0.0798  0.3519 -0.2135
13105W        W28236   0.748  13.012   1.659  0.1734  0.1745 -0.0291
13106W        W28237  10.989   8.642   3.366 -0.2533  0.1810 -0.0292
13107W        W28238  16.912   3.731   0.429 -0.3308 -0.0844 -0.0386
13108W        W28239   7.602  15.074   0.430  0.1221  0.0808 -0.4121
13109W        W28240   7.534  12.769  12.412 -0.1649 -0.3382  0.0426
13110W        W28241   8.710   3.366  13.107  0.1640  0.0000 -0.0666
13111W        W28242   0.805   7.528   2.052  0.3878  0.2750  0.1195
13112W        W28243  14.122  16.539   1.265  0.0694  0.0376  0.1778
13113W        W28244   8.104   4.736   5.690 -0.1310  0.0996 -0.1356
13114W        W28245  16.754   1.068   4.060  0.0472 -0.2232 -0.1682
13115W        W28246  13.521  14.906   4.755 -0.3666  0.2232 -0.0553
13116W        W28247  11.315   9.930  15.045 -0.0480  0.5294  0.0869
13117W        W28248   8.743   6.140  12.531  0.4926  0.1380 -0.1879
13118W        W28249   7.843   4.785  11.152 -0.1263  0.3329  0.3824
13119W        W28250  16.088  15.619  11.295 -0.1274  0.1059  0.0153
13120W        W28251   8.532   3.076  15.355 -0.3742 -0.0586 -0.1964
13121W        W28252   6.958   1.534   0.379  0.0131 -0.1345  0.1889
13122W        W28253  13.097  12.903  15.739 -0.3718 -0.0725  0.1850
13123W        W28254   2.637   8.871  13.703  0.1818  0.1778  0.0300
13124W        W28255   4.764   0.397  12.903  0.0974 -0.0061 -0.0460
13125W        W28256   1.057   0.194  12.366  0.1906  0.1329  0.1226
13126W        W28257   5.521  10.102  16.069 -0.2574 -0.0431 -0.0761
13127W        W28258   9.058  15.514  11.394 -0.0827  0.3134 -0.1504
13128W        W28259  10.657   7.134  16.608  0.0638 -0.1111  0.2280
13129W        W28260  15.205  14.429   1.119 -0.3098 -0.1078  0.2626
13130W        W28261   1.413   8.476   1.014  0.0796 -0.0703 -0.1075
13131W        W28262   7.256  14.066   3.128  0.1273  0.0974 -0.0677
13132W        W28263   9.473   2.770  16.297  0.0402 -0.4036  0.1782
13133W        W28264   1.944   0.247  12.990  0.1209  0.0450  0.3593
13134W        W28265   1.293   6.687  10.310  0.0979  0.1976  0.2530
13135W        W28266  10.346  13.443  12.531 -0.2939  0.0308 -0.0521
13136W        W28267  16.944  11.348   5.399  0.0938  0.0328  0.0966
13137W        W28268  11.104  14.390   1.958  0.3579  0.1181  0.3318
13138W        W28269   3.660  10.812  11.602 -0.1796  0.4206  0.1903
13139W        W28270  14.173  14.500   3.603  0.2480  0.1167 -0.1717
13140W        W28271   4.555   7.256   4.767  0.0073  0.0021 -0.0101
13141W        W28272   5.608   2.872  12.457  0.1114 -0.3131 -0.1663
13142W        W28273  16.456  13.331   1.624 -0.1934 -0.1154 -0.0922
13143W        W28274  15.395  16.289  11.774  0.2834 -0.2757 -0.0106
13144W        W28275   5.597   6.490   4.316 -0.1043 -0.0961 -0.0964
13145W        W28276  13.363   9.397  12.437 -0.2820 -0.0249 -0.2702
13146W        W28277  16.794   6.717   0.329 -0.0566  0.0583 -0.0732
13147W        W28278   1.531  13.611  15.480 -0.2397 -0.3010 -0.0571
13148W        W28279   7.178  11.193  12.343  0.1526 -0.0328  0.0226
13149W        W28280   0.468   4.630   0.004 -0.2316  0.2258  0.0042
13150W        W28281  11.467  13.911   4.349  0.0348 -0.1883  0.4309
13151W        W28282   1.716  11.247   1.754  0.0249 -0.1516  0.0176
13152W        W28283   3.342  14.963   0.200 -0.1484 -0.0690 -0.0860
13153W        W28284   9.187  12.124   5.498 -0.1536 -0.2272 -0.0776
13154W        W28285   4.000   5.815   1.460  0.3450  0.1176  0.5915
13155W        W28286   5.470  12.791  15.322 -0.0614  0.0734 -0.1902
13156W        W28287   3.005   0.409   5.369  0.0043  0.0693  0.3031
13157W        W28288  17.553   5.046   1.736 -0.3234  0.3399 -0.0364
13158W        W28289   3.915   5.415  12.112  0.2732 -0.1150  0.1319
13159W        W28290  14.660  17.664   5.361  0.0192  0.3073  0.2245
13160W        W28291  15.683  11.407  14.005  0.2544  0.3238  0.0748
13161W        W28292  16.673  10.314  11.858 -0.0565 -0.3369  0.2300
13162W        W28293  13.283   0.792   5.579  0.0733 -0.0689  0.0761
13163W        W28294  17.441  14.921  15.700 -0.1644  0.1124  0.3476
13164W        W28295   1.573  13.979   1.576  0.0442 -0.0513  0.2755
13165W        W28296  13.782   9.083   1.805  0.1387  0.1414  0.0128
13166W        W28297  17.130   1.534  15.571 -0.0971 -0.0243 -0.0432
13167W        W28298  10.372  10.938   5.330 -0.3301  0.1175 -0.0308
13168W        W28299  15.780   6.402   2.795  0.0722 -0.0279 -0.2942
13169W        W28300  11.312  10.066   5.109  0.0798  0.2235 -0.1251
13170W        W28301  10.157  17.839  12.266 -0.0772  0.0719 -0.1081
13171W        W28302  15.432  11.362   0.344 -0.0132  0.0515 -0.0648
13172W        W28303   6.258   0.282   0.250 -0.2172  0.1941 -0.0595
13173W        W28304  14.110   2.879  16.323 -0.1541  0.0826 -0.3529
13174W        W28305   2.938   7.459   4.647 -0.0071  0.3469 -0.2020
13175W        W28306  14.289   9.366   2.000 -0.3416  0.1211  0.4711
13176W        W28307   8.895  11.892  15.708 -0.1625  0.0185  0.0081
13177W        W28308   9.607   3.020   4.008 -0.0497 -0.2288  0.2967
13178W        W28309  12.587  17.236  14.657 -0.0988 -0.1245 -0.1007
13179W        W28310   5.077  14.376  11.845 -0.0511  0.0417 -0.0269
13180W        W28311  17.096  13.101  15.847  0.0134  0.0408 -0.0186
13181W        W28312   4.560  11.787  15.285  0.1861 -0.1551 -0.2026
13182W        W28313   6.431   0.239   1.011 -0.0234  0.2042 -0.2511
13183W        W28314   9.056   9.324  15.259  0.0763 -0.0209  0.0646
13184W        W28315   9.360   6.971   4.680 -0.1625 -0.0296  0.0971
13185W        W28316  17.447  11.984  12.995  0.1177 -0.0167 -0.0754
13186W        W28317  17.042   9.124  11.412  0.0718 -0.5239  0.1269
13187W        W28318  11.909   7.984   1.204 -0.0207 -0.0029  0.0999
13188W        W28319  14.170   3.971  16.318 -0.0488  0.1161  0.2330
13189W        W28320  12.059  11.683  11.928  0.2601  0.0431 -0.0546
13190W        W28321  13.032  16.291   2.271  0.2446  0.3472  0.2044
13191W        W28322   7.308   4.502  14.898 -0.1762 -0.1705 -0.1098
13192W        W28323   0.349  11.474   4.411  0.0887 -0.2350 -0.2216
13193W        W28324   9.217   6.065   1.277  0.0392 -0.1510  0.0684
13194W        W28325   4.701  10.826   1.858  0.0539  0.1310  0.1678
13195W        W28326  13.281  11.971  14.066  0.0685 -0.0788 -0.0188
13196W        W28327  10.784  12.004  13.307  0.1538 -0.0217 -0.0625
13197W        W28328   1.743   2.895  13.262 -0.0499  0.1066  0.1632
13198W        W28329  11.624  13.611   2.211  0.2873  0.1464  0.1326
13199W        W28330  13.140  11.138   5.250  0.3402 -0.0381 -0.0295
13200W        W28331  13.606   6.419  14.437 -0.2228  0.0487 -0.3051
13201W        W28332  10.128  11.991   5.835 -0.1853 -0.1290 -0.1236
13202W        W28333  16.948  16.010  16.667 -0.1743  0.2031  0.0425
13203W        W28334   3.706   6.890   5.266 -0.1576 -0.0684  0.1347
13204W        W28335  10.215   3.069   5.400  0.0120  0.2284 -0.0533
13205W        W28336  14.012   0.296   4.362 -0.1863 -0.2713  0.1951
13206W        W28337   4.297  11.639  12.473 -0.1046 -0.1111 -0.1007
13207W        W28338   8.094  17.685  12.799  0.2436 -0.4743 -0.0213
13208W        W28339   6.410   4.517  11.800  0.1133  0.1835  0.0466
13209W        W28340  13.875   1.891   4.360 -0.0989 -0.3508 -0.3609
13210W        W28341   2.639  14.913  16.191  0.0399  0.0782 -0.0134
13211W        W28342   3.886  10.758  13.711  0.1012 -0.2011  0.0164
13212W        W28343   5.789  12.101   1.741 -0.3593  0.0221 -0.0710
13213W        W28344   0.864  13.334   1.265 -0.1519 -0.1674 -0.1815
13214W        W28345   5.891  14.719  14.828  0.1953 -0.1802 -0.0715
13215W        W28346   1.559   1.514   6.860  0.0808  0.0480 -0.2387
13216W        W28347   1.761  16.602   2.347  0.1538  0.1298 -0.2059
13217W        W28348  10.003   8.073  12.031  0.2838 -0.0072  0.4752
13218W        W28349   2.298  12.767   4.038  0.0310  0.1478  0.2226
13219W        W28350   6.836  15.839   0.872 -0.0026 -0.2041 -0.1405
13220W        W28351   1.321   5.263  11.177 -0.0232 -0.1625 -0.1669
13221W        W28352   0.775  13.044   4.663  0.0794  0.2057  0.2511
13222W        W28353   6.721   9.202   0.829 -0.0236  0.0710  0.0492
13223W        W28354   7.878  13.176   3.016 -0.0562  0.2466 -0.1468
13224W        W28355   7.708  10.962  12.140  0.0461 -0.0629 -0.0691
13225W        W28356   7.252  10.715  15.313  0.0667 -0.1345 -0.0692
13226W        W28357   8.212   0.838   3.691 -0.0048 -0.0741  0.0071
13227W        W28358  15.434  14.557   0.665 -0.1925 -0.2444  0.0539
13228W        W28359  10.597  17.556  15.390 -0.0060  0.1150 -0.4388
13229W        W28360   9.865   3.812   5.176  0.0509 -0.3595  0.3675
13230W        W28361   7.416  10.659  13.157 -0.0379 -0.2987 -0.0847
13231W        W28362  12.102  12.721   3.689  0.3251 -0.2475  0.0800
13232W        W28363  16.344  14.063   3.280 -0.2874  0.1956 -0.0516
13233W        W28364  17.110   4.462   4.053  0.1469  0.2909  0.0288
13234W        W28365  14.424  14.934   4.804  0.3570  0.0084 -0.0098
13235W        W28366   8.354   0.784   2.638  0.2327 -0.0576  0.3280
13236W        W28367   5.311   0.395   5.762  0.2775  0.1589 -0.0985
13237W        W28368   5.626   1.985   3.013  0.3598  0.2582 -0.0837
13238W        W28369  11.384  11.084  16.639 -0.2053  0.0815  0.1114
13239W        W28370   7.443  17.782  16.442  0.0666  0.1095  0.0803
13240W        W28371  11.841  14.798  13.872  0.3403  0.1265  0.3602
13241W        W28372  13.758  11.285  16.501 -0.0838  0.3600 -0.3285
13242W        W28373  11.496  10.557  12.444  0.2187 -0.1621 -0.0918
13243W        W28374   8.593  13.255   2.335 -0.0551  0.1379 -0.3551
13244W        W28375   3.200   1.270  16.564 -0.1870 -0.0987 -0.2560
13245W        W28376   5.023  10.101   3.341  0.2213 -0.0522  0.0876
13246W        W28377   2.904  16.981  11.865  0.3621 -0.0513 -0.0875
13247W        W28378   3.576   0.644   4.037 -0.2796 -0.0275 -0.0155
13248W        W28379  10.072   7.715  13.550  0.1422 -0.1580 -0.0342
13249W        W28380   0.883  17.098  12.411  0.2960 -0.1035  0.2420
13250W        W28381   9.102   2.460   0.893  0.0920  0.0447  0.0168
13251W        W28382  17.280  15.756   5.452  0.1162 -0.0987  0.1305
13252W        W28383  11.112  11.687   3.413  0.0648  0.0853 -0.4155
13253W        W28384   4.915   8.612   4.616 -0.1044  0.1499  0.1085
13254W        W28385  12.787  16.256   1.559 -0.1499  0.0378 -0.0642
13255W        W28386  15.334   1.594   1.425 -0.0491 -0.3141  0.2894
13256W        W28387  12.708   3.700  13.790 -0.1602 -0.0507  0.0617
13257W        W28388   4.193  17.560   6.060 -0.1734 -0.0237 -0.0203
13258W        W28389   7.149   4.826  10.688 -0.0099  0.0012 -0.1234
13259W        W28390   9.534   1.825   5.066  0.1565 -0.2026 -0.3863
13260W        W28391  13.011  12.207  13.215  0.0581  0.5282 -0.1870
13261W        W28392   1.028  14.358   5.241 -0.1547  0.1543 -0.1171
13262W        W28393   0.772   9.673   4.884 -0.0758  0.0141  0.1912
13263W        W28394  15.618  13.010  13.178 -0.1284  0.0420  0.0519
13264W        W28395   5.772   3.551   3.088  0.2961  0.1758 -0.1588
13265W        W28396  13.527   9.552  12.914  0.1387 -0.1162  0.2294
13266W        W28397   7.512   1.453  13.791  0.0919 -0.2067  0.3120
13267W        W28398  12.847  16.094   2.913 -0.1374 -0.2176 -0.2693
13268W        W28399  12.329  15.580   2.499  0.2042  0.0457  0.0405
13269W        W28400  14.121  14.637   4.139 -0.1262  0.0485  0.3042
13270W        W28401  10.785  16.631  15.415  0.1765 -0.1121  0.2152
13271W        W28402   7.877   8.069   2.699  0.0858  0.1376  0.0678
13272W        W28403  10.414  16.381   5.001 -0.0487 -0.4323  0.0410
13273W        W28404   0.566   8.691  10.596  0.1322  0.1965 -0.1513
13274W        W28405  10.266  17.652   2.873  0.0318  0.0974 -0.0033
13275W        W28406   2.026   1.017  13.277  0.0881  0.0621 -0.1890
13276W        W28407   8.930  11.113   2.922  0.1012 -0.0706 -0.0389
13277W        W28408  15.859  17.290   1.270  0.3067 -0.0569  0.2466
13278W        W28409  12.714  12.070   2.427 -0.0872 -0.1266 -0.1612
13279W        W28410   1.436   8.197  14.782 -0.1616  0.4856  0.1319
13280W        W28411  12.090   9.914   0.788 -0.0599 -0.1045 -0.0754
13281W        W28412  14.628  16.352   3.603 -0.1296 -0.1733  0.2182
13282W        W28413   4.548   9.407   2.868 -0.1292 -0.2168 -0.1849
13283W        W28414  15.268   3.393  14.957  0.1079  0.1432  0.1422
13284W        W28415  12.741  17.694  16.172  0.0898 -0.2146 -0.1014
13285W        W28416   9.549   9.900  14.732 -0.0488 -0.1003 -0.0574
13286W        W28417  16.164   6.286   4.419 -0.1121 -0.0363  0.0245
13287W        W28418   5.344  15.252   6.388 -0.3263  0.1204  0.0997
13288W        W28419  17.553   9.391   2.049  0.0102  0.3473  0.1463
13289W        W28420  10.043   4.825   2.825 -0.0160  0.3790  0.2993
13290W        W28421   6.035  10.870  13.325  0.1258 -0.1176 -0.1711
13291W        W28422   0.223  12.531   0.716 -0.0146 -0.0035 -0.3265
13292W        W28423   3.119   9.591  14.216  0.0495  0.2081 -0.0677
13293W        W28424   9.957   5.121   0.321 -0.0676 -0.1918 -0.1233
13294W        W28425   4.163   4.614   1.925  0.0280 -0.1021 -0.1224
13295W        W28426   6.131  17.241   2.615  0.1271 -0.0889 -0.1044
13296W        W28427   0.286   3.553  12.754  0.1086  0.0653  0.1824
13297W        W28428  11.780   1.293  16.750 -0.0430  0.0102  0.0448
13298W        W28429  11.182  16.281   2.006  0.2630  0.2825  0.3552
13299W        W28430  13.229   6.627  15.685 -0.2316  0.0403 -0.1347
13300W        W28431  10.364   8.009   3.099  0.2233  0.0140 -0.1975
13301W        W28432   5.023   0.595  13.454  0.2207  0.2568  0.5232
13302W        W28433   4.048   5.194   5.195 -0.0562  0.0311  0.3325
13303W        W28434  14.240  14.473   2.328 -0.2346 -0.0313 -0.0140
13304W        W28435  10.864  11.248  12.394  0.2416  0.3600  0.0497
13305W        W28436  11.143  10.084   2.508  0.1201 -0.1041 -0.0238
13306W        W28437   1.993   7.291  11.229 -0.0486  0.3779  0.0737
13307W        W28438  15.518   3.219   5.132 -0.0907  0.3299 -0.0980
13308W        W28439   2.431  14.932  13.529 -0.3643 -0.1502  0.0459
13309W        W28440  15.408   3.190  11.941 -0.0990  0.2075  0.3762
13310W        W28441   7.720  11.898   6.323  0.1771 -0.0593  0.2294
13311W        W28442   9.687  15.807  12.520 -0.0106 -0.2854 -0.0458
13312W        W28443   8.266  17.111  13.898  0.0712 -0.3087  0.0016
13313W        W28444  17.654  17.245   5.223 -0.1107 -0.0317  0.1338
13314W        W28445   8.647   6.357  16.233  0.0542  0.1928  0.1575
13315W        W28446   7.657   2.671   1.224  0.1340 -0.0489 -0.1211
13316W        W28447  12.548   1.288   2.940 -0.2568  0.0683 -0.3117
13317W        W28448   4.071  13.069  14.729 -0.0067 -0.2629 -0.3532
13318W        W28449  11.109   5.007   2.474 -0.3643 -0.1465  0.0940
13319W        W28450   8.765   9.549   1.419 -0.0383  0.0526 -0.0913
13320W        W28451  12.169   0.699  11.209 -0.0376 -0.0672 -0.0349
13321W        W28452   5.410  16.209   2.082  0.0553 -0.0267 -0.2589
13322W        W28453   9.253  17.785   0.150  0.3518  0.3786 -0.1400
13323W        W28454  10.583  13.129   2.240 -0.1135  0.1175  0.0293
13324W        W28455  16.201   8.513  15.708  0.2365  0.1190 -0.2325
13325W        W28456   9.692   9.193   3.836  0.1293 -0.0690  0.1777
13326W        W28457  15.036   3.384  11.269 -0.2812 -0.0184 -0.0610
13327W        W28458   8.701  15.380  14.052  0.1667 -0.0692 -0.1094
13328W        W28459   6.670   6.359  11.756 -0.0548 -0.2416  0.0981
13329W        W28460   0.372  16.960   2.110 -0.2085 -0.1655  0.0572
13330W        W28461  14.596  10.076  13.626  0.0121  0.2850 -0.0239
13331W        W28462   2.283   1.330  12.039 -0.0300  0.1023  0.2004
13332W        W28463  10.610   7.786  12.167 -0.1873  0.2686 -0.0462
13333W        W28464   9.270   9.343   4.064 -0.0417 -0.3311  0.1536
13334W        W28465   6.176   6.625   5.217 -0.1959  0.0224  0.2131
13335W        W28466   3.377  10.707  14.577  0.0743 -0.1084 -0.0398
13336W        W28467  16.568   6.979   4.146  0.1634  0.1693  0.0108
13337W        W28468  17.725   1.747   1.649 -0.1202 -0.1307  0.0295
13338W        W28469  16.743  10.445   1.850 -0.2077  0.2119 -0.0924
13339W        W28470  15.065  12.821   4.968  0.2010  0.1322 -0.4001
13340W        W28471   7.915  13.493   1.037  0.0840 -0.0698 -0.1786
13341W        W28472  15.510   0.043  15.790  0.1833  0.1000  0.1073
13342W        W28473   1.550  14.713   1.561 -0.0280 -0.0891 -0.0476
13343W        W28474   5.486  15.120  16.124 -0.3601 -0.3156  0.2738
13344W        W28475   3.736  11.733   2.781 -0.0069 -0.3943  0.1144
13345W        W28476   4.380  11.843  12.913  0.2216  0.1764  0.1947
13346W        W28477   4.143  16.698   3.859  0.2028  0.1023  0.0924
13347W        W28478   0.860   3.218  16.756 -0.0860 -0.0115 -0.0344
13348W        W28479   1.955   4.588  11.392  0.0704  0.0410 -0.0255
13349W        W28480   0.413  16.659   1.198 -0.0157  0.0903 -0.5014
13350W        W28481  11.547   5.280   1.738 -0.2431 -0.1535 -0.1223
13351W        W28482   0.979   2.185  16.227 -0.0480 -0.2742  0.3457
13352W        W28483   5.866   9.620  11.422  0.0143 -0.0409  0.1475
13353W        W28484  13.263  14.912  15.149  0.1958 -0.0392 -0.2109
13354W        W28485   7.169  10.955   3.254  0.0013  0.0412 -0.0257
13355W        W28486  11.500   4.611  12.743  0.1315  0.0764  0.0338
13356W        W28487  13.807   6.891  15.172 -0.1334  0.0390 -0.3120
13357W        W28488  12.816  15.801  15.095 -0.0872 -0.1240  0.0575
13358W        W28489   3.450   8.011   1.759 -0.1256 -0.0801  0.1135
13359W        W28490   6.200   6.659  12.024  0.0928 -0.2860 -0.0638
13360W        W28491   8.126   8.301  12.081 -0.3374  0.2480 -0.1274
13361W        W28492  13.546  17.783  16.361  0.1580 -0.1039  0.2317
13362W        W28493   2.671   7.120   1.201 -0.0138 -0.2948 -0.2340
13363W        W28494   5.831  12.682   6.028 -0.1337  0.1009 -0.1565
13364W        W28495   1.397   2.738   2.008  0.1244  0.1903  0.0444
13365W        W28496   4.345  11.201   3.443 -0.0895  0.2188 -0.0585
13366W        W28497  13.029  14.451  15.238 -0.5020 -0.0901 -0.0156
13367W        W28498   2.822  14.376  14.309  0.2081  0.2260 -0.0344
13368W        W28499  16.535  15.188   0.928 -0.0136  0.2301  0.1369
13369W        W28500  14.172   5.456   3.427 -0.3948 -0.1151  0.1841
13370W        W28501   4.647  11.110  11.053  0.2914  0.3303 -0.2446
13371W        W28502   6.057   1.953  15.786 -0.2930 -0.0928  0.2323
13372W        W28503   6.834  15.654   4.339 -0.0207 -0.3916  0.2198
13373W        W28504  11.351   5.079  13.718  0.3967  0.0237 -0.0789
13374W        W28505  17.470   0.299  16.156  0.0667  0.0389 -0.3209
13375W        W28506  15.816  10.782  15.828  0.2959  0.0853 -0.6383
13376W        W28507   6.840   5.113  16.564 -0.0163 -0.3386 -0.1210
13377W        W28508   7.537   1.870  14.273 -0.1842  0.0289 -0.0780
13378W        W28509   9.591   4.732   3.996  0.0683 -0.0928  0.3670
13379W        W28510   8.292  17.277   1.999  0.1357 -0.0660 -0.4171
13380W        W28511   7.785   2.906  15.892  0.1810  0.2339 -0.0205
13381W        W28512  17.051  12.078   6.011 -0.5437  0.2623  0.0665
13382W        W28513   2.727  13.227  12.745  0.0285  0.0374 -0.1900
13383W        W28514  13.906   2.381   5.751 -0.2481 -0.0458 -0.1256
13384W        W28515   0.008   5.710   3.960  0.0699  0.1713  0.0729
13385W        W28516  12.723   1.578  13.459 -0.1875 -0.2432 -0.2149
13386W        W28517   2.399   3.360   2.819  0.1586 -0.3192 -0.0589
13387W        W28518   3.263  16.903   0.324  0.0851 -0.3579  0.0847
13388W        W28519   0.418   6.292  11.994  0.0496  0.0731 -0.1739
13389W        W28520  16.426  12.753  14.374  0.1865 -0.1422  0.1445
13390W        W28521   3.678   7.579  12.620  0.0499 -0.0975 -0.1445
13391W        W28522   1.436   3.872  14.132  0.0476  0.1412 -0.0897
13392W        W28523   6.724  13.388  13.684 -0.1804 -0.1805  0.0621
13393W        W28524   8.010  14.710   1.588 -0.1331 -0.0706  0.0786
13394W        W28525   5.159   6.668  16.104 -0.1323 -0.2976  0.2161
13395W        W28526  10.578   3.102   3.112  0.1057  0.1182  0.1720
13396W        W28527  13.092   5.529  11.270 -0.0684  0.0798 -0.3441
13397W        W28528  16.103   5.579  16.507 -0.0169 -0.0774 -0.0488
13398W        W28529  13.052  13.872   0.127  0.3103  0.0621  0.0972
13399W        W28530   0.310  12.586  11.639  0.1648 -0.1615  0.2142
13400W        W28531  16.420  13.398   2.133 -0.1100 -0.0144  0.2183
13401W        W28532  12.119   9.437   2.936  0.0749 -0.1484  0.3004
13402W        W28533  10.075  10.436  16.157 -0.2069  0.5304  0.0630
13403W        W28534   9.598  17.405  11.691  0.0680  0.3573 -0.1954
13404W        W28535  14.387  12.636  13.719 -0.0194 -0.2122  0.1358
13405W        W28536   5.673   9.566  16.145  0.1675  0.2107 -0.1595
13406W        W28537   8.836   3.424   2.814  0.1224 -0.1864 -0.3158
13407W        W28538   6.678   2.543  11.411 -0.3976  0.1023 -0.2596
13408W        W28539   2.509  15.620   2.198 -0.0591  0.1317 -0.1413
13409W        W28540   3.257   0.841  13.983 -0.1492  0.1621  0.0170
13410W        W28541  14.944  13.010   4.506  0.0221 -0.2731 -0.0415
13411W        W28542   5.018   0.470  11.646  0.2206 -0.3733  0.1307
13412W        W28543   7.620   3.305  15.476  0.1638  0.1567  0.1336
13413W        W28544  10.105   3.606  11.641 -0.1500  0.2135  0.1910
13414W        W28545  10.339   4.932  14.544 -0.0228 -0.2898 -0.0070
13415W        W28546  10.610  17.622  13.221  0.1664 -0.3440 -0.1365
13416W        W28547  17.081  12.762   6.084  0.0174 -0.1633  0.3248
13417W        W28548   3.310  11.858  14.431  0.2222  0.1079 -0.1273
13418W        W28549  10.700   0.906  12.245  0.1897 -0.1281 -0.1116
13419W        W28550  11.122   4.133  16.608 -0.0411 -0.0829  0.1442
13420W        W28551   6.783   7.683   5.381 -0.0107  0.1735  0.0300
13421W        W28552   8.236   9.321   4.252  0.3258  0.2121 -0.0910
13422W        W28553  10.959  15.261  12.107 -0.0916 -0.0897 -0.2512
13423W        W28554   5.759   7.750  16.545  0.1720 -0.1140  0.0055
13424W        W28555   2.722   2.269  15.965 -0.0008  0.1350  0.0108
13425W        W28556   6.377  13.254  11.871  0.0843 -0.2266  0.1240
13426W        W28557  11.392   3.746  15.972 -0.0280  0.1397 -0.1607
13427W        W28558   8.220   4.758   3.801  0.1852  0.0270  0.1356
13428W        W28559   5.660   2.205  15.664 -0.2363 -0.2746 -0.2358
13429W        W28560   9.986   4.008   3.366 -0.2883 -0.1628 -0.0027
13430W        W28561   9.701   5.757   4.213 -0.0530  0.1136  0.0283
13431W        W28562   3.714   2.364   5.629 -0.2669  0.1445 -0.0622
13432W        W28563   3.799   5.469   3.600  0.1432 -0.1679  0.0486
13433W        W28564  11.915  12.059   0.784 -0.2227  0.1428 -0.1277
13434W        W28565  12.252  10.584  15.922 -0.1100 -0.0428 -0.0988
13435W        W28566  14.629   1.581   1.798  0.0296 -0.1258  0.0337
13436W        W28567  17.167  13.401   5.558  0.1028 -0.1851 -0.0287
13437W        W28568   4.690   0.172  12.065 -0.1208 -0.0778  0.2351
13438W        W28569   9.125   5.515  10.729  0.1544 -0.1857  0.0002
13439W        W28570  13.076  12.974  16.563  0.3800 -0.1124  0.1566
13440W        W28571   3.516   4.166  15.732 -0.0081  0.0848  0.0412
13441W        W28572   3.998  12.111   3.049 -0.0613  0.1836  0.0933
13442W        W28573  16.131  15.277   4.870  0.0882 -0.1781  0.1027
13443W        W28574   1.787   1.810  16.254 -0.0482  0.1176 -0.0972
13444W        W28575  14.778  16.057  13.224  0.0443  0.0822  0.0597
13445W        W28576   3.721   8.951   4.224 -0.0653  0.2375 -0.0325
13446W        W28577  16.093   1.339  11.917  0.2103 -0.2402 -0.1909
13447W        W28578  10.312   7.024   2.906  0.2431 -0.2302 -0.3112
13448W        W28579   1.531  12.607   4.965 -0.0546 -0.3808 -0.1637
13449W        W28580   7.732   5.228   2.150 -0.1384 -0.5035  0.0860
13450W        W28581   6.817   0.812   0.987 -0.2842  0.1780 -0.1856
13451W        W28582   0.971  10.290  15.333 -0.2163 -0.1452 -0.1744
13452W        W28583   5.830   5.680   0.898 -0.0799 -0.0507  0.4022
13453W        W28584  15.395  10.342  12.764  0.0357  0.1654 -0.1203
13454W        W28585   1.573  16.591  13.090  0.2622  0.0857 -0.1422
13455W        W28586   4.418  16.422  16.094  0.1761  0.1586 -0.0840
13456W        W28587   2.543   5.645   2.113  0.0636  0.1303  0.1706
13457W        W28588   9.376  15.662  16.147 -0.0158  0.0399  0.3186
13458W        W28589  15.385   2.977  14.681  0.1882 -0.0229  0.1536
13459W        W28590   1.404   7.580   0.568  0.0396  0.0261 -0.2578
13460W        W28591  11.845  17.469   2.302  0.2494 -0.0148 -0.1235
13461W        W28592  12.751   7.911   3.900 -0.1500 -0.1455 -0.0567
13462W        W28593   4.935  17.603   3.839 -0.2665  0.1941 -0.0456
13463W        W28594  15.111  16.409   2.775  0.1983 -0.0722  0.0571
13464W        W28595  15.257  13.150  14.843  0.3547  0.3700 -0.3206
13465W        W28596   2.996  11.474   3.670 -0.3902  0.2039 -0.0337
13466W        W28597   8.522   3.679  15.594 -0.2112 -0.1136 -0.0513
13467W        W28598  13.364   9.691  11.804  0.3258 -0.4491 -0.1220
13468W        W28599  15.926  10.873  16.462 -0.0143  0.1742  0.2006
13469W        W28600   0.544   8.990   1.859  0.1815 -0.2982  0.1877
13470W        W28601  14.736   6.283   1.231  0.1377 -0.0090 -0.0269
13471W        W28602   0.946   2.243  12.598 -0.1921 -0.0569 -0.0219
13472W        W28603  11.661  15.869   1.129  0.0764 -0.1039 -0.0794
13473W        W28604  15.692  14.507   2.185 -0.1135 -0.0323 -0.0710
13474W        W28605   5.949   2.258  14.676  0.0863 -0.1211 -0.0260
13475W        W28606  10.532   4.802  15.943 -0.1352  0.2424 -0.0386
13476W        W28607   1.325  13.924   2.053  0.0926  0.2541 -0.0795
13477W        W28608   5.205   2.103   2.734 -0.1969 -0.1358 -0.2218
13478W        W28609  12.762   9.595  13.629  0.2161  0.0752 -0.3510
13479W        W28610  10.329   1.051   4.832  0.0570  0.3797 -0.1651
13480W        W28611  14.458  16.977  12.050 -0.0175 -0.0143  0.1292
13481W        W28612   0.058   3.447   1.412 -0.0411  0.0958  0.1078
13482W        W28613  15.029   5.217  11.822 -0.0081  0.0496 -0.1135
13483W        W28614   9.785   0.648  14.023  0.4596  0.0383  0.3997
13484W        W28615   7.483  17.630  11.870  0.0300 -0.1993  0.0403
13485W        W28616  17.282  14.899  16.240  0.2840 -0.2424  0.2239
13486W        W28617  13.179  16.780  13.435 -0.3267 -0.0391  0.0122
13487W        W28618   5.155  15.921  16.441 -0.0360 -0.2214  0.1005
13488W        W28619   1.896   7.538  15.365  0.0335  0.0337 -0.2332
13489W        W28620  11.496   1.063   2.698  0.1505  0.0011  0.3640
13490W        W28621  14.723   5.731   2.760 -0.1333 -0.2441 -0.1020
13491W        W28622  15.031  16.342  15.331  0.1126  0.4508  0.0192
13492W        W28623  12.603   7.508  13.808  0.0508  0.0473 -0.1737
13493W        W28624   7.602   8.127   3.510  0.2199  0.1673 -0.1122
13494W        W28625   2.744  10.416   3.128 -0.0160  0.2016  0.0745
13495W        W28626  12.093   0.816   1.165 -0.2953 -0.0556 -0.1246
13496W        W28627  14.679  13.810  14.946 -0.1510  0.0015 -0.2494
13497W        W28628   3.676   4.692  15.500 -0.1501 -0.2061  0.0649
13498W        W28629  15.028   0.661  15.933 -0.0393  0.2435 -0.1061
13499W        W28630   5.532   8.320   1.030 -0.0911  0.2811  0.1103
13500W        W28631   6.116  10.232  13.074 -0.1515  0.0076  0.1447
13501W        W28632  14.308   3.098   4.025 -0.3145  0.1042  0.1762
13502W        W28633   0.392   4.087   0.760  0.0472  0.1276 -0.1932
13503W        W28634   1.073   7.528  15.923 -0.1456  0.0744 -0.1077
13504W        W28635  10.655  12.843  13.132  0.0762 -0.3246 -0.0560
13505W        W28636  15.037  16.591   3.287 -0.2423  0.0984  0.1707
13506W        W28637   3.236  15.943   3.219 -0.3035 -0.4372 -0.3396
13507W        W28638   1.399  15.330   4.281  0.0531  0.2924 -0.3221
13508W        W28639   4.016   8.532   3.259  0.0944  0.3430 -0.1294
13509W        W28640   4.613   0.272  13.422 -0.1042 -0.2729  0.0453
13510W        W28641  12.885   7.865  11.696  0.1249 -0.2235  0.2988
13511W        W28642  10.650   1.994  16.682  0.1739 -0.0798 -0.0990
13512W        W28643  12.280   8.640   5.446 -0.0155 -0.3253  0.0145
13513W        W28644  11.987  16.738  13.834 -0.0702  0.2041 -0.2278
13514W        W28645   0.428  10.597  14.803  0.3307 -0.1764 -0.2731
13515W        W28646   5.854   0.266  14.160  0.2160  0.1069 -0.0460
13516W        W28647   1.120  15.098  12.202 -0.0494 -0.0503 -0.1826
13517W        W28648  11.003  12.140   5.357 -0.2222 -0.1757 -0.2525
13518W        W28649   0.247  11.586  12.751 -0.0062  0.2367 -0.0841
13519W        W28650  12.563   1.075  12.136  0.0156 -0.3292  0.0656
13520W        W28651  17.040  17.805   0.665 -0.1047  0.0110 -0.5133
13521W        W28652   3.225   9.111   4.167  0.0107 -0.2875  0.0636
13522W        W28653  11.098   7.873  16.770 -0.1225 -0.1257 -0.0093
13523W        W28654   3.775   9.868   3.137  0.1903  0.3174 -0.0555
13524W        W28655   8.257  14.895  12.004 -0.0708  0.0940 -0.3148
13525W        W28656  13.823  14.931  13.471 -0.0714  0.0929 -0.0419
13526W        W28657  17.669  14.267   5.526 -0.4155 -0.0659 -0.0814
13527W        W28658   7.739   9.956   2.381 -0.1485  0.0430 -0.2448
13528W        W28659  11.058   8.665   4.502 -0.0366  0.3144 -0.3183
13529W        W28660   9.431  12.025   0.588  0.1945 -0.1600 -0.0627
13530W        W28661   0.181   0.479   1.972 -0.1267  0.3133 -0.1668
13531W        W28662   5.718   3.871  10.165 -0.2245 -0.0507  0.0500
13532W        W28663  11.622  15.274  12.033  0.0064 -0.1045  0.0037
13533W        W28664   2.966   0.707   1.022 -0.3377  0.2672  0.1120
13534W        W28665  14.011   8.642   1.521 -0.0903  0.3744  0.4558
13535W        W28666   2.437   7.100   1.672 -0.4472 -0.2471  0.3050
13536W        W28667   8.095   8.036   3.578 -0.0523  0.3863 -0.2024
13537W        W28668   0.514  14.738  13.066  0.0559 -0.3208  0.1188
13538W        W28669  11.109   8.915  13.955  0.1919  0.0680 -0.0247
13539W        W28670  16.941  16.859  15.319 -0.0873  0.2802 -0.2156
13540W        W28671   6.197  12.241   4.338 -0.3215 -0.0377 -0.0875
13541W        W28672   3.102  10.155  12.305  0.1435  0.0481 -0.0408
13542W        W28673  12.819  12.150  14.254 -0.0253  0.1824  0.1220
13543W        W28674   7.871  10.841  16.418  0.0781  0.0370  0.0168
13544W        W28675  11.038   2.779  14.514  0.0218  0.0609 -0.0338
13545W        W28676  14.466  12.561   1.665  0.5269 -0.0494  0.0774
13546W        W28677   5.901   2.472   0.263  0.3349  0.1197  0.2064
13547W        W28678   0.530  17.834  11.712  0.0137 -0.1428  0.0605
13548W        W28679  15.345  13.271   3.638 -0.0929  0.1425  0.0635
13549W        W28680  13.826   5.082  12.359  0.1779 -0.2829  0.1974
13550W        W28681  15.546   5.631  13.917  0.2239 -0.2354 -0.1730
13551W        W28682  15.618   4.036  12.611  0.2212  0.1581 -0.2149
13552W        W28683   0.004   1.008  13.467 -0.0250  0.1854  0.0940
13553W        W28684   2.721  12.674   0.031  0.1812 -0.1687 -0.0019
13554W        W28685   4.342   5.594   2.159 -0.3217  0.1656 -0.2974
13555W        W28686  12.783   6.007  14.596  0.2409  0.0518 -0.0825
13556W        W28687   7.473   7.490  11.326 -0.0651 -0.3893  0.2782
13557W        W28688   4.548   5.018   2.181  0.0753  0.0220  0.1421
13558W        W28689  17.426  11.867   3.195 -0.0794  0.1118 -0.0428
13559W        W28690  14.537   9.406  11.249  0.2639 -0.4067 -0.1392
13560W        W28691   3.687  15.624   5.375  0.0269 -0.1394 -0.0080
13561W        W28692  16.896   4.424  14.607  0.0240 -0.1042 -0.0608
13562W        W28693   1.719   7.584   2.399 -0.2095 -0.0891  0.1608
13563W        W28694   6.051   5.592  13.535  0.1287  0.1759  0.2498
13564W        W28695   2.834  16.398  15.539 -0.0717 -0.0992  0.3657
13565W        W28696   3.741   5.373   1.244 -0.1075  0.3844 -0.2199
13566W        W28697   4.743  17.486  12.884 -0.3166 -0.1328  0.2470
13567W        W28698   8.090   5.574  12.976  0.0868 -0.1207  0.0452
13568W        W28699   1.162   4.167  16.245 -0.0741  0.0081  0.0538
13569W        W28700   4.323   4.958   1.139  0.0141 -0.0594  0.0583
13570W        W28701   3.206  13.155  16.376 -0.0866 -0.3326 -0.0415
13571W        W28702   1.665   6.268  14.193 -0.0158 -0.1517 -0.2713
13572W        W28703   3.731  10.169   5.254  0.0935  0.0049 -0.3286
13573W        W28704  16.666  11.091   6.295 -0.2335  0.1781 -0.1551
13574W        W28705   3.073   9.264  11.635  0.1383 -0.0622  0.3341
13575W        W28706  15.095  16.487   1.112  0.0429  0.0095 -0.1372
13576W        W28707   2.292   0.817  12.921 -0.1849 -0.1875 -0.0005
13577W        W28708   7.511   1.038  15.982 -0.0454  0.0115  0.1992
13578W        W28709   5.765  15.083   3.515  0.0018  0.1454 -0.1259
13579W        W28710  10.548   2.367   0.242 -0.4317 -0.1791  0.2481
13580W        W28711   0.700  15.705   6.306  0.1138 -0.0949  0.0042
13581W        W28712  10.707  14.122  12.319 -0.0468  0.0321 -0.0152
13582W        W28713  17.771  17.469  13.128  0.0005  0.5984  0.1890
13583W        W28714   4.352   0.077   2.059  0.0062 -0.1336 -0.0554
13584W        W28715   9.468   3.834  13.902  0.1718  0.3637  0.4020
13585W        W28716   6.592   7.385  15.277  0.0887 -0.6352  0.1486
13586W        W28717  11.018  12.492   6.067 -0.1970 -0.1532 -0.0476
13587W        W28718   8.450  16.964  11.797  0.0315 -0.1106 -0.0000
13588W        W28719   9.412   0.520   5.183 -0.2546 -0.0351 -0.0009
13589W        W28720   6.437  15.443   4.100 -0.0826  0.1920 -0.0735
13590W        W28721   4.782   3.222  15.775  0.3977  0.0097 -0.1476
13591W        W28722   3.893  12.376   0.996  0.3176  0.1850 -0.0464
13592W        W28723  11.201   9.143  12.118 -0.0314 -0.0525  0.6366
13593W        W28724  16.449   8.059  13.338 -0.3351 -0.3783 -0.2561
13594W        W28725   4.330   9.871  13.970 -0.0495  0.1337  0.1070
13595W        W28726  13.232   0.789   2.925  0.2016  0.1799 -0.0823
13596W        W28727   8.598   5.225  12.338 -0.3020  0.0414  0.0839
13597W        W28728  12.031  10.321  14.849 -0.1318  0.0959 -0.1979
13598W        W28729   7.608   5.382  12.325  0.0373 -0.1804 -0.0063
13599W        W28730   1.327  16.777  15.085 -0.0135  0.0845  0.2197
13600W        W28731   7.934   6.276   3.738  0.0478 -0.1385 -0.0312
13601W        W28732  11.043   9.534  16.474  0.2290  0.0758 -0.0795
13602W        W28733  15.068  12.822  12.483  0.0209 -0.0817 -0.1027
13603W        W28734   3.267   9.367  12.898 -0.0340 -0.1069 -0.1516
13604W        W28735   2.282   4.360   2.723  0.1195  0.1415 -0.0053
13605W        W28736   8.318   6.108   1.752 -0.2738 -0.2027  0.5171
13606W        W28737  15.964   1.715  12.682 -0.1370  0.2503 -0.0945
13607W        W28738  10.729  16.210   2.587 -0.2596  0.0774  0.1107
13608W        W28739  16.600  16.505   5.010  0.0450  0.1528 -0.1616
13609W        W28740   7.721   2.809   4.311 -0.0283 -0.0059  0.0053
13610W        W28741  11.518   1.622   0.326 -0.1183  0.1171 -0.1508
13611W        W28742   6.994  17.499  12.101  0.1634  0.1213  0.0452
13612W        W28743   0.454  16.882  16.103  0.1058  0.2102 -0.0077
13613W        W28744   2.128  10.584   1.360 -0.4874 -0.1531  0.1131
13614W        W28745  13.941   7.621   5.821 -0.1757  0.0634 -0.0478
13615W        W28746   7.997  13.904  15.637  0.1248  0.5164  0.1758
13616W        W28747  14.204   3.176  15.322  0.3249 -0.0333  0.2497
13617W        W28748  11.411  13.461  16.595  0.1464 -0.1057 -0.0853
13618W        W28749  12.935  10.161   2.135  0.1511 -0.0224 -0.2237
13619W        W28750   8.337  14.763  12.859  0.1261  0.1157  0.4367
13620W        W28751   8.503  13.654  13.749  0.2569  0.4388 -0.0746
13621W        W28752   0.040  15.711   0.919 -0.0737 -0.1150  0.0099
13622W        W28753   9.916  10.161   2.925  0.1331  0.3602 -0.0622
13623W        W28754  15.698  16.401   1.069 -0.0757 -0.0920  0.0242
13624W        W28755  10.723  16.910  13.882  0.2202  0.1932  0.0282
13625W        W28756  15.296   4.370   2.115 -0.1054 -0.2398  0.1059
13626W        W28757   3.255  17.425   3.044 -0.0184 -0.1420  0.5534
13627W        W28758   4.222   8.583  15.220  0.0450  0.0863 -0.3113
13628W        W28759   4.241  10.851   4.727 -0.1828 -0.2048  0.1338
13629W        W28760   3.004   2.475   4.954 -0.0104  0.0037  0.2326
13630W        W28761   3.467   1.557  13.333  0.0226  0.0101  0.1089
13631W        W28762   3.724  13.648   2.231  0.0355  0.2148  0.1395
13632W        W28763   8.401   3.485  11.661  0.1233 -0.1609 -0.2446
13633W        W28764   9.983   8.162   0.572 -0.0894 -0.0294  0.4507
13634W        W28765   6.625  10.873   3.130  0.2923 -0.3012 -0.0039
13635W        W28766   7.871  12.334  12.244  0.0229 -0.0494  0.0413
13636W        W28767  11.535  11.394  11.913 -0.2386 -0.0564 -0.1428
13637W        W28768   1.747  10.434  12.659  0.1121 -0.0361  0.2677
13638W        W28769   2.162  15.082  13.989 -0.0630  0.2642  0.1100
13639W        W28770   5.309  14.826   3.690 -0.1384 -0.0968 -0.3132
13640W        W28771   5.673  13.785   6.094  0.0239  0.2956 -0.1036
13641W        W28772   2.878  14.685   0.297  0.0989  0.3432 -0.0933
13642W        W28773   2.842   5.085  12.962 -0.1928 -0.0068  0.1641
13643W        W28774   1.310  15.915  12.065  0.2602 -0.1227  0.0702
13644W        W28775  14.817   0.365   4.729 -0.1148  0.0923 -0.0912
13645W        W28776  14.362   0.912  13.575 -0.0136  0.3758 -0.0224
13646W        W28777  11.106  15.036   2.615  0.0718  0.0887 -0.0168
13647W        W28778   2.882   4.762  13.721  0.0282 -0.1530  0.1331
13648W        W28779  16.996   7.425  12.804  0.1939  0.2200 -0.2239
13649W        W28780  17.482  12.029  16.072 -0.2044  0.1959 -0.2563
13650W        W28781  15.064   6.402  13.189 -0.2756 -0.0593 -0.3399
13651W        W28782  15.015   6.167  11.184  0.1586  0.2206  0.0999
13652W        W28783  14.799  15.732  12.330 -0.1874 -0.2901 -0.2029
13653W        W28784   4.842   3.345  13.004 -0.1517  0.0123 -0.1933
13654W        W28785   4.198   0.613  15.961 -0.0585  0.0362  0.0067
13655W        W28786  12.850  14.050  16.461  0.1113  0.3333  0.2269
13656W        W28787   6.287  16.228   3.459 -0.1634 -0.3138 -0.0788
13657W        W28788  17.761  17.308  12.614  0.2851 -0.2313  0.3293
13658W        W28789   7.643   5.634  13.963  0.0167  0.1417 -0.0264
13659W        W28790   9.132   7.692   2.794 -0.1237  0.1409 -0.0901
13660W        W28791   6.298   4.509  12.845 -0.1411  0.0907  0.0733
13661W        W28792  10.324  15.163   3.847 -0.1199  0.2395 -0.3068
13662W        W28793   0.521  16.911   3.325 -0.0709 -0.5061 -0.0862
13663W        W28794   9.364   3.288   1.657 -0.1879  0.1458  0.0539
13664W        W28795   9.348   9.469  14.871  0.1430  0.0287 -0.2832
13665W        W28796   0.337   6.066  11.149  0.2716  0.0837  0.1496
13666W        W28797  15.408  17.397  13.623  0.0948  0.0582  0.3174
13667W        W28798   9.078   9.633   1.870  0.0474 -0.1603 -0.2879
13668W        W28799   8.349  12.223  12.433 -0.1764  0.1068  0.0691
13669W        W28800  13.758   1.874   3.484 -0.1583  0.0461  0.0650
13670W        W28801   7.807   9.931  14.790 -0.2925  0.0121  0.1319
13671W        W28802  16.131   9.989   3.521  0.0415 -0.2280 -0.1317
13672W        W28803  10.822  14.934  14.867 -0.1379  0.1989 -0.2824
13673W        W28804  12.023   2.665   4.582 -0.2382  0.2576 -0.0239
13674W        W28805   9.991  11.413   2.300  0.1378  0.1249  0.1946
13675W        W28806   0.681   3.867  11.582  0.2727 -0.0412  0.1061
13676W        W28807  13.450  16.914  13.923  0.1791 -0.0426 -0.0887
13677W        W28808   2.175  14.121   2.019  0.2340 -0.3231  0.1912
13678W        W28809   2.135  15.819  15.153  0.0533 -0.0513 -0.1149
13679W        W28810   2.328   7.254  16.159  0.2884  0.1907 -0.0034
13680W        W28811  13.251   9.988  13.169 -0.0517  0.3614  0.1995
13681W        W28812   0.253   7.732   1.290  0.1802  0.0464  0.1670
13682W        W28813   6.688   5.989  14.524  0.0625  0.3655  0.0787
13683W        W28814  14.665  16.204  12.590  0.3054  0.0765 -0.0668
13684W        W28815   0.317  13.044   3.861 -0.1864  0.0282 -0.1548
13685W        W28816  11.435   0.026   1.295  0.0901  0.0993 -0.0842
13686W        W28817   9.381   3.889  11.180 -0.3861 -0.0334  0.1420
13687W        W28818  12.763   5.151   2.876 -0.0819  0.0701 -0.0844
13688W        W28819  12.853  10.617   2.309 -0.0980 -0.2322  0.4272
13689W        W28820   4.462  10.663  12.599 -0.0267  0.1400 -0.1797
13690W        W28821   3.189   2.553  13.475 -0.2037  0.0339 -0.2145
13691W        W28822   6.942   5.661  13.763  0.3060  0.1309 -0.1451
13692W        W28823   1.983   4.600   0.240 -0.2066  0.1543  0.1928
13693W        W28824   4.798  15.985   2.953 -0.0139  0.1479  0.1848
13694W        W28825   6.058   3.361  16.572 -0.1302  0.0961 -0.0666
13695W        W28826  15.636   4.302  15.392 -0.1868 -0.0701  0.1365
13696W        W28827   6.515  11.950  11.641 -0.0120  0.1963 -0.3990
13697W        W28828  10.191  12.537  12.556 -0.2285  0.0163  0.1110
13698W        W28829  12.386  15.442  13.587 -0.0558 -0.0104 -0.1969
13699W        W28830   8.135  16.189   3.792  0.3341 -0.0414  0.2300
13700W        W28831   3.715   1.435   0.114  0.1598  0.1324 -0.0530
13701W        W28832  10.975   9.052   4.211 -0.2120  0.1074 -0.2453
13702W        W28833  17.702   0.002  14.812 -0.0374 -0.1032  0.1814
13703W        W28834  16.468   0.606   4.952  0.2818  0.0531 -0.0236
13704W        W28835   6.854   9.690   2.147 -0.1722  0.0601 -0.2559
13705W        W28836   2.562  15.341   1.344 -0.1443  0.0377 -0.0738
13706W        W28837  16.407   8.557   5.791  0.1461 -0.0211  0.3401
13707W        W28838  13.449  16.933   5.202  0.5822  0.1861 -0.2581
13708W        W28839  13.998  16.317  14.145  0.2599 -0.0452 -0.0880
13709W        W28840   6.925  15.179   4.922 -0.1881 -0.2396  0.2054
13710W        W28841   7.315   9.709   1.280  0.0207 -0.1229  0.2548
13711W        W28842   1.058   2.113  13.422  0.0601  0.0986  0.1667
13712W        W28843  13.694  13.083  15.854 -0.1878 -0.3369  0.1926
13713W        W28844  13.624   9.791   0.548 -0.1068 -0.0753  0.0648
13714W        W28845  16.666  16.998   1.821  0.1071 -0.1433  0.1771
13715W        W28846   8.199   5.523  15.280 -0.1021  0.1504 -0.1899
13716W        W28847  11.600   5.483  10.224  0.0110 -0.0100 -0.0992
13717W        W28848  11.114   4.016   2.198  0.2359 -0.2823 -0.0287
13718W        W28849   7.189  13.020   3.820  0.2367 -0.0082 -0.1464
13719W        W28850   2.630   0.619   0.216 -0.0935  0.2586 -0.1849
13720W        W28851   5.530  13.062   4.567 -0.1656 -0.1321  0.1008
13721W        W28852   7.471   4.727   5.822 -0.0122 -0.0606  0.2620
13722W        W28853   7.045   3.389  14.011  0.3445  0.0348  0.0980
13723W        W28854   7.419   5.083   4.967 -0.0291  0.0805  0.0966
13724W        W28855  14.209   7.323   2.230 -0.0335  0.0048 -0.2676
13725W        W28856  13.717   7.788  14.612  0.1354 -0.0902 -0.0090
13726W        W28857   1.921  11.528   4.385  0.0523 -0.0647 -0.0965
13727W        W28858   2.207  12.449  13.206  0.0963  0.3028  0.0766
13728W        W28859  11.570  10.741  14.214 -0.0092 -0.1371  0.1428
13729W        W28860   9.751  12.039  12.048  0.0925 -0.3441  0.1592
13730W        W28861  14.952  17.327  13.751 -0.0415 -0.0632  0.1727
13731W        W28862  14.244   0.734  14.131  0.0845 -0.0119  0.0191
13732W        W28863  14.725  16.097   2.824 -0.2336 -0.0683  0.4369
13733W        W28864   5.324  13.534   1.668 -0.4308  0.1298  0.0258
13734W        W28865  15.101  11.485  14.858  0.0051  0.1528 -0.0880
13735W        W28866  11.077  17.881  16.677 -0.0319 -0.0471 -0.0872
13736W        W28867  14.056  17.560  16.247 -0.0771 -0.0860  0.3116
13737W        W28868  15.744   4.185  13.100  0.0398  0.1913  0.2276
13738W        W28869  16.857  15.285   6.287 -0.0243 -0.1160 -0.1614
13739W        W28870   9.981   7.976   2.415 -0.2709 -0.0458 -0.0709
13740W        W28871   4.381   8.110   0.880  0.0790 -0.1647 -0.2548
13741W        W28872  14.348   2.050   5.831  0.1143  0.0655 -0.2717
13742W        W28873   9.335  12.419  12.704  0.0013 -0.2151  0.0172
13743W        W28874   8.862   9.187   6.431  0.3695 -0.2409  0.3536
13744W        W28875   0.124   3.242  13.892 -0.3023 -0.2073 -0.1648
13745W        W28876  15.498   6.041   2.893 -0.4415  0.2639 -0.0643
13746W        W28877  16.293  10.489   0.933 -0.0916  0.2731  0.1734
13747W        W28878   4.134   2.326   3.475 -0.0244 -0.2103  0.1733
13748W        W28879   1.576  16.856  16.544  0.2392 -0.1427  0.1473
13749W        W28880  15.768   3.029   2.980 -0.2025  0.1700  0.1079
13750W        W28881  12.308   1.693  15.554 -0.2115 -0.1508 -0.2673
13751W        W28882  10.372  13.769  12.157 -0.1795 -0.0558 -0.1349
13752W        W28883   6.818   0.451  13.089  0.1695  0.0693 -0.2411
13753W        W28884   3.425  16.605   2.592 -0.0515 -0.1398  0.0345
13754W        W28885   9.236  14.733  14.608 -0.0023  0.0376 -0.1773
13755W        W28886  10.948   4.870  13.866 -0.0235  0.1284 -0.2285
13756W        W28887   1.191   2.779  12.013  0.1220 -0.0410  0.2070
13757W        W28888  16.969   5.029   0.316  0.2271  0.0797 -0.0720
13758W        W28889  11.800   6.945   4.085  0.0896  0.0168  0.0585
13759W        W28890  12.211   9.397  15.186  0.0990 -0.1095 -0.1172
13760W        W28891  13.214   1.068   5.004  0.2202  0.0839  0.1083
13761W        W28892   0.474   5.118  16.599 -0.1722 -0.2189  0.1072
13762W        W28893  10.233  11.742  11.973  0.0061  0.0373 -0.0773
13763W        W28894  16.739  10.750  16.279 -0.3276 -0.0650 -0.0748
13764W        W28895  12.486   7.725  14.312 -0.1606  0.0862  0.0774
13765W        W28896   0.432  16.830  14.627  0.2422 -0.2021 -0.0007
13766W        W28897  17.684   9.287  14.499  0.2343 -0.1173  0.1846
13767W        W28898   1.444   4.391  15.775 -0.0951  0.0826 -0.0706
13768W        W28899  17.255  12.517  15.186 -0.0477 -0.3463 -0.0095
13769W        W28900   0.817  15.298  13.015 -0.1510  0.0183  0.1605
13770W        W28901  10.073   0.612  13.552 -0.2279  0.2487  0.1121
13771W        W28902   2.721  15.469   4.946  0.1011  0.0997 -0.1787
13772W        W28903  15.925   7.112   5.481 -0.2185 -0.1187 -0.4185
13773W        W28904  11.588  16.580  14.958 -0.0698  0.1585  0.1053
13774W        W28905  12.823   5.385  14.019 -0.2023  0.1701 -0.2625
13775W        W28906   7.977   7.365  12.180 -0.0331  0.0474  0.2666
13776W        W28907   2.342  14.514   5.184  0.0394  0.0780  0.0790
13777W        W28908   9.900   5.533  12.119 -0.3537  0.0364  0.1862
13778W        W28909   6.920  13.478   3.850 -0.2604 -0.0581 -0.2619
13779W        W28910   6.231   8.043   4.811  0.1178 -0.0814 -0.2328
13780W        W28911   9.861  16.061  11.547  0.1172 -0.0966 -0.2239
13781W        W28912   2.381   6.302   5.532 -0.2269  0.0280 -0.0655
13782W        W28913   0.864  17.298   1.823  0.0717  0.0619  0.1578
13783W        W28914   3.904  12.461   0.239  0.2893  0.1291 -0.0290
13784W        W28915   6.241   5.656  15.065  0.3163  0.3489 -0.2274
13785W        W28916   4.717   7.910  14.053 -0.2821 -0.2256 -0.0857
13786W        W28917  10.472   7.718   3.544  0.0370  0.0589  0.0580
13787W        W28918  12.951   9.400   0.211 -0.0363  0.1242 -0.0086
13788W        W28919   6.566   3.595   2.604 -0.0836  0.1122  0.1065
13789W        W28920   1.307   6.017  11.549  0.1875  0.2513 -0.2080
13790W        W28921   5.309  10.172   3.988 -0.1893 -0.1277 -0.2642
13791W        W28922   5.919  13.901   4.695 -0.1001  0.1335  0.0866
13792W        W28923   6.007  14.062   0.557 -0.1159  0.1538 -0.4696
13793W        W28924  13.065   0.442  15.661  0.1184  0.1585 -0.1205
13794W        W28925   5.529   7.999  15.654  0.1163 -0.0202 -0.1769
13795W        W28926   4.421  12.194  14.905 -0.0735  0.2213 -0.0542
13796W        W28927   4.036  14.678  14.092  0.1248 -0.4507  0.2244
13797W        W28928   4.311   6.728  12.348 -0.0921 -0.0522  0.1864
13798W        W28929   0.780   8.300   2.175  0.1438  0.2881 -0.0035
13799W        W28930   5.565   1.361   1.742  0.0607 -0.2508  0.1084
13800W        W28931  14.146   1.505   3.509  0.2463  0.1463 -0.2717
13801W        W28932  13.883   7.255   0.023 -0.1820 -0.2325  0.1156
13802W        W28933  14.904  16.575  11.551  0.0961  0.0204  0.0748
13803W        W28934   5.935   9.578   1.176 -0.0088  0.2050  0.0595
13804W        W28935   7.670   5.060  11.529 -0.3644 -0.0964  0.2245
13805W        W28936   1.011   0.097   3.502 -0.0843 -0.1588  0.0729
13806W        W28937   2.427   5.601   3.075  0.2358 -0.0935  0.2252
13807W        W28938   2.798  15.092  15.733  0.0506  0.2332  0.1343
13808W        W28939   7.339  15.395   5.625  0.1850 -0.0042 -0.0090
13809W        W28940   3.448  14.342   4.051 -0.1694 -0.0449 -0.2738
13810W        W28941   5.313   4.622   2.694 -0.0790  0.1151  0.0354
13811W        W28942  11.328   0.098   4.963 -0.2667 -0.0703  0.2026
13812W        W28943  11.210  15.916  11.473 -0.0264  0.2224 -0.1614
13813W        W28944   1.325  10.593  15.986 -0.1368  0.1156 -0.0021
13814W        W28945  13.978  11.770   0.010  0.0377 -0.1216  0.2608
13815W        W28946  13.821   1.841  15.090  0.3259 -0.1350  0.0843
13816W        W28947  15.412  15.516  13.744 -0.1993 -0.3357 -0.1633
13817W        W28948   3.887   7.792   3.159 -0.1866 -0.1411 -0.0464
13818W        W28949  14.862   2.507  13.517 -0.2335 -0.0635 -0.2741
13819W        W28950  13.307   9.200   1.011  0.0750  0.0124  0.0701
13820W        W28951   2.213  10.469  11.578  0.1468 -0.0370  0.2387
13821W        W28952  16.522  17.870   0.787 -0.1006 -0.1575 -0.1791
13822W        W28953  14.059   9.641   0.089 -0.0182 -0.0218 -0.0434
13823W        W28954  17.570   5.572   5.195  0.1205 -0.1160  0.0832
13824W        W28955   0.898   2.481  13.726  0.0166 -0.2731 -0.0470
13825W        W28956   7.133   5.636  11.918  0.0584 -0.0904  0.0320
13826W        W28957   0.412  13.382   2.889 -0.1000  0.0375  0.0671
13827W        W28958  15.125   4.224  15.380 -0.1350 -0.2136  0.2441
13828W        W28959  11.658   5.465   3.752 -0.0287  0.2178  0.0626
13829W        W28960  12.751   8.123   3.068  0.0735  0.0045 -0.1366
13830W        W28961   9.537   0.491   2.695 -0.0602 -0.0847  0.0435
13831W        W28962  16.815  15.648  15.109 -0.1965  0.0078 -0.0297
13832W        W28963   0.444   5.000   3.979 -0.0430  0.0412  0.0859
13833W        W28964   0.897   4.816   3.968 -0.1668 -0.1529 -0.0007
13834W        W28965  10.551   4.388   3.979  0.2186  0.0665 -0.1530
13835W        W28966   4.611   3.157   2.417  0.0923  0.0143  0.1591
13836W        W28967   9.742  13.756  15.836  0.1256 -0.3353  0.1618
13837W        W28968   0.421  12.098   2.902  0.2301  0.1902  0.2617
13838W        W28969   2.512   6.492   4.935  0.2833 -0.1961  0.2480
13839W        W28970   2.241   4.340  14.069 -0.2256  0.0343  0.2635
13840W        W28971  15.323  11.186  15.241  0.1545  0.2119 -0.0403
13841W        W28972   8.339   9.920  11.589 -0.0339 -0.0521  0.0612
13842W        W28973   7.394   6.104   2.787 -0.1562 -0.1680 -0.3494
13843W        W28974   8.797   5.663   2.513  0.1227  0.0301 -0.0744
13844W        W28975  11.435  11.656   0.121  0.0491  0.1025  0.4022
13845W        W28976   0.672   3.460   2.063 -0.0887  0.1905 -0.2743
13846W        W28977   9.128   0.324  14.963  0.1236 -0.1645  0.0033
13847W        W28978   2.254   6.141  13.294  0.0334 -0.1010 -0.1019
13848W        W28979   7.515  16.613  14.378 -0.0225  0.4536  0.0048
13849W        W28980  13.179   4.485   2.808  0.1211  0.0856  0.3616
13850W        W28981  12.129   6.983  16.753  0.1547  0.1205  0.0604
13851W        W28982   6.685  14.613  15.361  0.0233  0.0707 -0.0393
13852W        W28983  11.816  10.489  13.676  0.1330  0.2161 -0.1812
13853W        W28984  16.495   5.595   1.594 -0.0441  0.4596  0.0568
13854W        W28985   4.252  12.589   5.613  0.0503  0.0245 -0.2684
13855W        W28986   1.365  11.496  10.571 -0.1732  0.1338 -0.0656
13856W        W28987  10.372  13.425   1.281 -0.1130 -0.5529  0.0885
13857W        W28988   0.656   8.906  15.060  0.1053  0.0588  0.0323
13858W        W28989  10.019   6.795   6.342 -0.0264 -0.0857 -0.0267
13859W        W28990   7.521  10.022  11.004  0.1354  0.2063  0.2053
13860W        W28991   2.950   2.928   5.887  0.2267 -0.3013  0.0379
13861W        W28992   5.731  17.378  11.583  0.0602 -0.2585 -0.1807
13862W        W28993   0.288  12.935  13.616 -0.3095  0.1281  0.0566
13863W        W28994   0.843  14.649   0.483  0.1629 -0.0302 -0.0569
13864W        W28995   6.546   2.846   1.118  0.1952 -0.2503 -0.1378
13865W        W28996  17.469  13.166  16.219 -0.2887  0.2924  0.0521
13866W        W28997  17.393   3.004  15.457  0.0569  0.1042 -0.1214
13867W        W28998   0.832   9.404  14.850  0.1047  0.4554 -0.1428
13868W        W28999  14.891  15.583   3.111 -0.1253 -0.3485  0.0017
13869W        W29000   9.075  13.647  12.980 -0.0461  0.2681  0.3744
13870W        W29001   4.941   6.126  14.605  0.1306 -0.1980  0.1317
13871W        W29002  10.059   0.104  14.737  0.0520 -0.2656 -0.2895
13872W        W29003   6.720   3.120  11.438 -0.0204  0.0509  0.0389
13873W        W29004   3.127   2.849   2.584 -0.0229 -0.1111  0.2085
13874W        W29005   2.664  10.697  15.568  0.1111 -0.1771  0.0671
13875W        W29006   9.229   6.140   5.224  0.1165 -0.0510  0.0398
13876W        W29007  14.503   7.052  11.828 -0.0022  0.0436 -0.0458
13877W        W29008   9.712   8.166  11.161  0.1254  0.2258 -0.1203
13878W        W29009   4.227  14.810  12.711  0.2234  0.1085  0.1178
13879W        W29010   8.636  12.430  15.498 -0.2050  0.0717  0.1763
13880W        W29011   7.109  16.863  15.552  0.0962 -0.1120 -0.0011
13881W        W29012   2.170   8.851  15.103  0.2540  0.0566 -0.2060
13882W        W29013   6.765   2.492  14.279 -0.2576 -0.0254 -0.0824
13883W        W29014   6.797  13.944   1.664  0.0203  0.0665  0.3826
13884W        W29015  17.381  10.573   3.084  0.0535  0.2726  0.0615
13885W        W29016   4.508   1.606  15.516 -0.2856  0.0589 -0.0558
13886W        W29017  12.532  14.649   1.855  0.0722 -0.2751  0.3233
13887W        W29018  10.998   4.041  11.907  0.1307 -0.1751 -0.1217
13888W        W29019   6.152  13.359   2.043  0.4312 -0.1342 -0.0741
13889W        W29020  12.761  10.782  13.600 -0.1066  0.0380  0.0139
13890W        W29021  12.064   4.006   3.314 -0.0690  0.0197 -0.1585
13891W        W29022  12.707   1.697   1.408  0.0008  0.0107 -0.0757
13892W        W29023   2.863   8.036   0.485 -0.0890  0.2338 -0.1503
13893W        W29024   6.313  13.438  15.547  0.0036  0.4864 -0.1513
13894W        W29025  10.967   4.986  10.816  0.2283  0.0028 -0.0173
13895W        W29026  14.825   4.776   6.213 -0.2023 -0.2516 -0.0566
13896W        W29027  10.217   3.321   2.827 -0.2848 -0.0607 -0.0572
13897W        W29028  10.951  17.275   1.715  0.0917  0.2627  0.2632
13898W        W29029   7.213  12.264   2.215 -0.0523  0.1599  0.2046
13899W        W29030   6.581  11.623   5.591  0.2118  0.6093 -0.0983
13900W        W29031  17.025   5.862  16.047 -0.1696  0.1567  0.0800
13901W        W29032   2.574   9.141  14.934  0.0528  0.1131 -0.1568
13902W        W29033   6.954  12.368   0.532 -0.0814  0.1823  0.2763
13903W        W29034   2.549   3.204   5.267 -0.2000 -0.0186 -0.1671
13904W        W29035   6.371  11.091   5.131 -0.2532  0.1066  0.3792
13905W        W29036   1.648   6.843   2.721 -0.2348  0.3321 -0.0301
13906W        W29037  14.834  15.566   0.038  0.1425 -0.0052 -0.1236
13907W        W29038   7.260   3.714  15.811 -0.4329  0.1636 -0.1642
13908W        W29039   6.668   5.367  12.814 -0.0140  0.0949  0.0944
13909W        W29040   7.377   7.343   0.091 -0.3259  0.0373 -0.1536
13910W        W29041  12.608   6.914  16.683 -0.1475 -0.1461  0.0196
13911W        W29042  14.708  13.711   2.527  0.0287 -0.3255 -0.1566
13912W        W29043  16.761   0.384   0.618 -0.0190  0.1178 -0.0241
13913W        W29044  14.636   2.404  14.051 -0.2305 -0.2183 -0.1706
13914W        W29045   5.994  12.940   1.668  0.0074 -0.0533 -0.4408
13915W        W29046   6.013   4.473  11.556 -0.0619 -0.0574 -0.0424
13916W        W29047  17.213   5.808   3.594 -0.3006 -0.2172 -0.0039
13917W        W29048  15.252   2.502  14.396  0.2291  0.1061  0.0808
13918W        W29049   8.170  17.840   1.248 -0.1919  0.1974  0.2273
13919W        W29050  13.192   9.923   4.408 -0.2597 -0.2116 -0.0600
13920W        W29051  13.845  16.389   4.046 -0.0848  0.1065 -0.0217
13921W        W29052  13.862   5.309  13.773 -0.1773  0.0598  0.0144
13922W        W29053   5.554   7.790   1.407  0.0043 -0.0522 -0.2102
13923W        W29054   8.334  14.660  16.125 -0.0889 -0.0757 -0.1066
13924W        W29055   2.588   7.835   4.694  0.0229 -0.4054  0.1137
13925W        W29056   7.585   8.548   0.839  0.0389  0.0328  0.1874
13926W        W29057  10.387   1.187  10.673  0.1478 -0.1262  0.0301
13927W        W29058   8.567   6.880   2.034  0.0797 -0.0012  0.0222
13928W        W29059  13.804   4.099  16.048 -0.1234  0.0433  0.1621
13929W        W29060  12.556   3.198   1.020 -0.2291  0.2361 -0.0116
13930W        W29061   8.756   8.271  13.169  0.2614 -0.0341  0.2507
13931W        W29062  12.323   6.402  11.430  0.0120 -0.0246  0.2025
13932W        W29063  12.593  11.233  12.687  0.2920  0.4631  0.2056
13933W        W29064   8.534   2.834   3.435  0.2112 -0.0308 -0.1392
13934W        W29065   4.661   4.524   1.396 -0.0240 -0.0420 -0.0675
13935W        W29066   0.547  17.455   0.522 -0.0548  0.2267 -0.0326
13936W        W29067  12.784   4.497  16.413 -0.2541 -0.0836  0.0935
13937W        W29068   8.947  13.391   4.687  0.0631  0.2715  0.3443
13938W        W29069   4.585   5.392   3.909  0.1375  0.0044 -0.0490
13939W        W29070  12.591   1.450  10.961  0.0811  0.2588  0.0483
13940W        W29071   8.203   7.766  12.262  0.1474  0.2435 -0.0170
13941W        W29072  13.623   6.161  14.931  0.3691  0.1601  0.0176
13942W        W29073   9.143   3.731   0.648 -0.0151 -0.0595  0.2575
13943W        W29074   8.351   7.407  11.826  0.0502  0.1557  0.0798
13944W        W29075  11.682   9.530   1.542  0.0780  0.1370 -0.2106
13945W        W29076  15.731  15.643  15.327 -0.0073 -0.0718 -0.0774
13946W        W29077  10.714   6.235  16.257 -0.1655  0.1074  0.0562
13947W        W29078   1.413   9.426  13.510 -0.1556  0.1830  0.2208
13948W        W29079   0.487  12.696   4.902  0.0442 -0.0230 -0.1145
13949W        W29080   6.950   3.224   3.612  0.1271  0.1181 -0.0302
13950W        W29081   3.680   2.328  16.284  0.2371  0.0433 -0.1873
13951W        W29082   9.489  11.187   5.439 -0.0197  0.0936 -0.0044
13952W        W29083   4.710  14.010  12.811  0.3661 -0.2971  0.3169
13953W        W29084   7.281   6.839  13.753  0.3385 -0.1136 -0.0652
13954W        W29085   8.698   0.696  14.968 -0.1722 -0.2412 -0.1926
13955W        W29086   4.303   4.294   3.754 -0.0202  0.0398 -0.1442
13956W        W29087   3.830  13.176   2.344 -0.2041 -0.0119  0.1310
13957W        W29088  15.044   9.174   5.613 -0.1030  0.0860 -0.1957
13958W        W29089   7.559   3.988  10.762 -0.0854  0.1603 -0.1156
13959W        W29090  12.974   3.535   2.360 -0.0443 -0.0029 -0.2480
13960W        W29091  13.378  14.012   3.508  0.3094  0.2163  0.0345
13961W        W29092   8.664  17.466  13.862  0.1113 -0.3328 -0.1400
13962W        W29093   3.507  10.736   1.625  0.2398 -0.0407  0.3131
13963W        W29094  13.233   2.648  14.327  0.3145  0.1266 -0.0408
13964W        W29095  16.353  15.161   5.493  0.2775  0.0576  0.0429
13965W        W29096   3.547  16.551  14.541  0.0837  0.1358 -0.0629
13966W        W29097  11.025   1.820  13.388  0.1471 -0.0317  0.0945
13967W        W29098   9.432   0.097  13.094 -0.1950  0.2356 -0.3789
13968W        W29099   9.455   8.122   1.201  0.0514 -0.0944  0.1015
13969W        W29100   7.095  11.249  13.011  0.0474  0.1989 -0.1024
13970W        W29101   7.597  14.411  13.551 -0.1416 -0.0513 -0.2346
13971W        W29102   2.138   2.642  16.135  0.1971 -0.3064  0.0067
13972W        W29103   9.605   1.530  14.649 -0.2531  0.3399 -0.1535
13973W        W29104  13.442  11.633   0.500  0.0467  0.2220  0.1463
13974W        W29105   1.054  11.097   4.568 -0.1835  0.1777  0.0878
13975W        W29106   1.284  16.642  16.182 -0.0262 -0.3341 -0.0728
13976W        W29107   3.450   0.102   3.448 -0.3064  0.0430 -0.2343
13977W        W29108  16.726   8.076  13.813 -0.2193 -0.0832  0.2249
13978W        W29109  13.590  14.699  11.502 -0.2603 -0.0425  0.2654
13979W        W29110  12.256   1.395  16.488  0.0034  0.1380  0.2349
13980W        W29111   1.480   4.676  12.402  0.1342  0.3911 -0.2382
13981W        W29112  15.365   0.141   4.870 -0.0673  0.1094 -0.1859
13982W        W29113   0.141   2.362  13.472  0.0460  0.2041  0.0299
13983W        W29114  11.086   8.544   2.265 -0.0218  0.0004  0.0858
13984W        W29115   9.803  12.644   1.658 -0.1858 -0.1762 -0.2425
13985W        W29116   9.924   2.235  10.194  0.0862 -0.1907 -0.0991
13986W        W29117  11.578  14.957   2.854  0.0714  0.0148  0.1653
13987W        W29118   3.891   3.249  11.299 -0.2338  0.0381 -0.2675
13988W        W29119   6.212   0.598  14.426  0.0302 -0.0534 -0.1165
13989W        W29120  16.919   7.854  15.168  0.1514 -0.0366 -0.0163
13990W        W29121   8.631   9.687   3.340  0.1530  0.1701  0.0233
13991W        W29122   2.950  11.403  12.364 -0.0674 -0.1255 -0.0669
13992W        W29123  17.718  11.543  15.298 -0.0609 -0.1727 -0.2851
13993W        W29124   3.222  12.917   4.850  0.2532  0.2421 -0.0766
13994W        W29125  12.140   1.821  12.033  0.4290  0.2050  0.1068
13995W        W29126   4.790  14.533   1.003  0.2248  0.0382  0.1620
13996W        W29127   2.174  17.561   3.069  0.3669  0.3889 -0.1847
13997W        W29128  12.659   9.083   3.602 -0.4226  0.1321  0.0973
13998W        W29129   8.266   9.097  14.891 -0.0961  0.0483  0.1943
13999W        W29130   9.487   0.987   1.719  0.0673 -0.3930 -0.2492
14000W        W29131  12.477   2.572  11.650  0.0999  0.0196 -0.0184
14001W        W29132   4.191   1.254   3.465 -0.0810 -0.0849 -0.1365
14002W        W29133  14.183   3.568   0.936 -0.0567  0.0435  0.2511
14003W        W29134   9.197  10.803  15.790  0.0573 -0.2292 -0.1081
14004W        W29135   2.577   2.151  12.276 -0.2598  0.0861 -0.0702
14005W        W29136  10.783   0.490   2.983 -0.1589 -0.0185 -0.1863
14006W        W29137  15.622  13.237   2.668 -0.0780  0.0169 -0.1039
14007W        W29138   2.203  10.673  12.577 -0.0947 -0.0587 -0.0419
14008W        W29139   4.858  12.376   4.696  0.1079  0.1111  0.0349
14009W        W29140   8.442   8.078  12.595  0.2795  0.0404 -0.0540
14010W        W29141   3.041  10.274  13.630  0.0513 -0.2001 -0.4197
14011W        W29142  12.075   2.848  12.851 -0.1285 -0.0780  0.0395
14012W        W29143  10.901  11.330   1.064 -0.0521 -0.2415 -0.0443
14013W        W29144  15.391   8.424  13.760  0.4252 -0.0725 -0.1467
14014W        W29145   3.874   0.985   3.760 -0.1866  0.1736 -0.1955
14015W        W29146  10.174  11.387   4.953  0.0366  0.4475 -0.1546
14016W        W29147   6.012   9.171   6.316  0.0882 -0.0078  0.1952
14017W        W29148   8.226  15.815   5.267  0.2607  0.0659 -0.0252
14018W        W29149  16.144   7.388   2.606 -0.0595  0.2120 -0.0986
14019W        W29150   7.538   4.439   1.996  0.1954  0.2525  0.2084
14020W        W29151   8.941  11.415   1.016  0.0756  0.1544  0.0768
14021W        W29152   1.112   9.619   0.072 -0.2640 -0.1995 -0.2950
14022W        W29153  17.354   9.691  14.305 -0.1878 -0.0101  0.0856
14023W        W29154  16.478  14.118   0.110  0.0268 -0.1396  0.0831
14024W        W29155  13.687  15.398   0.059  0.2800 -0.1926  0.1208
14025W        W29156  15.099   0.203   0.138 -0.1107  0.1318 -0.0109
14026W        W29157   5.745  16.407   5.276  0.4253 -0.0694 -0.2308
14027W        W29158   8.084  16.564   1.379  0.0808  0.0933  0.0123
14028W        W29159   4.300  15.048   6.094 -0.1517 -0.0822 -0.2453
14029W        W29160   7.579   2.459   4.646  0.0280  0.0564  0.1983
14030W        W29161   3.145  14.432   2.076 -0.1733 -0.0608 -0.1014
14031W        W29162   2.452   7.234  11.109 -0.3126  0.0302 -0.0599
14032W        W29163  15.918   2.322   4.281  0.0615 -0.1522  0.1150
14033W        W29164  10.571   9.613   5.270 -0.2722 -0.0220  0.4144
14034W        W29165  13.937   6.924   1.204 -0.3254 -0.0247  0.2409
14035W        W29166   9.849   2.144  14.887  0.0415 -0.1477  0.0460
14036W        W29167   3.870  12.161   4.293 -0.1881 -0.0368 -0.3636
14037W        W29168  14.510  16.671  16.237 -0.1134 -0.2853  0.0012
14038W        W29169  17.222   5.942   2.195  0.0770 -0.1312 -0.1985
14039W        W29170   2.278   8.692   2.550  0.0698 -0.0676 -0.2711
14040W        W29171   2.935  13.689  15.931 -0.0660  0.0046 -0.0513
14041W        W29172   0.140   2.130   2.269  0.2647  0.3753  0.1721
14042W        W29173   1.482   2.038   5.116 -0.3169 -0.0698 -0.0183
14043W        W29174  14.738  17.867   2.168  0.1078 -0.1133  0.0216
14044W        W29175  12.169  11.086  11.039  0.1546  0.1884  0.1463
14045W        W29176   0.822   6.054   5.185  0.0612 -0.1833 -0.1543
14046W        W29177   9.428  11.007  14.858 -0.0307  0.1858  0.1317
14047W        W29178   5.531  14.271  16.070 -0.1720  0.1207  0.2994
14048W        W29179  10.331   1.691   2.346  0.1308 -0.1214 -0.0240
14049W        W29180  11.588   7.963  11.795 -0.0878 -0.3939  0.0847
14050W        W29181  15.640  10.743   3.986  0.0675 -0.0843  0.2578
14051W        W29182   1.798  12.295  11.599 -0.1659  0.0146  0.1957
14052W        W29183   4.183  15.734   5.334 -0.3896 -0.2654 -0.0951
14053W        W29184  16.539   3.660   4.378  0.1152 -0.1764  0.1284
14054W        W29185   5.341   3.545   4.930  0.1591 -0.1702 -0.0597
14055W        W29186  17.050  12.487  13.546 -0.2476 -0.0377  0.0143
14056W        W29187  13.988   4.998  16.153 -0.0354  0.2054  0.1698
14057W        W29188   5.980  14.625   2.606  0.2235 -0.1306  0.1876
14058W        W29189   0.063  11.707  14.430 -0.0466  0.1297 -0.1480
14059W        W29190   7.151  14.909   2.123  0.2110  0.0589  0.1148
14060W        W29191   5.267   0.942  13.157  0.2467 -0.0523 -0.2378
14061W        W29192  15.369  13.364   4.590  0.0013  0.0190 -0.0214
14062W        W29193   2.340  11.870   1.886  0.1051 -0.1123 -0.0352
14063W        W29194  13.021  13.976   1.753 -0.2268 -0.0563  0.2169
14064W        W29195  14.063   6.252  11.951  0.0643 -0.0363 -0.1463
14065W        W29196  13.861   7.612   1.472  0.1774 -0.1091 -0.0532
14066W        W29197   1.166  10.654  10.196  0.0679 -0.2771  0.4382
14067W        W29198   2.468   0.056  12.536  0.0356  0.1630  0.0738
14068W        W29199   8.619  10.221   3.586 -0.1037  0.0687 -0.0719
14069W        W29200   3.097   5.663  13.083  0.2786  0.1109  0.0169
14070W        W29201  13.333  15.808  14.302  0.3456  0.1121 -0.0926
14071W        W29202   6.312   1.949   0.792 -0.3136  0.2755 -0.1344
14072W        W29203   9.760   7.738  11.453  0.1264  0.0404  0.0976
14073W        W29204   0.254   3.632   0.988  0.0276  0.0526  0.2838
14074W        W29205   9.885  11.677   2.724 -0.2317 -0.0005  0.1265
14075W        W29206   0.771   6.935   5.702 -0.0061 -0.3472 -0.0895
14076W        W29207   4.837  14.604  12.212 -0.2516 -0.1676 -0.2303
14077W        W29208   8.103   1.739   4.105 -0.1595 -0.0478 -0.0188
14078W        W29209   1.555   9.595  12.999  0.0846  0.3280 -0.1942
14079W        W29210   1.206  15.396   0.264 -0.1143  0.0766 -0.1178
14080W        W29211   2.417  11.104  16.535  0.2916  0.0515 -0.0747
14081W        W29212   9.847   3.522   4.231 -0.1706  0.1255  0.3582
14082W        W29213   4.806   9.081   5.468  0.1261  0.3488 -0.1384
14083W        W29214   0.882   9.786   3.695  0.0731  0.2129 -0.1142
14084W        W29215   1.975  14.503   0.325 -0.1028 -0.0782 -0.1314
14085W        W29216   4.557   3.603  10.973 -0.1606 -0.0814 -0.0121
14086W        W29217  15.129   9.450  12.214 -0.0318 -0.0841  0.1665
14087W        W29218   8.659   4.292   0.727 -0.1658  0.3828  0.2859
14088W        W29219   7.348   1.947  14.952  0.0429 -0.0628  0.2469
14089W        W29220   3.299  14.344   0.181 -0.0530 -0.0483  0.0097
14090W        W29221  11.348   9.455  11.688 -0.4922  0.3960 -0.1420
14091W        W29222   4.263  10.198  16.356 -0.2571 -0.0215  0.0131
14092W        W29223   0.410   9.749  14.089  0.4481  0.1031 -0.2368
14093W        W29224   6.143  11.611   2.487 -0.0157  0.1037  0.0135
14094W        W29225  11.745   8.650   1.394 -0.1542  0.0054  0.0700
14095W        W29226  13.198  12.938  14.659  0.0120 -0.4908  0.0424
14096W        W29227  15.098   6.600   5.780  0.3897 -0.0106 -0.0299
14097W        W29228   4.451   0.684   6.011  0.2070 -0.1155 -0.3371
14098W        W29229   2.313  12.680  12.379 -0.1202  0.0015 -0.2107
14099W        W29230   0.410  10.568   4.214  0.3215 -0.4273  0.4094
14100W        W29231  15.938   9.340  11.494  0.1302 -0.0468  0.0468
14101W        W29232   8.843  15.912   4.761 -0.0274  0.1885 -0.1601
14102W        W29233   5.731  13.299  15.983 -0.1089 -0.1697 -0.2487
14103W        W29234  15.537   8.632  12.316  0.0593  0.1991 -0.1043
14104W        W29235  12.007   5.102   2.003  0.0775  0.2733 -0.0133
14105W        W29236   1.110  13.448  13.701 -0.0815 -0.0942  0.3085
14106W        W29237   1.592   5.493   2.466 -0.0839 -0.2293 -0.0956
14107W        W29238  17.158  10.335   0.470  0.0655  0.1115  0.0770
14108W        W29239   6.429   9.951   3.709  0.2735 -0.1962 -0.2994
14109W        W29240   3.934   3.763   5.053  0.3038  0.1920 -0.3292
14110W        W29241  15.512   3.296  13.161 -0.2570  0.2207  0.1194
14111W        W29242   3.514   0.033  16.211 -0.1019  0.2176  0.2506
14112W        W29243   6.869   5.594   1.039 -0.0257 -0.1017  0.0436
14113W        W29244  16.174   6.821  13.492  0.0987 -0.0588 -0.4939
14114W        W29245  10.067  17.038   1.553 -0.1720  0.2264 -0.0231
14115W        W29246   4.666   3.717   5.522  0.4366 -0.1617  0.0221
14116W        W29247   5.371   3.862  16.209  0.0737 -0.0521 -0.2879
14117W        W29248   7.927   8.294  13.417 -0.0681  0.0758 -0.0653
14118W        W29249  13.863   8.352  11.053 -0.1470  0.0520 -0.2141
14119W        W29250   7.793   5.452   2.681  0.1254 -0.1033  0.3542
14120W        W29251   3.462   6.657  12.076  0.1034  0.0887  0.1687
14121W        W29252   2.541   8.555  14.964  0.3443 -0.0610 -0.0827
14122W        W29253  13.393  13.773  11.138  0.0781 -0.0928  0.2288
14123W        W29254   3.612  11.770  14.824 -0.0523 -0.4371  0.0709
14124W        W29255   5.570   4.184  14.505 -0.0376  0.0674  0.0001
14125W        W29256  16.959  13.895   0.170 -0.0202  0.2139  0.1871
14126W        W29257   3.016   5.497  12.169  0.1013 -0.3643 -0.3225
14127W        W29258   3.072  11.077  12.744  0.0535 -0.0058 -0.1110
14128W        W29259  17.858   7.862   6.299  0.0820 -0.1835  0.2708
14129W        W29260   9.676   6.657  15.202  0.0721  0.2754  0.2100
14130W        W29261   0.791  16.323  12.646 -0.0285  0.1691  0.0185
14131W        W29262  14.056   2.897   3.038 -0.0256 -0.1322  0.0957
14132W        W29263   1.100  13.576  14.231 -0.3684 -0.0267  0.1394
14133W        W29264   9.530   6.330  12.702 -0.1092  0.1913  0.3618
14134W        W29265  14.239   0.014   1.260 -0.1646 -0.0075  0.0452
14135W        W29266   4.919   6.612   2.548  0.2656  0.1921 -0.0054
14136W        W29267  13.926   6.371   2.028 -0.2495  0.1799  0.0045
14137W        W29268  16.867  15.817  10.422 -0.0864 -0.0937  0.0678
14138W        W29269  11.030  16.386   3.932 -0.0274  0.1383  0.1424
14139W        W29270  12.392   7.809  15.718  0.1077 -0.2491 -0.1412
14140W        W29271   9.710   8.541   0.888  0.3494  0.2000 -0.1081
14141W        W29272  14.202  14.105  15.724 -0.1905 -0.3404  0.0905
14142W        W29273  15.759   1.845  13.303  0.1703 -0.1599 -0.1311
14143W        W29274  11.329  15.323   4.935  0.0960  0.3962 -0.3548
14144W        W29275   6.210   1.119  16.078 -0.1843  0.0002 -0.0936
14145W        W29276   4.029  16.909   1.368  0.2110  0.0277 -0.1239
14146W        W29277  16.842  12.100  13.889 -0.1886  0.1043 -0.1261
14147W        W29278  16.425   6.897  11.167  0.0094  0.0101  0.0470
14148W        W29279  15.144  10.374  14.422  0.0293  0.1936 -0.2341
14149W        W29280   9.511  13.792  10.745  0.1377 -0.0747 -0.2021
14150W        W29281  17.598  10.912  13.218  0.1124 -0.0859 -0.3049
14151W        W29282   4.792   1.055  12.218 -0.0430  0.0589 -0.1377
14152W        W29283  13.800  13.707   2.806  0.1958  0.0225  0.1740
14153W        W29284   2.449   6.323   0.694  0.0717  0.1831  0.1049
14154W        W29285   9.053  17.696  14.978 -0.0964  0.0244 -0.1563
14155W        W29286  17.690   6.075  14.367  0.1364  0.2289  0.3354
14156W        W29287   1.621  14.079  15.876 -0.1618 -0.2467 -0.1032
14157W        W29288   0.025  14.353  16.357 -0.1501  0.1406  0.2756
14158W        W29289  17.191  17.720  15.938 -0.1626 -0.0493 -0.1555
14159W        W29290   7.353  13.035  11.903  0.0899  0.0244 -0.0514
14160W        W29291  16.304   0.760   1.292 -0.0422 -0.1435  0.0225
14161W        W29292   1.410   3.242   2.669 -0.0262 -0.2462  0.0954
14162W        W29293  13.966   6.329   0.011  0.2514  0.2522  0.0629
14163W        W29294  15.808   7.044  10.622 -0.2604 -0.0569 -0.4543
14164W        W29295  17.853  14.073   1.517 -0.0585  0.3473 -0.0043
14165W        W29296   5.328   0.037  14.059 -0.0617  0.0715 -0.1077
14166W        W29297  10.588   4.750  11.436  0.0430  0.2072  0.0728
14167W        W29298   9.624   2.319   0.858  0.2074 -0.0126  0.0051
14168W        W29299   7.743   6.648   4.442 -0.2532 -0.1919 -0.1130
14169W        W29300   3.632  11.263   2.909 -0.0456  0.0372 -0.0172
14170W        W29301   5.532   6.303  15.358  0.0461  0.2988  0.0578
14171W        W29302   5.594   3.647  13.588  0.0839  0.0523 -0.4603
14172W        W29303  12.975  15.258   5.498  0.0539  0.0121 -0.0329
14173W        W29304  14.182   4.611   3.372  0.1415  0.3147 -0.1056
14174W        W29305   0.363  12.577   2.692  0.2027 -0.3183 -0.0321
14175W        W29306   0.207   4.684  11.179  0.2476 -0.3378 -0.1040
14176W        W29307  14.510  14.685  11.719 -0.2248  0.1630  0.0216
14177W        W29308  13.027   9.449   3.561 -0.2268 -0.0553  0.0404
14178W        W29309   0.794  15.818   1.562 -0.1069  0.1051  0.0455
14179W        W29310   2.966   7.359  11.340  0.1026  0.1864 -0.0444
14180W        W29311  12.130  11.262  11.522  0.0469 -0.0896 -0.0917
14181W        W29312  16.808   8.349   1.120 -0.1933  0.2101 -0.0488
14182W        W29313  10.747  12.937  15.653 -0.0901  0.0331  0.0582
14183W        W29314   0.312  12.986  14.167  0.0912 -0.2579 -0.3620
14184W        W29315   3.170   2.241  16.235 -0.1239 -0.1743  0.0353
14185W        W29316   9.625   5.923  13.863 -0.2079  0.1900 -0.0315
14186W        W29317  12.378   5.338  11.445 -0.1944 -0.1267  0.1175
14187W        W29318  16.546   5.165   2.258 -0.2670 -0.0824  0.2664
14188W        W29319   4.022   0.561   0.187  0.0482  0.0507 -0.1305
14189W        W29320  14.786  16.823  14.122  0.2086 -0.0561 -0.0106
14190W        W29321   8.187   3.125   5.930  0.3393  0.2348 -0.5299
14191W        W29322  11.522  15.358  15.416 -0.0503 -0.0350 -0.2688
14192W        W29323   5.970  12.815  14.296 -0.0039 -0.2083  0.0310
14193W        W29324   9.756   9.721   3.035 -0.0356  0.2871 -0.1830
14194W        W29325  12.388  16.746  15.461  0.0808 -0.2599 -0.2774
14195W        W29326   4.369   4.161   0.506  0.2119  0.1203 -0.0360
14196W        W29327  14.277  11.718  15.208 -0.1487 -0.1368 -0.1125
14197W        W29328   9.005  15.946   2.516 -0.1451  0.0154 -0.1410
14198W        W29329   5.849   2.932  12.895 -0.2018  0.1700  0.1130
14199W        W29330  16.514   6.025  11.148  0.1533 -0.2292  0.1085
14200W        W29331  10.545   4.240  12.016 -0.1236 -0.2378 -0.1040
14201W        W29332   2.361  13.332  14.763 -0.0017  0.0407 -0.0308
14202W        W29333  12.112   1.918  14.868  0.3658  0.0293  0.1501
14203W        W29334   8.244  15.931   0.216  0.0682 -0.2495 -0.1227
14204W        W29335  10.386   9.266   3.109  0.0381  0.1312  0.1311
14205W        W29336  13.223  16.346  14.381 -0.1888 -0.1019 -0.0855
14206W        W29337  12.000   9.093  11.257  0.0612 -0.0623  0.0253
14207W        W29338   4.811   5.396   3.394  0.0850 -0.0770 -0.1936
14208W        W29339   8.125  10.596  13.705  0.1575 -0.0567  0.2879
14209W        W29340  15.283   9.972  12.015  0.0779  0.1901 -0.0537
14210W        W29341  15.922  15.518   1.533 -0.0128  0.0862  0.1454
14211W        W29342  16.278   1.537  15.911  0.1875  0.0214 -0.5343
14212W        W29343  14.419   7.997  12.853 -0.4549 -0.1692  0.0797
14213W        W29344  16.921   1.974   4.397  0.0909 -0.3217 -0.3662
14214W        W29345  12.377  16.370  10.209  0.1712 -0.0356  0.4108
14215W        W29346  10.116   3.569   4.675  0.0588 -0.0102 -0.1239
14216W        W29347   4.921   3.462  14.826 -0.1521  0.1748 -0.3473
14217W        W29348   3.361  17.719   0.261  0.3321 -0.1733 -0.1014
14218W        W29349  15.398   4.222   2.577  0.0623 -0.1209 -0.2016
14219W        W29350  14.835   7.910   1.466  0.2531  0.1461 -0.0469
14220W        W29351   7.057  16.044   0.363 -0.0336  0.2483 -0.0831
14221W        W29352  12.901   7.891   0.758 -0.1331 -0.0234  0.0130
14222W        W29353   3.852  14.073  13.955  0.2723 -0.1171 -0.4108
14223W        W29354   9.848   2.569  14.591  0.1352 -0.0605  0.1941
14224W        W29355   2.006   2.353  12.001  0.0382  0.0753  0.0303
14225W        W29356  11.110   5.801  12.191 -0.1569 -0.0419  0.0048
14226W        W29357   4.566  10.139   3.536 -0.0916 -0.1359 -0.1272
14227W        W29358   5.048   0.506   3.289  0.3224  0.1268 -0.0489
14228W        W29359   6.740   8.000   5.816  0.0828  0.0596  0.0506
14229W        W29360   3.861   0.735   5.327  0.1561 -0.0033  0.0279
14230W        W29361   0.692   0.443  11.882 -0.2934 -0.0824 -0.0781
14231W        W29362   9.694  16.662  12.385 -0.0506  0.0361 -0.2412
14232W        W29363  11.613  13.858  14.340  0.0080 -0.2568  0.1107
14233W        W29364   0.496   7.156   2.794  0.2331 -0.0522 -0.2227
14234W        W29365  13.161  15.364   2.458  0.0795  0.1223 -0.0470
14235W        W29366   0.331  14.868   0.178 -0.0299 -0.1581 -0.2894
14236W        W29367  12.269   7.841  13.349  0.1676  0.1578 -0.1898
14237W        W29368   4.078  10.822   1.609 -0.2025  0.2129  0.0877
14238W        W29369   2.533  17.864  11.893 -0.1456 -0.2574  0.0327
14239W        W29370   8.512   5.979  16.578  0.0371 -0.2825  0.5282
14240W        W29371  10.923   9.996   2.879 -0.0888 -0.0157  0.0078
14241W        W29372   2.140   8.305   3.191  0.0744 -0.0002  0.1751
14242W        W29373   0.250  13.038   0.646 -0.0019  0.0560  0.0754
14243W        W29374  11.349  15.388   0.180 -0.1812 -0.3037  0.0884
14244W        W29375  11.892   5.774   3.346  0.1832 -0.1995  0.0905
14245W        W29376   7.581   4.411  16.279 -0.1395 -0.1501 -0.0263
14246W        W29377   3.032  12.591   4.515 -0.2606  0.2124 -0.0670
14247W        W29378  10.097  11.432  15.179 -0.0883 -0.2262 -0.0638
14248W        W29379   2.318  15.394   2.642  0.0617  0.3121 -0.2795
14249W        W29380  13.635   6.336  11.279 -0.1852  0.0575 -0.0215
14250W        W29381   8.169   7.559   3.323  0.1990 -0.0406 -0.0565
14251W        W29382   0.872  16.452   3.338 -0.3326  0.1711  0.0088
14252W        W29383   3.167  10.859  11.537 -0.1641 -0.2274 -0.2337
14253W        W29384  12.038  11.931   5.588  0.0410  0.4172 -0.4485
14254W        W29385   6.562   1.856  15.752  0.3623 -0.0396 -0.2050
14255W        W29386   0.267  12.273  12.054 -0.1552 -0.1117  0.1849
14256W        W29387   8.555  11.388  15.693  0.1734 -0.0266 -0.0078
14257W        W29388   3.686   8.932   1.947  0.3814  0.1253  0.0065
14258W        W29389   2.723  11.854  11.460 -0.0607 -0.2016 -0.0808
14259W        W29390   4.045   1.006  15.064  0.1962 -0.0317  0.0318
14260W        W29391  10.513  13.967   1.191  0.1863  0.0562  0.1367
14261W        W29392  16.556   1.243  13.786 -0.1505  0.2193  0.0920
14262W        W29393  11.541  15.631  13.840  0.4000 -0.0523 -0.2159
14263W        W29394  15.199   9.525   2.452 -0.0232  0.0464  0.0918
14264W        W29395  13.359  14.127  16.449 -0.1978 -0.0050  0.2597
14265W        W29396   8.707   7.389   0.230 -0.1179  0.0154  0.0714
14266W        W29397  12.439   4.128   2.697 -0.1368  0.0729  0.1133
14267W        W29398  10.103   5.833   3.385 -0.1008  0.2093 -0.0039
14268W        W29399  13.982   1.183  16.721  0.0553  0.1910 -0.2100
14269W        W29400   9.584   5.132  14.206 -0.3155 -0.0430  0.0078
14270W        W29401   1.482  12.659   3.975  0.1090 -0.1174  0.4289
14271W        W29402   6.235   4.578   0.377 -0.2778  0.5835 -0.0204
14272W        W29403  15.323  17.541   5.674 -0.1542 -0.0115  0.4922
14273W        W29404  16.657   5.289  15.044  0.0683  0.0605  0.1877
14274W        W29405  16.798   6.337   5.383 -0.0601  0.0470 -0.1938
14275W        W29406   3.491   0.535   2.144 -0.2494 -0.0992 -0.0992
14276W        W29407   1.635  12.769  10.898  0.1041  0.0586 -0.3123
14277W        W29408   1.278  12.299  15.828  0.0701 -0.1489 -0.0201
14278W        W29409  17.395  15.359   6.488 -0.2229 -0.0515  0.1656
14279W        W29410   7.483  14.642   2.418  0.0190  0.0013 -0.2151
14280W        W29411   4.415   9.778   4.328  0.0188 -0.3765 -0.0080
14281W        W29412  12.428   3.966  14.682 -0.1843  0.0289  0.0357
14282W        W29413   9.406   7.903   4.898 -0.0989 -0.0609  0.1144
14283W        W29414   1.436   0.276   3.273 -0.1347  0.3074 -0.0452
14284W        W29415  15.624   5.509  13.015 -0.1469 -0.0832  0.1800
14285W        W29416   7.232   3.698  12.215  0.0846  0.2343 -0.0655
14286W        W29417   1.730  11.418   0.798 -0.2046 -0.0299 -0.2571
14287W        W29418  15.799   8.586   1.347  0.0622 -0.0420 -0.1432
14288W        W29419   4.003   6.408  13.833 -0.1463 -0.0388  0.2372
14289W        W29420   8.440  12.666   1.236 -0.1096 -0.1913  0.0000
14290W        W29421   1.893  11.177  16.358 -0.0006  0.1515  0.2931
14291W        W29422   4.673  16.346   3.674  0.0541  0.3280 -0.0134
14292W        W29423  11.153   8.473   5.877 -0.1201  0.2073  0.0685
14293W        W29424  15.256   2.730   5.247  0.2780 -0.2055  0.0653
14294W        W29425   0.417   9.224   0.468  0.2623 -0.0308 -0.3684
14295W        W29426   3.469   5.365  10.304 -0.3632  0.2657  0.1183
14296W        W29427  11.165  12.935  14.441 -0.0330  0.1475 -0.1299
14297W        W29428  14.828  11.290   2.902  0.0898 -0.1451 -0.2116
14298W        W29429   8.606  16.758  12.725 -0.1600 -0.3907  0.2491
14299W        W29430   4.939  17.071  11.964 -0.2272  0.2359 -0.0332
14300W        W29431   8.534  17.589  13.056  0.1150  0.2151 -0.1641
14301W        W29432  13.828  17.558  14.638 -0.3227 -0.1063 -0.0205
14302W        W29433  12.937  14.420   2.106  0.0096  0.1541 -0.0373
14303W        W29434  16.691  17.774  15.107 -0.0313  0.1716 -0.1850
14304W        W29435  15.787   0.807   3.154  0.1679  0.3174 -0.0941
14305W        W29436   4.807   7.785   1.934 -0.0662 -0.0522  0.0814
14306W        W29437   5.794  13.147   2.484  0.1390  0.0389 -0.1785
14307W        W29438   0.751  15.817   4.384 -0.0305 -0.1659  0.1249
14308W        W29439  11.365  16.855  15.538  0.0160  0.1516  0.0836
14309W        W29440   9.179   8.426   4.237  0.1030  0.2568 -0.0452
14310W        W29441  12.722  17.245   4.137  0.0454 -0.3093  0.1241
14311W        W29442   1.249   1.593   5.215 -0.2227  0.3053 -0.4743
14312W        W29443   1.356   9.367  11.040  0.0208 -0.2873  0.2904
14313W        W29444   3.315   3.206  11.565 -0.0481  0.3735  0.0978
14314W        W29445   9.856   6.408   0.721 -0.2523  0.5205 -0.0387
14315W        W29446  17.787   9.673   1.158 -0.0783 -0.0469  0.1805
14316W        W29447  14.764   2.421  11.270  0.0981 -0.0808 -0.0183
14317W        W29448  10.038  12.073  11.633  0.0422 -0.0988  0.1138
14318W        W29449  16.546  15.565   5.777  0.3378  0.3169 -0.0619
14319W        W29450   7.901   0.587   0.122  0.2142 -0.1654 -0.0754
14320W        W29451  15.277   1.742  10.843 -0.0132  0.2784 -0.1968
14321W        W29452   4.182  17.400   2.246 -0.6661 -0.1247 -0.1315
14322W        W29453   1.428   4.194  12.073  0.1580  0.2658 -0.0623
14323W        W29454  12.844  12.224   0.365 -0.0441 -0.0387  0.0264
14324W        W29455  13.128  14.011   4.429 -0.0621  0.1685  0.1402
14325W        W29456   0.984   4.612   0.195  0.0776 -0.0595  0.0132
14326W        W29457  13.534   4.190  12.595  0.3737  0.0230  0.1516
14327W        W29458  13.700   0.604   3.644  0.1335 -0.0427 -0.1477
14328W        W29459   6.778   3.866  12.267  0.0256 -0.0624 -0.1055
14329W        W29460   7.179  16.262  11.750  0.0880  0.0449 -0.1040
14330W        W29461  17.184  13.798  11.710  0.2616 -0.3708 -0.4291
14331W        W29462   5.512   1.554   3.859  0.1332  0.0952  0.0883
14332W        W29463   2.123  11.477   1.599 -0.1317  0.1564 -0.2281
14333W        W29464  12.112  16.155  15.493  0.0660  0.2301  0.0695
14334W        W29465  14.237  15.481  12.087  0.0391 -0.2384  0.0347
14335W        W29466   4.501  17.456   0.918 -0.0085 -0.1500 -0.0829
14336W        W29467   7.336  16.803   5.003  0.1103 -0.2728  0.0694
14337W        W29468   7.493   3.053   4.722 -0.1305 -0.1331 -0.4158
14338W        W29469   6.243  12.292   1.644 -0.0859 -0.1823  0.2412
14339W        W29470   6.854   3.005   5.782 -0.2987 -0.0473  0.1635
14340W        W29471  10.755   3.482  12.447  0.1295 -0.1479 -0.4941
14341W        W29472  13.966   6.887   3.064  0.1661  0.0136  0.0849
14342W        W29473   2.049   1.854   3.816  0.2068  0.1997  0.3174
14343W        W29474   3.088  16.286   2.186  0.0913 -0.3913 -0.2742
14344W        W29475  12.431   6.051  13.414 -0.0042  0.0878  0.0890
14345W        W29476   4.733  10.901   2.352 -0.1739 -0.1482 -0.0243
14346W        W29477   0.009   9.455   4.223  0.1698 -0.1015  0.1548
14347W        W29478  12.481  17.323   1.314 -0.0413  0.0224 -0.1328
14348W        W29479  12.031   8.166  11.896  0.1080  0.1675  0.1244
14349W        W29480  17.038   3.851  16.220 -0.0123 -0.2134  0.1258
14350W        W29481   3.337   8.060   1.178  0.0934  0.1576  0.0434
14351W        W29482   2.644  17.779  15.777  0.0008  0.2846 -0.1294
14352W        W29483   7.692   8.265  11.802 -0.0407  0.3590 -0.0928
14353W        W29484   6.333   0.886   2.309 -0.3066 -0.1283  0.1626
14354W        W29485   7.944  14.839  15.049 -0.2629  0.0248  0.1669
14355W        W29486  11.978  14.029   0.050 -0.1356  0.0654  0.0852
14356W        W29487   7.971  12.018   0.666 -0.0031 -0.0591  0.0471
14357W        W29488   4.542  17.832  13.786  0.1732  0.1390 -0.2035
14358W        W29489   3.512   4.512   4.029  0.0074  0.3690 -0.1679
14359W        W29490   5.362   8.891   0.497 -0.2277 -0.0180  0.2131
14360W        W29491   3.650   1.732  14.191  0.0929 -0.0284  0.1063
14361W        W29492   6.332   4.811   3.846  0.2286 -0.1994 -0.0516
14362W        W29493  10.142  14.678  15.601 -0.0440 -0.0356 -0.0559
14363W        W29494  14.438   4.343  11.413 -0.0529 -0.1108 -0.2577
14364W        W29495  15.274  14.738  15.624 -0.0037 -0.1553  0.1796
14365W        W29496   1.847   3.340   4.686 -0.2227  0.1304 -0.2389
14366W        W29497   3.064   7.747  14.696  0.2939 -0.1531  0.2630
14367W        W29498   2.316  13.272   2.632 -0.1541  0.1563 -0.0654
14368W        W29499   2.874   2.793  16.696 -0.1920 -0.1196  0.2749
14369W        W29500  12.814   0.500   1.959  0.2889 -0.0946  0.3174
14370W        W29501   2.449  13.602  13.118 -0.0596  0.0520 -0.0572
14371W        W29502  10.630   6.275   2.567 -0.0757 -0.0441 -0.4503
14372W        W29503   5.783   5.075  13.721  0.4027 -0.1754 -0.2802
14373W        W29504  11.407   9.219  13.716  0.1209 -0.0286 -0.2185
14374W        W29505  11.190   2.224  12.272  0.0166 -0.2695  0.3716
14375W        W29506  12.204  12.591   3.236 -0.0364  0.0608 -0.2896
14376W        W29507  17.475  13.124   1.753  0.2710  0.4075  0.2200
14377W        W29508   0.444   0.499  14.025  0.0187  0.1454 -0.2055
14378W        W29509   4.752   2.157  14.394  0.0260 -0.1160 -0.2607
14379W        W29510   6.296   4.060   4.788 -0.0056  0.2324 -0.3422
14380W        W29511  12.308  10.974   3.255  0.3018 -0.0813  0.0303
14381W        W29512  12.227   7.308  13.021  0.0629 -0.4114 -0.0053
14382W        W29513   6.902  13.741  11.573  0.0745  0.1273 -0.2022
14383W        W29514   7.648   8.105   0.638  0.1111 -0.3369  0.0395
14384W        W29515   1.246  11.136  15.079  0.0646  0.0599 -0.1014
14385W        W29516   0.751   9.775   2.552  0.0189 -0.1950  0.1463
14386W        W29517  10.067   4.527  15.920  0.0431  0.2098  0.0763
14387W        W29518  17.759  13.205  12.226  0.2226  0.0314 -0.1651
14388W        W29519   1.070  16.260   2.924 -0.1742 -0.0707  0.3374
14389W        W29520   4.078  16.189  16.270  0.0304  0.1483 -0.1418
14390W        W29521  16.118   4.209  11.665 -0.1790  0.4327  0.0713
14391W        W29522   8.956  12.498   4.458 -0.1133 -0.0284  0.2488
14392W        W29523  13.184  13.490   2.004  0.1586 -0.2743 -0.0445
14393W        W29524  11.704  11.686  13.357  0.1217 -0.1050 -0.1334
14394W        W29525   5.937   3.510   2.101 -0.0305 -0.1626  0.1536
14395W        W29526  13.741  10.553   0.937 -0.1388  0.0957 -0.1892
14396W        W29527  11.442   3.872  11.845  0.1439  0.2752 -0.1335
14397W        W29528   7.226   2.797  15.889  0.0592 -0.1340 -0.0221
14398W        W29529  16.029   9.184  11.984  0.1100  0.0645  0.0492
14399W        W29530   1.982   2.144  15.895  0.0981  0.0602  0.1244
14400W        W29531  10.018   6.088   3.845 -0.2317 -0.3328  0.1774
14401W        W29532   3.898   1.000  11.355 -0.0742 -0.0397  0.1058
14402W        W29533  17.621   5.106  12.881 -0.0625 -0.3050  0.1966
14403W        W29534  13.053   3.361   5.464 -0.0763 -0.2228  0.0621
14404W        W29535   7.921  12.707   0.463 -0.3003  0.0181 -0.1859
14405W        W29536   2.884   3.230   0.954  0.0681 -0.0228 -0.1410
14406W        W29537   5.974  15.105  16.152 -0.0684 -0.1430 -0.0747
14407W        W29538   1.658  13.727  11.530 -0.3651 -0.2063  0.0955
14408W        W29539   9.875   7.879   2.922 -0.1794  0.0217  0.0089
14409W        W29540   1.101  14.435   2.769 -0.0097 -0.1098 -0.0375
14410W        W29541  12.195   9.954   2.631  0.0721 -0.1884 -0.2248
14411W        W29542  14.415   0.945   0.125  0.1298  0.0345  0.1728
14412W        W29543   5.018   7.884  11.864 -0.4365 -0.1290  0.0503
14413W        W29544   2.540   0.610   5.344 -0.0703 -0.2222  0.0222
14414W        W29545   7.057  16.305  14.371 -0.1165  0.0309  0.0738
14415W        W29546  16.760  12.507   5.177  0.2101  0.1735  0.0016
14416W        W29547  13.813  13.665  16.069  0.1994  0.0076 -0.4906
14417W        W29548   4.266   8.032  16.755 -0.0529 -0.2002 -0.0796
14418W        W29549  12.926  17.389  14.968 -0.0310  0.1913 -0.0207
14419W        W29550   9.014  15.761   5.644 -0.0025 -0.3743 -0.2484
14420W        W29551   0.783  12.354  11.727  0.4399 -0.1198  0.3743
14421W        W29552  15.028   4.241   6.311  0.2497 -0.1987 -0.2614
14422W        W29553  13.141   6.740  13.880  0.3023  0.2395 -0.0309
14423W        W29554  14.665   6.179  14.508  0.0132 -0.2749 -0.2124
14424W        W29555  14.163   8.686  10.778 -0.0008 -0.3597  0.2314
14425W        W29556   1.421   1.935  11.695 -0.0655  0.3295 -0.0771
14426W        W29557   0.415   1.920   5.760  0.4481  0.2731 -0.1354
14427W        W29558  14.523   0.851   4.689  0.0057  0.0580  0.2142
14428W        W29559  15.793  14.098  12.141 -0.0784  0.4218 -0.0034
14429W        W29560  14.340   5.094   6.295  0.0036  0.1603  0.1379
14430W        W29561   1.477  16.179   6.095  0.0819  0.1623  0.3177
14431W        W29562   9.831   0.774   2.200 -0.1104 -0.0864  0.0546
14432W        W29563   8.962  17.262  14.262 -0.0888 -0.2410  0.0826
14433W        W29564  10.771  16.431  13.035  0.0549  0.1573 -0.0207
14434W        W29565  16.838   0.066   6.053 -0.0883  0.1420 -0.0361
14435W        W29566   0.940   1.325  15.894  0.1072 -0.0081 -0.2513
14436W        W29567  15.399  11.900  11.735  0.2427  0.0733 -0.0154
14437W        W29568   1.253   4.176   0.632 -0.4108 -0.0137  0.2095
14438W        W29569  17.070  10.823   5.549  0.1553 -0.0865 -0.2590
14439W        W29570   0.638  11.895   4.256 -0.0575 -0.2101 -0.2039
14440W        W29571  16.995  13.219  16.387 -0.1085  0.0883 -0.0863
14441W        W29572   8.678   9.630  10.645 -0.1797  0.0293  0.1294
14442W        W29573   4.969  15.922   0.346  0.0312 -0.1865  0.0353
14443W        W29574  13.972   1.743  13.235 -0.4108  0.2246  0.1889
14444W        W29575  15.819  15.491   0.523 -0.2943 -0.1165 -0.0666
14445W        W29576   5.071  14.774   0.170  0.0765  0.3110  0.2872
14446W        W29577   6.446  15.871  12.134  0.2038  0.1443  0.2673
14447W        W29578   9.312  16.383  10.277  0.0985 -0.1265  0.1770
14448W        W29579   1.797   7.729   4.214 -0.2808  0.0898 -0.1043
14449W        W29580  14.205  14.734   0.484  0.0958  0.0937 -0.2360
14450W        W29581   2.203   1.794  13.883 -0.2626 -0.1755 -0.2441
14451W        W29582   7.048  12.192  10.792 -0.0522 -0.3006 -0.1109
14452W        W29583   8.179  17.372   2.989 -0.0151 -0.0008  0.4243
14453W        W29584   6.175   2.022   1.685 -0.2196 -0.1398 -0.0983
14454W        W29585   2.522   7.392  11.569  0.0620 -0.0175 -0.4412
14455W        W29586   3.049   8.975   3.655 -0.0525  0.3453  0.0169
14456W        W29587   7.984   3.444   0.014 -0.1152  0.0826  0.2198
14457W        W29588  10.321  11.425  11.533  0.4370 -0.3056 -0.3323
14458W        W29589   6.596   7.641  14.147  0.1294 -0.0495 -0.1839
14459W        W29590  16.795   8.094   3.534  0.1974  0.1580 -0.0776
14460W        W29591  10.725  13.088   1.390  0.3281  0.1047  0.0865
14461W        W29592  13.373  12.042   3.617  0.0400 -0.0266 -0.2028
14462W        W29593   4.096   8.689   0.548 -0.1062  0.1499 -0.0052
14463W        W29594  16.230   4.414   2.540 -0.0220  0.1645 -0.1451
14464W        W29595  15.609  15.585   2.776  0.2485 -0.2376  0.1848
14465W        W29596  16.332  15.620  15.925  0.5780 -0.2017  0.1086
14466W        W29597  15.987  11.654   1.827 -0.2812  0.4485  0.1699
14467W        W29598   9.735  17.675   2.039 -0.0397 -0.0030  0.3662
14468W        W29599   6.217  15.646  13.130  0.0790  0.0900  0.2232
14469W        W29600   6.627  13.719   2.087 -0.0190  0.1390 -0.0202
14470W        W29601  12.931   3.792   5.115  0.2372  0.0094 -0.1811
14471W        W29602  17.365   6.152  12.918 -0.0416 -0.0200 -0.2742
14472W        W29603   0.742  16.595   2.172 -0.1095 -0.0640 -0.1135
14473W        W29604   0.333   7.832  14.015 -0.1231  0.0883  0.2433
14474W        W29605   0.986   2.147  11.479 -0.2867  0.1752  0.0437
14475W        W29606   2.049   6.357   5.085 -0.0914 -0.1153 -0.0934
14476W        W29607  17.479   8.863   5.341  0.0533 -0.2684  0.0688
14477W        W29608  11.114   6.058   0.321 -0.0450  0.1852  0.0753
14478W        W29609  12.298  13.015   0.487 -0.1977 -0.1904 -0.0048
14479W        W29610  11.925   4.686  13.289 -0.0490  0.2853  0.0772
14480W        W29611   2.899   9.888   1.237 -0.0372  0.1494 -0.0513
14481W        W29612  17.245   8.235   5.724 -0.0626  0.3631  0.0114
14482W        W29613   5.317   0.944  14.362  0.0572 -0.1562  0.0234
14483W        W29614  11.022   7.470  13.130 -0.1969 -0.2928 -0.4398
14484W        W29615  14.097  13.470  11.920  0.1141 -0.1260  0.1215
14485W        W29616   5.654   2.310  16.548  0.4036 -0.3256 -0.0263
14486W        W29617  11.007   3.681  13.735 -0.0612 -0.2751 -0.0369
14487W        W29618   9.565   7.985   1.784 -0.2217  0.0392  0.0459
14488W        W29619   6.117  15.877   5.577  0.0809  0.0119  0.1009
14489W        W29620   0.483   9.411   2.268  0.2777 -0.0762 -0.0341
14490W        W29621   0.867  13.691   2.776  0.0389 -0.0390  0.0566
14491W        W29622   6.818  14.129   2.118 -0.1959 -0.0307  0.2936
14492W        W29623  16.359   9.862  14.890  0.1651 -0.2200  0.2773
14493W        W29624  16.130  11.822   5.124 -0.3296 -0.0100 -0.3237
14494W        W29625  11.061   4.410   5.460 -0.3041 -0.0620  0.1023
14495W        W29626  10.337   5.648  12.999 -0.0817  0.1604  0.2552
14496W        W29627  12.997  11.973  16.757  0.1792 -0.4588 -0.0411
14497W        W29628   9.573   6.249   2.670 -0.1010  0.2018 -0.1297
14498W        W29629  10.711   3.076  15.744  0.2258 -0.1823 -0.2521
14499W        W29630   4.626   0.763  11.880  0.2885  0.1463  0.5028
14500W        W29631  10.404  12.552  13.474 -0.2821  0.0766  0.0903
14501W        W29632   5.695  13.268   0.368 -0.1109 -0.0174  0.1124
14502W        W29633   0.681  10.043  13.273  0.0650  0.0129 -0.2462
14503W        W29634  14.359   8.308  15.222  0.1208  0.0641 -0.0426
14504W        W29635  16.303   5.297  11.540  0.1021 -0.0914  0.0009
14505W        W29636   6.538   9.269   3.975  0.2429  0.0303 -0.0818
14506W        W29637   4.131   2.105  13.235  0.1071 -0.1156  0.0699
14507W        W29638  14.685  11.382  16.025  0.1272  0.2576  0.1330
14508W        W29639   0.916   3.644   4.426 -0.0566 -0.3793 -0.3185
14509W        W29640   9.280  15.256   5.066  0.1540 -0.1858  0.3976
14510W        W29641   3.110  11.287   2.731 -0.2285  0.0479  0.1185
14511W        W29642  17.186   8.421  12.698  0.2454  0.1406  0.2247
14512W        W29643  13.773   4.816   5.225 -0.1494  0.0921  0.1055
14513W        W29644   6.635   4.714  13.539  0.0849 -0.0473  0.0872
14514W        W29645   7.866   3.533  10.371 -0.1680  0.2895 -0.0054
14515W        W29646  14.201   7.791  11.969 -0.1007 -0.2955  0.3428
14516W        W29647  10.244   0.720   3.046 -0.3074  0.3376 -0.2852
14517W        W29648  12.104   3.508  16.611 -0.0426 -0.0151 -0.2916
14518W        W29649   3.771   5.153  15.745 -0.1727 -0.2477 -0.0446
14519W        W29650   3.587   9.852  13.109  0.0234 -0.0277 -0.2530
14520W        W29651   1.992   9.488   0.800 -0.5089 -0.2337  0.2399
14521W        W29652  11.538   0.236   1.869 -0.3164  0.0331 -0.0302
14522W        W29653   1.664   7.134   0.603 -0.3705  0.1571 -0.0865
14523W        W29654   7.695   7.847  12.124  0.0999  0.1690 -0.3455
14524W        W29655   6.601  11.233  16.508 -0.3031  0.4231  0.0510
14525W        W29656   3.385   4.714   3.561 -0.1663  0.0122 -0.2872
14526W        W29657  10.115   9.499  12.746  0.0443 -0.0694  0.0117
14527W        W29658  13.419  11.014  12.912 -0.1657  0.0808 -0.0762
14528W        W29659  11.480   4.078  13.936 -0.2066  0.1936  0.2906
14529W        W29660   6.090   9.024   1.921  0.2246  0.0398 -0.0822
14530W        W29661  17.294  16.860  13.729  0.0082  0.0718 -0.0710
14531W        W29662   2.087   7.138  15.190 -0.2978 -0.0160 -0.0244
14532W        W29663  15.581  12.671  13.957 -0.4635 -0.2204 -0.3748
14533W        W29664  15.193   7.990  11.693 -0.0786 -0.0993 -0.1396
14534W        W29665   9.197   2.354   6.016  0.0615 -0.2445  0.2531
14535W        W29666  16.239  16.489  15.304  0.2092  0.0010  0.2552
14536W        W29667   1.478  12.058  13.353 -0.0420  0.0846 -0.2192
14537W        W29668  13.608  15.505   2.555 -0.1121  0.1354 -0.0662
14538W        W29669   2.382   6.969   4.951  0.0382 -0.0852 -0.1327
14539W        W29670  13.796  11.982   3.289  0.1575  0.0759 -0.1796
14540W        W29671   5.524  15.971  12.171  0.1862  0.1442  0.2928
14541W        W29672   3.884   9.953  12.368 -0.1157 -0.1858  0.0708
14542W        W29673   1.312   9.402   1.853 -0.0067 -0.0704  0.0793
14543W        W29674   3.696  12.966   3.865  0.0871  0.1360  0.2430
14544W        W29675   0.785   4.141  14.649  0.0016 -0.1270 -0.0657
14545W        W29676   8.458   3.863  12.442 -0.2924  0.1713 -0.0354
14546W        W29677   9.948   7.099  14.047 -0.1597 -0.0957 -0.3477
14547W        W29678  16.386   8.984   4.762  0.1255  0.2442  0.0695
14548W        W29679  17.077   6.133   4.415  0.1448 -0.0317 -0.1037
14549W        W29680   8.866   0.687  13.612 -0.0575  0.2360  0.0220
14550W        W29681   7.359  15.778   3.176 -0.1921 -0.0749  0.3793
14551W        W29682   8.347   5.673   4.415 -0.2775 -0.0509  0.1279
14552W        W29683   4.125  12.876  11.978  0.5349  0.1429  0.0634
14553W        W29684   8.813  12.528   0.146  0.0008  0.2476  0.3323
14554W        W29685   6.949  14.890  15.956 -0.1426  0.0396 -0.1937
14555W        W29686   9.387   9.447   0.669 -0.2767  0.2430 -0.3738
14556W        W29687   5.709   1.802   1.571 -0.0242 -0.1967  0.1433
14557W        W29688   5.670   8.063  11.682 -0.1222 -0.1177 -0.2300
14558W        W29689  16.850   6.346   0.680 -0.3125 -0.2638 -0.2552
14559W        W29690   5.218   3.745   2.479 -0.1849 -0.1604  0.0067
14560W        W29691   9.910  14.743   1.081 -0.0926 -0.1155  0.3040
14561W        W29692  12.790  11.029   3.301  0.3229 -0.0571  0.2163
14562W        W29693   1.311   6.539   2.515 -0.3300  0.0208 -0.1711
14563W        W29694  16.337  11.261   0.541  0.1549  0.0568 -0.0153
14564W        W29695   7.862   3.510   9.753 -0.0958  0.0370 -0.0601
14565W        W29696  12.231   4.665  15.687 -0.1917  0.1070 -0.2431
14566W        W29697  17.029   7.529  16.141  0.0456 -0.1493  0.0432
14567W        W29698  14.683  16.145  11.940  0.0715 -0.0012 -0.0616
14568W        W29699  12.501   4.798   5.997  0.1398 -0.2511  0.1349
14569W        W29700  13.562   1.993  12.613 -0.1758  0.1298 -0.1740
14570W        W29701   6.245   7.602   5.040  0.0493 -0.2832 -0.3272
14571W        W29702  13.170  13.352  11.886 -0.1113  0.0771  0.1813
14572W        W29703  15.370   4.945   3.723  0.0292  0.0185 -0.1840
14573W        W29704   4.240  13.920   2.677 -0.1037 -0.1460  0.3406
14574W        W29705  13.174   6.439  11.919 -0.1068  0.0448  0.2331
14575W        W29706   5.416  12.397  16.136 -0.1836  0.1184 -0.1270
14576W        W29707  14.227  12.225   3.268 -0.1699  0.0583  0.0486
14577W        W29708   7.246  13.631  12.059  0.1000 -0.1718 -0.1023
14578W        W29709  14.256   6.901  10.465  0.1374 -0.0685  0.0255
14579W        W29710   2.946   3.599  16.263 -0.0166 -0.0308  0.1597
14580W        W29711   2.399   4.905  16.305  0.1574  0.2648 -0.1651
14581W        W29712   1.479   6.344  15.389 -0.1028 -0.0986 -0.1007
14582W        W29713   1.166  12.658  14.020 -0.1915  0.0148 -0.0729
14583W        W29714   3.084   8.553   5.942  0.0692 -0.2848 -0.2620
14584W        W29715   4.470   8.137  16.298  0.1692 -0.1408 -0.1818
14585W        W29716   5.593   9.486  15.661  0.0409 -0.1933  0.1468
14586W        W29717   4.347  10.051  13.450  0.1456 -0.0652 -0.3809
14587W        W29718   2.602  11.421   0.128  0.2960 -0.2408  0.0114
14588W        W29719   7.217   5.661   1.571 -0.1796  0.3491 -0.1269
14589W        W29720   1.340   4.536   2.131 -0.1825  0.2916  0.1763
14590W        W29721  13.287   8.308   5.912 -0.0798  0.2188 -0.0745
14591W        W29722   6.045   3.852  11.956  0.1590 -0.1456 -0.4550
14592W        W29723  15.722   6.604   4.068 -0.0815 -0.1919 -0.1085
14593W        W29724  17.322   5.142   5.363 -0.1506 -0.1412 -0.5154
14594W        W29725   3.376   2.246  12.575  0.0448  0.2484 -0.0563
14595W        W29726  15.474  13.322  15.907 -0.1293 -0.1028 -0.0283
14596W        W29727   4.558  13.715   1.282 -0.0934 -0.0804 -0.0809
14597W        W29728   2.495   6.325  15.003  0.0399 -0.1354 -0.1075
14598W        W29729   4.556   5.400   2.986 -0.0620  0.0441 -0.1268
14599W        W29730   9.194   1.467  10.727  0.1066  0.0100  0.2908
14600W        W29731   0.486   2.965   4.750 -0.2246  0.0717  0.2554
14601W        W29732  17.859   9.248  16.211  0.1639  0.0769  0.0368
14602W        W29733  14.663  13.733  15.705 -0.0326  0.1147  0.2766
14603W        W29734  15.216  14.862   3.301 -0.1000  0.1844  0.0120
14604W        W29735  16.595  11.740   1.061  0.0115  0.0829  0.0003
14605W        W29736   6.113   3.101  13.264 -0.0482 -0.1386  0.2169
14606W        W29737  11.721  13.773   5.463 -0.1226  0.1575  0.1734
14607W        W29738   4.395   6.673   1.166 -0.1724 -0.0444 -0.0971
14608W        W29739  15.878  16.487   2.130  0.0462  0.1739  0.1510
14609W        W29740  14.351   1.205   1.966  0.1226  0.0019 -0.1527
14610W        W29741  17.819   5.390   2.113 -0.0193  0.0282  0.0654
14611W        W29742  14.264  12.099  12.914  0.0826 -0.3270 -0.0758
14612W        W29743   8.780   0.016  12.192 -0.0480 -0.1025  0.1574
14613W        W29744  12.361   8.674  14.427  0.0607 -0.0939 -0.0278
14614W        W29745   4.934   2.946  13.933  0.0118 -0.0714 -0.1366
14615W        W29746   9.624   9.189   2.326  0.0709  0.1907  0.0127
14616W        W29747   2.161   7.083  11.673  0.1192 -0.1872 -0.0180
14617W        W29748  16.648  11.971  14.962  0.1211  0.2013  0.1023
14618W        W29749  10.082  14.951  16.187 -0.0674  0.0656 -0.2005
14619W        W29750  17.304   3.638  15.080  0.1724 -0.3596 -0.0043
14620W        W29751  11.034  11.825  15.689  0.0289  0.1869  0.1696
14621W        W29752   4.383  11.620   4.159 -0.0323  0.1293 -0.2798
14622W        W29753  13.280   3.540   3.799 -0.1052  0.2066 -0.2701
14623W        W29754  10.799   4.715  14.301 -0.1612 -0.0187 -0.0459
14624W        W29755   0.226   9.871  12.417  0.1240 -0.1091  0.1788
14625W        W29756  12.098  11.039  15.010 -0.0541 -0.0282 -0.1881
14626W        W29757  10.473  12.809   1.089 -0.1712  0.0427 -0.2510
14627W        W29758   8.091   4.396  14.272  0.0509 -0.0528  0.0932
14628W        W29759   7.530   8.323   4.975  0.0065 -0.0633 -0.2031
14629W        W29760  12.634  17.467  16.646 -0.0953  0.2926  0.2393
14630W        W29761  12.127  11.271   5.734 -0.0168 -0.1269 -0.0620
14631W        W29762  15.290   4.093   4.443  0.1416 -0.0615  0.1505
14632W        W29763   7.374   5.513  13.551 -0.1327 -0.3033 -0.2993
14633W        W29764  17.089   0.785  16.439 -0.1745  0.2208  0.2070
14634W        W29765  17.067   9.402   2.633 -0.2036  0.0654 -0.1892
14635W        W29766  16.104  17.548  15.068 -0.2050 -0.0946 -0.1907
14636W        W29767   8.710  16.971  15.732 -0.0352  0.0420  0.2300
14637W        W29768  16.669   8.027   2.964  0.0270  0.3728 -0.0915
14638W        W29769   3.934  12.147  15.815  0.2052  0.1807  0.0141
14639W        W29770   1.433  13.985  11.933 -0.1551  0.0722  0.2237
14640W        W29771   4.638   0.737   0.828 -0.0320  0.1038 -0.0100
14641W        W29772   2.867   0.843  14.865 -0.1650 -0.0529  0.0691
14642W        W29773  15.790   4.479   2.771  0.3627 -0.3309  0.3490
14643W        W29774  15.452   4.488  13.375  0.2227  0.0051 -0.0899
14644W        W29775   3.243   0.643  14.447 -0.0420 -0.1538 -0.2541
14645W        W29776   3.436  13.745   0.735 -0.1797 -0.2212 -0.0056
14646W        W29777   2.364  15.325  13.040  0.3522 -0.3040 -0.2324
14647W        W29778  16.221  17.099   5.445  0.0438 -0.1848  0.2544
14648W        W29779  15.810   7.141   5.975  0.1149 -0.1584 -0.2167
14649W        W29780   8.523  10.704  11.951 -0.5730 -0.1026 -0.0090
14650W        W29781   3.125   1.111   4.787 -0.0480  0.0435 -0.1716
14651W        W29782   0.887   2.830  15.978 -0.2542 -0.1691  0.0728
14652W        W29783  14.924   5.266   2.751  0.2108  0.0965  0.0547
14653W        W29784   1.498  11.715   6.506  0.0026  0.2536  0.1491
14654W        W29785   4.846   9.941   0.892  0.2399  0.1638  0.3153
14655W        W29786  12.547  12.728   1.145 -0.0066  0.0104 -0.2378
14656W        W29787   9.067  13.861   2.636  0.1084  0.0845 -0.2227
14657W        W29788  14.888  14.996   4.285 -0.1216  0.1782  0.0710
14658W        W29789   4.932  12.419   3.899  0.1503  0.0940 -0.1436
14659W        W29790  13.981   2.101   2.051 -0.2236  0.1213  0.1181
14660W        W29791  10.789   3.216   0.779 -0.1934  0.1466 -0.0447
14661W        W29792   0.056   2.283  12.378 -0.1360 -0.0644  0.0976
14662W        W29793   2.034   7.925  12.109  0.2915  0.0337  0.2654
14663W        W29794   2.849   9.550  15.023  0.0261  0.0359 -0.0792
14664W        W29795   9.395   5.059  11.485 -0.2383 -0.0415 -0.2726
14665W        W29796  12.364  11.186   1.167 -0.1666 -0.0459  0.1138
14666W        W29797  11.663  16.436  13.209 -0.0473 -0.0436  0.1158
14667W        W29798  15.932   4.255   3.733  0.0705  0.0874  0.0011
14668W        W29799   5.170   6.695   3.369 -0.2343 -0.0323  0.0938
14669W        W29800   6.249  10.357   1.033 -0.3394 -0.0730 -0.1261
14670W        W29801  17.679  11.331   2.585  0.1823 -0.1263 -0.0885
14671W        W29802  15.689   9.632   0.663 -0.1086  0.1796  0.1623
14672W        W29803   0.266  10.909   6.302 -0.3449  0.0577  0.1078
14673W        W29804   2.357  12.364   1.660  0.0154 -0.2931 -0.0490
14674W        W29805  14.953  12.188   6.248  0.0072 -0.0900  0.4331
14675W        W29806   1.118  12.804  11.347 -0.0843  0.2923 -0.1390
14676W        W29807  15.418  10.485   1.375 -0.1422  0.1497 -0.2173
14677W        W29808   8.452  14.317   0.124 -0.2073 -0.0042  0.0918
14678W        W29809   7.489  11.142   4.401  0.3363  0.1178 -0.0772
14679W        W29810  11.474  13.788   0.724 -0.0356 -0.0616 -0.1062
14680W        W29811  12.720   9.495  12.061 -0.1887  0.0192 -0.4747
14681W        W29812   3.914   4.770   4.238  0.0224  0.2211  0.0873
14682W        W29813   5.495   3.793  12.017  0.4594 -0.0434  0.1846
14683W        W29814  16.969  17.355   3.307  0.0046  0.0609  0.2940
14684W        W29815  17.807   6.693   4.446 -0.0902 -0.0675 -0.0624
14685W        W29816   4.234   4.738  13.082  0.0213 -0.0306 -0.4899
14686W        W29817   3.150   8.874   1.143 -0.0961  0.1708 -0.2096
14687W        W29818   2.775  11.797  14.476 -0.0931  0.0565  0.0925
14688W        W29819   9.463  16.018   5.457  0.3046  0.1775  0.2468
14689W        W29820  16.936   5.361  14.408  0.0891  0.0935 -0.0288
14690W        W29821  17.593   2.938   3.164  0.0091 -0.1277 -0.1027
14691W        W29822   8.616   6.695  12.546 -0.1645  0.2718 -0.2144
14692W        W29823   1.927  15.439  12.206 -0.0073 -0.1418  0.0523
14693W        W29824  16.417  16.975   6.307  0.5949  0.0329  0.2312
14694W        W29825   1.744   5.041  14.675  0.0097 -0.1486 -0.1476
14695W        W29826   8.668   9.583  11.725 -0.1298 -0.1947 -0.0337
14696W        W29827   0.028  10.377  13.129  0.3281  0.3441  0.1656
14697W        W29828   2.699  13.119   4.030  0.2243 -0.2843 -0.3434
14698W        W29829   4.830   2.544  12.691  0.1595 -0.2299 -0.1462
14699W        W29830  13.088   9.991  16.027  0.0324 -0.3303  0.1277
14700W        W29831  14.007   3.581   4.815 -0.1995  0.1827  0.0017
14701W        W29832   2.598   4.717   4.331  0.3627  0.3157 -0.2151
14702W        W29833  17.719  14.205  13.986 -0.0932 -0.3076  0.1499
14703W        W29834   8.798  13.167   3.581  0.0957 -0.0394  0.0993
14704W        W29835  16.299   7.403   1.288  0.0736 -0.1632 -0.1075
14705W        W29836  13.992  12.795   3.216  0.2392  0.1630  0.1164
14706W        W29837   7.560   2.481  16.039  0.0090  0.1079 -0.1407
14707W        W29838   2.127  10.028   4.648 -0.2063  0.2088 -0.2451
14708W        W29839   9.196   2.099  12.697  0.2243 -0.0780  0.1608
14709W        W29840   6.808   6.028   0.277 -0.0581 -0.1182 -0.3925
14710W        W29841   7.605   9.214   1.892  0.1347  0.2391  0.0077
14711W        W29842  16.793  10.928   1.914 -0.0041 -0.1565  0.0417
14712W        W29843   2.810   2.986   1.803 -0.2431  0.0047 -0.2589
14713W        W29844  11.956   6.653  11.917 -0.0457 -0.0975 -0.1183
14714W        W29845  13.438   3.747   1.573 -0.0371  0.0311  0.2026
14715W        W29846  11.447  11.827  13.854 -0.1268 -0.1732  0.0090
14716W        W29847   5.820   7.896  14.674 -0.1161 -0.0813  0.1051
14717W        W29848  12.984   6.505   6.189  0.1858  0.2542  0.2717
14718W        W29849   4.234  17.301   4.690  0.1069  0.0601  0.0628
14719W        W29850   2.938  15.637  14.283 -0.2026 -0.0054 -0.2459
14720W        W29851   0.774  11.316   4.240 -0.0851  0.0354 -0.1592
14721W        W29852  11.361  14.674  11.525 -0.3391  0.1993  0.3287
14722W        W29853   1.423   8.656  14.039 -0.2185 -0.1346  0.0824
14723W        W29854   8.186   7.902   5.585  0.1026 -0.2800 -0.1646
14724W        W29855  11.922   1.428  15.813 -0.0021  0.1475  0.1983
14725W        W29856   4.293  10.905  16.070 -0.1716  0.1690 -0.1441
14726W        W29857   5.701   6.781  16.529 -0.0815  0.3649  0.0776
14727W        W29858   8.281   2.086   2.671 -0.2466  0.2307  0.3633
14728W        W29859   2.426   7.680  10.119 -0.1970 -0.0890 -0.0127
14729W        W29860   8.987  12.430  13.143 -0.0796 -0.1077  0.0278
14730W        W29861  12.528   7.803  14.800 -0.3078  0.2294  0.0908
14731W        W29862  17.543   1.245  15.247  0.1878  0.1972 -0.1412
14732W        W29863   5.343  15.695   0.163 -0.0042 -0.2976  0.0366
14733W        W29864  11.807   7.983   2.075  0.0308 -0.1823  0.1044
14734W        W29865   9.576   0.937  11.445 -0.2832 -0.1249  0.0974
14735W        W29866   5.882   8.708  11.914  0.0448 -0.2010  0.0884
14736W        W29867   0.159   2.749   3.118  0.1073 -0.2125  0.3181
14737W        W29868   7.298  15.901  15.247 -0.0821  0.0342 -0.4392
14738W        W29869   9.866   9.071  13.615  0.0302  0.0905  0.0005
14739W        W29870   2.028  14.742   1.398 -0.2488 -0.1030 -0.0017
14740W        W29871  15.616   4.778  14.710  0.0862  0.0383  0.0936
14741W        W29872  12.055  10.664  14.087  0.1724  0.1500  0.1483
14742W        W29873  14.701  13.292   2.803  0.1393  0.0207 -0.0381
14743W        W29874   6.087   7.451   0.598 -0.0722  0.0352  0.0266
14744W        W29875  14.467  13.486  12.273 -0.2159  0.1898 -0.0676
14745W        W29876  11.043   8.939  14.759 -0.1380 -0.0233  0.0741
14746W        W29877  15.913   5.321   3.904 -0.0861  0.3102 -0.1680
14747W        W29878   4.948  17.305   0.727  0.0908  0.1285  0.0650
14748W        W29879  14.454  11.322  14.706  0.1298  0.1458 -0.0164
14749W        W29880  12.384  14.037   1.053 -0.0286  0.1014  0.0242
14750W        W29881   1.259  12.128   5.000 -0.0411  0.3801 -0.0261
14751W        W29882   0.473   4.142  14.234  0.0567 -0.2971 -0.2514
14752W        W29883   3.209   8.223  14.383  0.0266  0.0025  0.0034
14753W        W29884  14.217  12.295  16.639 -0.0911 -0.1715 -0.1872
14754W        W29885   4.311  15.816  16.023 -0.1345  0.1200 -0.0938
14755W        W29886   5.812   9.843  13.918 -0.1382  0.1572 -0.2399
14756W        W29887   5.620   0.465   3.015  0.0679 -0.1298  0.0879
14757W        W29888   5.853  17.273   5.170  0.1784  0.0393  0.1033
14758W        W29889   5.281  15.872   1.596  0.0925 -0.1231 -0.0955
14759W        W29890  15.164   7.783  15.714  0.0366 -0.2053  0.0580
14760W        W29891   2.453   5.551  13.835  0.1497  0.1425 -0.0008
14761W        W29892  14.965  17.182   5.391  0.1640 -0.0752 -0.2499
14762W        W29893  10.543   2.347   4.183  0.3711  0.0092  0.2076
14763W        W29894   0.566  10.178   3.847  0.1918  0.0716  0.0522
14764W        W29895   0.366  11.859   4.663  0.1334 -0.1964  0.2349
14765W        W29896  14.034  15.820  16.351  0.0791  0.2105  0.1543
14766W        W29897   8.113   5.099  15.727 -0.1615 -0.0896 -0.3247
14767W        W29898   0.889   7.998   4.728  0.2903  0.1022 -0.0807
14768W        W29899  17.465   8.423   1.492  0.1676  0.0400  0.3275
14769W        W29900   8.978  12.613  12.317 -0.0140  0.2640 -0.0150
14770W        W29901   0.845  16.162  14.093 -0.0806  0.0892  0.1144
14771W        W29902  13.370  14.922   2.256  0.0150  0.0433  0.1687
14772W        W29903  10.679   5.704  11.462  0.0316  0.1252 -0.0409
14773W        W29904  13.293   4.107   1.113 -0.1330  0.0727 -0.1873
14774W        W29905  14.402   3.124  16.765 -0.1061  0.0867  0.0190
14775W        W29906  12.673  13.712   4.341  0.2583 -0.0312 -0.2788
14776W        W29907  14.929  15.967   6.111  0.1522  0.0557 -0.0052
14777W        W29908  16.319   3.304  14.215  0.0108  0.1097  0.0573
14778W        W29909  12.010  10.972  16.108 -0.1488 -0.2907 -0.0629
14779W        W29910  16.870  11.790   3.318 -0.0502  0.0083 -0.3736
14780W        W29911  15.093   5.579   4.422 -0.1133  0.0790  0.0194
14781W        W29912   7.057   6.155   1.878 -0.2915 -0.3651  0.0805
14782W        W29913   6.652  13.538  13.146 -0.2363  0.0328 -0.1187
14783W        W29914  10.267  15.672   3.708  0.2779  0.2069  0.1392
14784W        W29915  13.456  11.167  15.094  0.0373 -0.0250  0.0783
14785W        W29916   0.213  16.757   2.905  0.1528 -0.0910 -0.3553
14786W        W29917  14.871   7.825  14.007  0.0027 -0.0832  0.0830
14787W        W29918  10.796   5.186   3.436 -0.0526  0.2888 -0.2210
14788W        W29919   4.833   8.172   5.560 -0.1065 -0.1318  0.2441
14789W        W29920   5.755  13.387   3.879  0.1497  0.1451 -0.1309
14790W        W29921  15.542  11.689   2.819 -0.0932 -0.0483  0.0738
14791W        W29922   5.634   0.009   5.687  0.1255 -0.3061 -0.2476
14792W        W29923  15.257  11.839   6.001  0.0815 -0.1252 -0.2774
14793W        W29924  17.557   3.074  10.867  0.1164 -0.0612 -0.0272
14794W        W29925  11.329  14.824  12.023 -0.0481  0.0086 -0.1360
14795W        W29926  16.401  14.964  11.924  0.0745  0.1818  0.0348
14796W        W29927  10.725  10.433  13.038 -0.0705  0.3868 -0.0593
14797W        W29928   3.876   4.687   4.867 -0.0422  0.1153 -0.0439
14798W        W29929  13.619   1.198   0.386 -0.1733  0.2243 -0.0438
14799W        W29930   9.738   2.368   1.784 -0.2149  0.0105 -0.0587
14800W        W29931   7.094  11.625   5.153  0.0552 -0.1058 -0.1577
14801W        W29932  14.994  12.320   2.747  0.1026  0.0461  0.2112
14802W        W29933  12.066   9.319  16.463  0.0570  0.2405 -0.6577
14803W        W29934   0.460  11.188   1.832 -0.1168  0.0776  0.0840
14804W        W29935   0.800  10.532  11.247  0.1383  0.0585  0.1654
14805W        W29936  16.696   2.389   4.750 -0.0428 -0.1142  0.0211
14806W        W29937  16.376   5.131   3.788  0.1802  0.0227 -0.2661
14807W        W29938   3.026  14.961  12.518 -0.0407  0.1453  0.0560
14808W        W29939   4.385  10.985  16.537  0.1187 -0.0201  0.0731
14809W        W29940  13.761   1.700   2.116  0.0914  0.1650  0.0776
14810W        W29941   7.638   5.003   0.201 -0.1518  0.2008  0.0721
14811W        W29942  10.672  15.367   3.078 -0.1713  0.0487 -0.2683
14812W        W29943   3.241   3.629   4.570 -0.1136  0.0325 -0.3511
14813W        W29944   3.118   4.097  14.288  0.0999  0.0054 -0.1005
14814W        W29945   9.292  14.513   3.727  0.1585  0.0137  0.1093
14815W        W29946   4.522   0.323   0.488 -0.4547  0.1380  0.1507
14816W        W29947  16.963   4.166  14.159  0.3128  0.3018 -0.2379
14817W        W29948  14.878   0.734  12.269  0.0104 -0.1889 -0.1451
14818W        W29949   0.213   3.492   5.956 -0.0389 -0.0771 -0.0941
14819W        W29950  10.077   7.853  11.057 -0.4162  0.0524  0.1942
14820W        W29951   4.774   4.333   4.848  0.0689 -0.0617 -0.0093
14821W        W29952  10.091  12.666  12.046 -0.1214 -0.0389 -0.1148
14822W        W29953   9.426  13.672   3.537  0.2241 -0.1119  0.3347
14823W        W29954   3.715  14.584   0.910 -0.0407 -0.0184 -0.3475
14824W        W29955  15.168  12.890  14.400  0.0596 -0.1733 -0.2799
14825W        W29956  14.266   1.160  15.722 -0.1387  0.2419  0.0547
14826W        W29957  17.087  16.531   5.056  0.1024  0.0753 -0.0570
14827W        W29958  11.591   5.823  13.395 -0.1399 -0.1667 -0.0870
14828W        W29959  16.279  16.605   5.457 -0.0658 -0.0850  0.2867
14829W        W29960  16.749  17.684   4.464 -0.3722 -0.1024 -0.1195
14830W        W29961  11.450   8.960   2.064 -0.0732  0.0071 -0.1511
14831W        W29962  17.551   4.888  13.877 -0.0542  0.0584  0.1128
14832W        W29963   1.138   8.796   2.402 -0.0833 -0.3423 -0.0948
14833W        W29964   6.696   9.308  15.959 -0.3385  0.2295  0.0827
14834W        W29965   7.259  14.831  14.521  0.0711 -0.7167 -0.1075
14835W        W29966   4.624   8.610   5.557  0.3113  0.1364 -0.0093
14836W        W29967   8.577   2.683  14.188  0.1310  0.3286 -0.3695
14837W        W29968  14.634  16.544   2.605  0.1820  0.1268 -0.1187
14838W        W29969  13.757   6.012   2.501  0.0928 -0.1865  0.4970
14839W        W29970  15.775   8.981  15.901 -0.3647  0.0325  0.1176
14840W        W29971   9.099  17.256  13.636 -0.2898 -0.0751  0.0550
14841W        W29972   2.588  10.287  13.982 -0.0321 -0.1578 -0.2209
14842W        W29973   4.234  10.228  14.421  0.1477  0.1433  0.1723
14843W        W29974   7.801   6.561   2.965  0.0377  0.2719  0.0953
14844W        W29975   0.179  17.791  16.434  0.0801 -0.1101  0.3095
14845W        W29976   9.405  13.218  12.998  0.2327 -0.0585  0.2826
14846W        W29977   2.674  10.660  11.466  0.2316 -0.0750  0.1051
14847W        W29978   8.919  13.025   1.975  0.3397  0.2650  0.1702
14848W        W29979  15.533  13.210   0.414  0.0604 -0.1477 -0.2070
14849W        W29980  15.271   2.867  11.090  0.0786  0.0942  0.0636
14850W        W29981   9.115  12.689   3.500  0.1024  0.2713  0.1801
14851W        W29982   5.092   8.106   0.564  0.0283  0.1167 -0.0092
14852W        W29983  13.807   2.080  14.068  0.3944 -0.1373 -0.0665
14853W        W29984   6.508   8.631   3.090  0.3657 -0.0900  0.0640
14854W        W29985  10.250   7.416   0.044 -0.1544  0.1639  0.2336
14855W        W29986   2.449  16.394  13.904 -0.1107  0.0560  0.1972
14856W        W29987   3.118   4.176  11.775  0.2347 -0.2575  0.0753
14857W        W29988  13.834   8.757   4.100 -0.1657 -0.1004  0.2104
14858W        W29989  12.142   5.266   4.518 -0.0842  0.1161 -0.1383
14859W        W29990  14.411  10.391   0.859  0.1733  0.0249  0.0067
14860W        W29991   0.499   7.378   5.556 -0.0959  0.0988  0.1099
14861W        W29992   8.546  15.478  14.610  0.0089  0.0740  0.0092
14862W        W29993   1.938  14.201   5.121 -0.1273  0.1579  0.0160
14863W        W29994   3.600  10.245   4.729 -0.1711 -0.2582 -0.0004
14864W        W29995   0.469   8.640   4.194 -0.0119  0.1450  0.0133
14865W        W29996   0.442   7.506   6.066  0.2292  0.0030  0.2195
14866W        W29997   6.626  13.595  12.638 -0.2231 -0.1548 -0.0042
14867W        W29998   5.490  11.430   1.361  0.0267 -0.3316 -0.0705
14868W        W29999  14.835  12.050   5.328 -0.4300  0.0168 -0.0950
14869W        W30000   1.980   3.491  14.859  0.1452 -0.2331 -0.1476
14870W        W30001  14.603   7.012   0.762 -0.2081  0.0107 -0.2204
14871W        W30002   5.326   1.462  12.982  0.3119 -0.1638  0.1086
14872W        W30003  14.088   4.720   3.860 -0.1096  0.0010  0.2025
14873W        W30004  15.159   3.226   4.123  0.4877  0.0506 -0.1719
14874W        W30005   6.325   1.643  16.154 -0.2085 -0.0945  0.1340
14875W        W30006   1.388   9.808   4.247 -0.1368 -0.1549 -0.0195
14876W        W30007   2.978   1.438  13.485  0.0103  0.2953  0.0182
14877W        W30008   5.104  12.725   1.533  0.1055 -0.0778 -0.1864
14878W        W30009  13.158  13.667   3.953  0.3279 -0.5437  0.1198
14879W        W30010  14.482   0.763   2.806  0.1919  0.1507  0.0697
14880W        W30011   5.438   0.450   2.029  0.0097 -0.1358  0.2958
14881W        W30012  17.394   4.137   0.395  0.0011  0.0316  0.4535
14882W        W30013  12.417  14.365   1.453 -0.1275  0.2349  0.0685
14883W        W30014   4.601  10.524   4.750  0.1183  0.2776 -0.1137
14884W        W30015  15.094  10.383   2.243 -0.2711  0.3247 -0.0703
14885W        W30016   5.015   2.262  10.913  0.2649  0.1527  0.0447
14886W        W30017   7.567  10.835   4.929 -0.3457  0.0105  0.1913
14887W        W30018   0.460   2.501  12.682 -0.0067  0.1175  0.1561
14888W        W30019  13.348  15.621   3.936  0.0753 -0.2436 -0.2353
14889W        W30020  16.975   1.746  16.046  0.1630  0.0410 -0.0880
14890W        W30021  15.651   6.851  11.215 -0.0705  0.4697 -0.0485
14891W        W30022   1.929   3.411  12.217 -0.3163 -0.3354 -0.0320
14892W        W30023  10.581  15.584  11.965 -0.0466  0.0342  0.0084
14893W        W30024  13.541   7.218   1.097  0.0217 -0.2459 -0.2014
14894W        W30025   3.523  12.742  12.874  0.0329 -0.0767 -0.2266
14895W        W30026  12.690   2.143   1.210 -0.2289 -0.1598  0.0567
14896W        W30027   7.419   4.918  10.290 -0.1809 -0.0076 -0.0348
14897W        W30028  11.164  14.785   4.125 -0.2668 -0.0863  0.0104
14898W        W30029  15.087   3.243  10.792 -0.1525 -0.1952 -0.1815
14899W        W30030   9.068   7.740   0.369  0.1306 -0.1680 -0.2718
14900W        W30031  11.179   5.483   3.489  0.0533  0.1434 -0.2579
14901W        W30032  13.045   2.832  12.369  0.1383  0.3150 -0.2358
14902W        W30033   1.863  17.351  13.794  0.0623 -0.0357  0.1804
14903W        W30034   5.067   9.705   0.462 -0.3696  0.1916  0.2249
14904W        W30035   9.701  13.168   0.773  0.0510 -0.0301 -0.2391
14905W        W30036  17.214   3.148   4.143 -0.3218 -0.0691 -0.3762
14906W        W30037  15.136  11.442   2.478  0.1012  0.0534  0.0029
14907W        W30038   0.843   1.400   3.999 -0.0962  0.1529  0.0107
14908W        W30039  14.013   4.722  10.492  0.1992  0.4142  0.1178
14909W        W30040   6.503  15.759  16.081 -0.0836 -0.3005 -0.2244
14910W        W30041   9.112   1.340   3.062  0.2385  0.2271  0.2261
14911W        W30042   1.065   6.903  12.421  0.1036 -0.1346 -0.2701
14912W        W30043  10.914  10.521   2.331 -0.0289  0.0491  0.0113
14913W        W30044   1.355   9.233  12.551  0.1558  0.0890 -0.1873
14914W        W30045  15.072   9.634   0.070  0.1920  0.1653  0.1025
14915W        W30046  13.884   2.733  12.620 -0.0247  0.1879 -0.2853
14916W        W30047   9.799   6.791   5.393 -0.0704  0.0343 -0.1615
14917W        W30048   8.723   2.826  12.257 -0.1138 -0.3744 -0.1928
14918W        W30049   3.108   5.672  15.081 -0.1798  0.3335  0.1751
14919W        W30050   6.647   5.525  10.746 -0.0547  0.2437  0.0246
14920W        W30051   3.754   0.427   3.150  0.0997  0.1946  0.0762
14921W        W30052   6.364  11.094  15.427  0.0784  0.1434  0.1871
14922W        W30053   3.089   2.677  14.712 -0.3626  0.1380 -0.1395
14923W        W30054  12.326  13.320   5.191 -0.0042 -0.0786 -0.0385
14924W        W30055   6.129   7.846   3.385 -0.1924 -0.0381 -0.2256
14925W        W30056  13.891   8.708  14.723 -0.1665  0.3339 -0.0085
14926W        W30057  15.892  16.489  14.510  0.1723 -0.0552  0.0571
14927W        W30058   1.223  11.023   2.566 -0.1004  0.2378  0.0973
14928W        W30059  14.565   6.272   4.162 -0.5372 -0.1882 -0.1675
14929W        W30060   2.268  15.098   1.688 -0.1557  0.2785  0.2114
14930W        W30061   5.098  10.026   1.310 -0.0246 -0.0461 -0.1794
14931W        W30062  12.958   1.482   3.230  0.3263  0.0035 -0.0794
14932W        W30063   3.833   1.302   5.565  0.0301  0.0115 -0.0420
14933W        W30064   8.016   8.175   5.193  0.1530  0.0960  0.0865
14934W        W30065  10.877   1.101   2.120  0.3484 -0.3010  0.1512
14935W        W30066  13.962   0.188  16.471 -0.2360 -0.1454 -0.0049
14936W        W30067  12.243  12.523  10.938  0.3346 -0.1898 -0.0034
14937W        W30068  12.702   4.137  12.934  0.1041 -0.1880 -0.1531
14938W        W30069   1.710  11.325  13.934 -0.2330  0.1299 -0.2100
14939W        W30070   2.455  14.121   2.525 -0.0634  0.1000  0.1028
14940W        W30071   8.014   9.499   1.972  0.2120  0.1102  0.1677
14941W        W30072  16.444  11.918  15.908  0.3290  0.0476 -0.0561
14942W        W30073   5.285   5.112   4.971 -0.0324  0.0501 -0.1490
14943W        W30074  13.815   7.323   2.887 -0.0285 -0.4263  0.1167
14944W        W30075   7.455   6.977   1.341  0.2270 -0.0736 -0.1655
14945W        W30076  17.824  17.037   4.309 -0.0664  0.0576 -0.2543
14946W        W30077   9.165   8.039  14.564  0.1770 -0.0357 -0.1345
14947W        W30078  16.576  11.312   5.795  0.2069 -0.1171  0.2130
14948W        W30079  14.546  17.737   1.716 -0.0507 -0.3281  0.0902
14949W        W30080   6.697   7.971   4.893  0.0520  0.2914 -0.2194
14950W        W30081  10.386   2.698  13.248 -0.0418 -0.4171 -0.1724
14951W        W30082   7.503   1.155  14.830 -0.1441 -0.1656  0.0231
14952W        W30083  15.346  16.743  14.411 -0.0867 -0.0612 -0.0700
14953W        W30084   8.118  10.362   0.412 -0.4648 -0.0307  0.2156
14954W        W30085   8.254  17.599   3.960  0.0554 -0.3693  0.3441
14955W        W30086   7.372   4.798   1.669 -0.1641  0.0151  0.2257
14956W        W30087   7.561  17.655  15.186 -0.1151 -0.1749 -0.1574
14957W        W30088   0.763   2.798   0.282  0.0242 -0.2721  0.2593
14958W        W30089  11.920  17.472  11.447 -0.0690  0.0047 -0.3066
14959W        W30090   4.017   0.118   5.372 -0.2386 -0.0631  0.0594
14960W        W30091  14.889  13.850  11.407  0.3642 -0.1354 -0.2214
14961W        W30092   5.508   2.387   1.663 -0.0428  0.2448 -0.2371
14962W        W30093  11.338  12.405   0.966  0.1498  0.0123  0.4550
14963W        W30094  15.337  15.891   3.895 -0.0981  0.1396  0.1661
14964W        W30095  13.065  15.093   3.381 -0.3775 -0.0088  0.1601
14965W        W30096   2.559   9.671   2.715  0.3006 -0.2297  0.0193
14966W        W30097  12.348   0.370   0.975 -0.1156 -0.1976  0.3215
14967W        W30098   5.999  12.432   3.919  0.0293 -0.0670  0.1085
14968W        W30099  13.807  12.197  14.641 -0.0230  0.1421  0.0205
14969W        W30100  15.472  13.918  14.529 -0.0285  0.2159 -0.0238
14970W        W30101  13.339   5.580  16.706  0.2417  0.1809  0.0970
14971W        W30102  11.016   5.914  16.561  0.1903  0.2785 -0.3285
14972W        W30103  14.514  17.230   2.742 -0.1948 -0.0177  0.1307
14973W        W30104   1.711   3.468  14.054 -0.0185  0.0110 -0.0174
14974W        W30105   9.617  12.326  15.147 -0.0987 -0.1331  0.0013
14975W        W30106   4.552   8.908   0.130  0.2518 -0.0002 -0.0824
14976W        W30107   4.999  13.668  11.983  0.1341 -0.1213 -0.0304
14977W        W30108   4.324  14.511  12.180  0.0989 -0.2478  0.0391
14978W        W30109  13.069  15.543  15.473 -0.2480 -0.1362 -0.1969
14979W        W30110   0.792  15.811  16.343  0.0432 -0.0075 -0.0867
14980W        W30111  12.139   1.930   3.272 -0.4355 -0.0983 -0.2339
14981W        W30112  14.225  11.383  16.321  0.3612 -0.0234  0.0108
14982W        W30113  15.645  12.567  10.587  0.2701  0.1220  0.0149
14983W        W30114  10.014  16.366   2.265  0.2270  0.0450 -0.1947
14984W        W30115  10.527  12.336   6.047 -0.0443 -0.1673 -0.0555
14985W        W30116   7.355  14.331  14.661  0.0684 -0.2334 -0.1281
14986W        W30117  14.740   3.246   3.109  0.2933  0.0836 -0.1132
14987W        W30118   0.330   8.802  11.428  0.1656  0.2508 -0.0467
14988W        W30119   7.358   1.967   4.471 -0.1084  0.3195 -0.0816
14989W        W30120   9.318  10.603  12.680 -0.3331 -0.2512  0.1758
14990W        W30121   6.902  14.161   4.352 -0.2369  0.0474  0.1064
14991W        W30122  14.384   1.175   2.463 -0.1245  0.3654 -0.0118
14992W        W30123  15.553   6.764   2.406  0.2402  0.3129  0.1472
14993W        W30124  15.014   2.749   4.353 -0.1830 -0.0223 -0.1712
14994W        W30125  11.816  10.058   4.425 -0.3468 -0.1654 -0.0740
14995W        W30126   6.369  15.424   5.539 -0.0508  0.0909  0.0924
14996W        W30127   5.016   8.846   1.924  0.1058 -0.0195  0.1090
14997W        W30128   5.732  16.630   0.489  0.0769 -0.1320  0.1452
14998W        W30129  14.955  17.467   1.992  0.0252 -0.1866 -0.1757
14999W        W30130  11.958   2.770   1.766 -0.1342  0.1241 -0.2311
15000W        W30131  14.997  14.490   3.089  0.0049  0.1871 -0.1163
15001W        W30132   1.330   0.582   4.050 -0.1502  0.2901  0.1533
15002W        W30133  17.520  11.778  13.688  0.1263  0.0323  0.0664
15003W        W30134   6.559  16.027   2.437 -0.0677 -0.3160 -0.1734
15004W        W30135  14.093   0.611   3.993  0.3997 -0.0871 -0.3455
15005W        W30136   1.635  14.731  11.451  0.0958  0.1738 -0.0236
15006W        W30137  13.532   8.713   0.877  0.1524  0.0253  0.1586
15007W        W30138   2.709  16.971   6.079  0.0686  0.1307  0.0066
15008W        W30139  10.704   8.828  12.184  0.1206 -0.1536  0.0535
15009W        W30140  17.391  15.827  13.852  0.0691  0.2001 -0.0444
15010W        W30141   5.659  10.839   2.511 -0.1518  0.0046 -0.0086
15011W        W30142   1.874  17.414   4.871 -0.0413  0.0639  0.1777
15012W        W30143   5.920   1.470  16.302 -0.2803  0.1079 -0.0700
15013W        W30144  16.891   5.183  12.533 -0.1048 -0.0864 -0.0350
15014W        W30145  13.913   5.952   1.223 -0.0062  0.0977 -0.1271
15015W        W30146  15.442   9.904   0.337  0.1962  0.1912 -0.2250
15016W        W30147   0.042   0.909   1.145 -0.1528  0.0971 -0.0498
15017W        W30148  12.339   0.701   2.649 -0.0823 -0.1603  0.0371
15018W        W30149  17.618  14.867   6.426 -0.3693 -0.0380  0.1383
15019W        W30150   0.698   8.012   1.035 -0.0006  0.1480 -0.3143
15020W        W30151   5.353   9.007   3.895 -0.1885  0.1628 -0.1752
15021W        W30152  17.488   2.131   3.080 -0.0948 -0.1954 -0.0479
15022W        W30153   1.569   0.487   4.475 -0.0920 -0.1184 -0.0553
15023W        W30154   1.060  10.741   5.590 -0.2981 -0.4441  0.0633
15024W        W30155   8.259   4.875  14.302 -0.0104 -0.1564  0.2234
15025W        W30156   1.348   6.655   3.617 -0.1345 -0.0877 -0.0848
15026W        W30157   2.720   8.834   2.291 -0.1049 -0.2476 -0.3654
15027W        W30158  15.570   0.271   4.031  0.0332  0.1098  0.1324
15028W        W30159   8.034   7.134  14.239  0.0561  0.0961 -0.0120
15029W        W30160   9.044   4.615  11.508 -0.0452  0.2797 -0.2100
15030W        W30161  15.255   1.344  12.559  0.0657  0.2556 -0.1400
15031W        W30162   4.434   8.839   6.007 -0.3904 -0.3075 -0.1972
15032W        W30163  15.654   1.682   2.779  0.1771  0.2886 -0.1563
15033W        W30164  16.632   8.428  12.759  0.0798 -0.1414 -0.0321
15034W        W30165  10.132   9.217  14.946 -0.0214 -0.1789 -0.1314
15035W        W30166   3.490  13.857   3.283 -0.0805  0.3733  0.2127
15036W        W30167  13.862   3.799  12.016 -0.1137  0.1782 -0.0154
15037W        W30168   2.006  16.252   5.106  0.0601  0.0853  0.0863
15038W        W30169   9.162   2.490  15.331 -0.2770  0.2434 -0.3016
15039W        W30170  15.014   7.089  13.662 -0.0315 -0.0078  0.3201
15040W        W30171   1.206  12.124  14.921 -0.1726 -0.2744 -0.0120
15041W        W30172  13.901   1.309   1.127 -0.4514 -0.0577 -0.1298
15042W        W30173   7.182   8.193  12.093 -0.0812  0.0530  0.2930
15043W        W30174  14.113   3.381  11.941 -0.0762  0.2957 -0.1797
15044W        W30175   1.265   1.387  15.396 -0.1004  0.3244 -0.0647
15045W        W30176   4.061   6.079   0.956 -0.0292  0.0743 -0.3248
15046W        W30177  13.726  12.130   4.424 -0.0216  0.3659 -0.1795
15047W        W30178  16.872   9.719  12.350 -0.2219  0.0780  0.2428
15048W        W30179   4.573   8.204   3.609 -0.1350  0.0426 -0.0787
15049W        W30180  16.709   9.021  11.777  0.0189 -0.1910 -0.1203
15050W        W30181   0.315   8.231  15.458 -0.2321  0.0706  0.0271
15051W        W30182   8.141   4.930  13.728  0.3462  0.0548  0.0818
15052W        W30183   3.789  14.864   2.786 -0.2778 -0.1542 -0.1395
15053W        W30184  10.954   5.919   0.803  0.2878 -0.1107 -0.1377
15054W        W30185   1.864  10.575  11.077  0.1809  0.1840 -0.0842
15055W        W30186  12.345  17.777   1.167  0.1313  0.1074  0.0654
15056W        W30187  14.812   8.101  10.740  0.0388 -0.1187 -0.1705
15057W        W30188  17.664  12.112  16.688 -0.2971  0.1654 -0.2599
15058W        W30189   8.270   0.156  13.070 -0.0684  0.0772  0.2302
15059W        W30190   3.901  15.700  16.260 -0.0000  0.0516  0.0685
15060W        W30191  14.079   3.618  16.662  0.2811  0.0143  0.1039
15061W        W30192  13.125   1.193  16.408 -0.1188 -0.1463 -0.0026
15062W        W30193  13.565  13.151  12.689 -0.2247  0.1676  0.0574
15063W        W30194   4.774  13.772   2.942  0.0698 -0.0471  0.2275
15064W        W30195  13.818  14.121   1.139 -0.3024  0.1650 -0.0054
15065W        W30196  17.438   7.271   2.674 -0.2176  0.2419 -0.3042
15066W        W30197  16.494  12.746  12.436 -0.0512  0.3749 -0.0783
15067W        W30198   8.306   5.004   1.035  0.1279  0.1842 -0.0239
15068W        W30199  14.165   4.681   0.844 -0.1066  0.1634  0.1417
15069W        W30200   5.744  17.213   3.429 -0.2342 -0.2812  0.0719
15070W        W30201  14.791   6.525   0.715  0.0123  0.1274 -0.1535
15071W        W30202   8.713   9.639  12.323  0.0085 -0.1188 -0.2965
15072W        W30203   2.165  11.033   2.426 -0.1197  0.0332 -0.2123
15073W        W30204   7.511  15.434   3.724 -0.1035  0.0003 -0.1372
15074W        W30205   2.389  11.872   0.329 -0.0779 -0.0213  0.1732
15075W        W30206   6.109  14.254  14.695 -0.1697  0.0517  0.0227
15076W        W30207   5.551  12.351   2.110 -0.1057 -0.0581  0.1463
15077W        W30208   5.427   9.654   1.917 -0.0919  0.0684 -0.3659
15078W        W30209   2.370  17.346  13.690  0.1129 -0.2655  0.2678
15079W        W30210  10.949  13.329   0.006  0.2610 -0.0034  0.0686
15080W        W30211   3.108   4.650   1.148 -0.0920  0.1699  0.1134
15081W        W30212  14.295  15.590   2.030 -0.2576  0.2571 -0.0118
15082W        W30213   7.064   3.832  12.649 -0.0727  0.0725 -0.0035
15083W        W30214   9.222   7.483   4.662  0.1413  0.0875  0.0295
15084W        W30215  14.363  17.100   0.064  0.3456 -0.1324  0.2235
15085W        W30216   0.468   2.660  13.667  0.2774  0.2299  0.1732
15086W        W30217  11.957   2.424   2.496 -0.2757  0.3593 -0.0241
15087W        W30218  13.016   4.504   5.433  0.1236  0.0471  0.1718
15088W        W30219   5.757  14.974   6.118 -0.2090 -0.0081  0.1691
15089W        W30220   4.256  12.801  13.350 -0.0961 -0.3477 -0.2486
15090W        W30221   5.982  14.510   1.639  0.0005 -0.3294 -0.0818
15091W        W30222  15.435  11.640   4.948  0.1705  0.0877  0.2427
15092W        W30223   2.133   5.859   0.434  0.1366  0.0909  0.2947
15093W        W30224  12.990  16.727  13.979 -0.0737  0.1692  0.0618
15094W        W30225  16.787   1.316   0.377 -0.3631  0.0882 -0.1706
15095W        W30226   8.516   7.395  15.211 -0.1223  0.1411  0.0316
15096W        W30227   8.109   3.653   0.516 -0.1837 -0.1464  0.0904
15097W        W30228  14.558  10.369  16.426 -0.0635  0.2266 -0.0893
15098W        W30229   1.834   1.418  12.243 -0.1195  0.0601 -0.0063
15099W        W30230  10.527   9.420  14.201 -0.1578  0.1903  0.2741
15100W        W30231  11.344   1.391  12.049  0.0556  0.3448 -0.0134
15101W        W30232  14.601   8.740  12.465  0.1222  0.1884 -0.0767
15102W        W30233   9.739   6.975   4.361 -0.0854  0.1195 -0.1993
15103W        W30234   5.833  15.627  15.336  0.1933 -0.0212  0.0454
15104W        W30235   1.310   9.598  14.774  0.0355  0.1788  0.0938
15105W        W30236  17.412  11.239   5.589 -0.3665 -0.1330  0.1720
15106W        W30237   3.710  15.780  13.119  0.0747  0.2687 -0.0044
15107W        W30238   6.318  15.923  13.759  0.2330  0.1000 -0.1574
15108W        W30239   5.420   3.631   2.031 -0.3045  0.2540  0.2477
15109W        W30240   7.815  15.755  15.988  0.1580 -0.0007  0.1804
15110W        W30241   0.612  14.063  13.590  0.0823  0.0951  0.0264
15111W        W30242   4.193   0.910  13.986 -0.0230  0.2154 -0.5453
15112W        W30243  14.594  11.111   1.421 -0.2074  0.0961 -0.0413
15113W        W30244   4.276  10.487  15.803 -0.0228  0.1045  0.0370
15114W        W30245   7.904  11.996  16.581  0.1853  0.1463  0.1328
15115W        W30246  17.039   4.534   3.140  0.2733  0.1524 -0.3460
15116W        W30247  13.060  11.580  11.831  0.0009  0.3527  0.0329
15117W        W30248   1.758   7.155  14.087  0.1296  0.1353 -0.0239
15118W        W30249   8.110   8.879   3.911  0.0809  0.0475  0.0909
15119W        W30250   4.360  12.013   1.462 -0.1814  0.3576  0.0501
15120W        W30251   3.654   1.385  15.897  0.2034 -0.1281  0.1894
15121W        W30252   8.830  11.582  16.169  0.2056  0.1706  0.1660
15122W        W30253  16.532  17.644   3.205 -0.0764  0.2622 -0.0581
15123W        W30254  10.436   0.173   3.789 -0.1812 -0.0895  0.0579
15124W        W30255   4.284  11.112  14.753  0.1410 -0.2539  0.0625
15125W        W30256  17.410  17.627   2.109 -0.0123  0.2643 -0.2468
15126W        W30257   6.617   0.438   2.598 -0.2077 -0.1236  0.1326
15127W        W30258  12.917   1.892   3.982  0.0571 -0.0824 -0.1086
15128W        W30259  16.025  16.308   5.927 -0.0527  0.0563  0.1796
15129W        W30260  15.482   9.954  14.977  0.1808  0.0081 -0.2759
15130W        W30261  10.408   9.737  11.876  0.3141  0.0540  0.0703
15131W        W30262  14.973  16.000   1.356  0.1853 -0.0077  0.0683
15132W        W30263   9.240  10.417   0.562 -0.1802 -0.2001 -0.2279
15133W        W30264   8.291   4.017  11.480 -0.0430 -0.0653 -0.2905
15134W        W30265   3.180  12.181  14.822  0.2436 -0.0457  0.0871
15135W        W30266   2.056  10.672   6.306 -0.0279 -0.0484 -0.2588
15136W        W30267   7.935  10.147  11.765 -0.0113  0.0772  0.0246
15137W        W30268  15.009  14.340   5.623 -0.1837 -0.1214 -0.0312
15138W        W30269   6.931   6.130  15.983  0.3360  0.1375 -0.1259
15139W        W30270  16.051   8.915  15.452  0.2849 -0.1837  0.2540
15140W        W30271   3.647  12.709  14.927 -0.0261  0.0752  0.2754
15141W        W30272  15.313  10.827  14.407  0.2070 -0.1557 -0.1365
15142W        W30273  17.842  11.138  12.811  0.0774  0.0856  0.1226
15143W        W30274  14.300  10.460  14.933 -0.0731 -0.0437  0.2769
15144W        W30275   8.066  12.786  12.966  0.2526  0.1517 -0.1692
15145W        W30276   0.597   3.746   4.934  0.2979 -0.2480  0.2052
15146W        W30277   3.627   5.180   0.831  0.1761  0.0717 -0.3646
15147W        W30278   5.252  17.227  15.100 -0.3821 -0.0780  0.1158
15148W        W30279   8.184   9.477  15.260  0.1640  0.1780  0.0320
15149W        W30280   1.576   4.704   4.505  0.0947 -0.3475  0.0505
15150W        W30281  16.394  13.905   2.262  0.1301  0.1272  0.1362
15151W        W30282   5.548  13.301   5.344 -0.1499  0.0593  0.3279
15152W        W30283  16.143   9.675  12.428  0.3738 -0.0642 -0.1086
15153W        W30284  10.711  10.293   3.287 -0.0665 -0.1101 -0.0239
15154W        W30285   4.093   2.233  16.027 -0.0244  0.0043 -0.1386
15155W        W30286  11.455   6.788   0.214  0.2046  0.0224  0.0051
15156W        W30287  16.403  17.477   6.345 -0.0041 -0.0723  0.0998
15157W        W30288   5.916   4.392  12.061 -0.0487  0.0271  0.1842
15158W        W30289  12.209  16.804   0.539  0.2399 -0.1769  0.0310
15159W        W30290  14.262   2.992  13.555 -0.2983 -0.2309  0.1126
15160W        W30291  12.877   1.062  10.816 -0.3079 -0.1600  0.2641
15161W        W30292   3.266   0.457  12.416  0.1501 -0.0077 -0.0820
15162W        W30293  15.874   3.459   1.475 -0.2308 -0.4098  0.2048
15163W        W30294   8.549  17.103   2.764 -0.1293  0.0913  0.1170
15164W        W30295   8.641   7.601   3.651  0.0759  0.1487 -0.2639
15165W        W30296  12.245   2.414  12.653  0.0996  0.0160 -0.0105
15166W        W30297  13.387  12.433   2.790 -0.2632 -0.1400  0.2123
15167W        W30298   4.831   4.088   3.760 -0.0425 -0.2005  0.0672
15168W        W30299  10.313  12.822  13.846  0.0179  0.1614 -0.1085
15169W        W30300   4.935  10.776  12.363  0.0746  0.1785 -0.1003
15170W        W30301  12.506   8.690   4.826  0.3779 -0.1230  0.0245
15171W        W30302   2.356   0.115  16.610  0.4388 -0.0280 -0.1376
15172W        W30303   1.922  17.823  12.469  0.0564  0.1178  0.0687
15173W        W30304   0.559  16.674  16.571  0.2426  0.0008 -0.2270
15174W        W30305   6.146  16.323  12.043 -0.2891 -0.3276 -0.0632
15175W        W30306  10.493   9.681  12.534  0.2176 -0.0200  0.1513
15176W        W30307   9.582  16.389  11.941 -0.2012  0.3152  0.2147
15177W        W30308   0.349  16.751  12.036 -0.0238 -0.3406 -0.0499
15178W        W30309  14.006  13.175  14.071 -0.1404 -0.0929  0.0023
15179W        W30310   8.014  12.995  14.948  0.0322  0.0286  0.1561
15180W        W30311   9.921  14.782  13.990 -0.1513  0.1614  0.1839
15181W        W30312   7.206   5.246   1.298 -0.1730  0.0160 -0.3639
15182W        W30313  15.687   3.572  15.873  0.3571  0.3012 -0.0968
15183W        W30314   3.077   8.192   2.048  0.2912  0.1811  0.1505
15184W        W30315   6.507   8.840   0.032 -0.1795 -0.0416 -0.4023
15185W        W30316  14.763   5.049  12.714  0.0231 -0.0543  0.1429
15186W        W30317   8.316   9.911   5.936 -0.2436 -0.0323 -0.5164
15187W        W30318   3.438   3.738  14.694  0.2422  0.0449 -0.2663
15188W        W30319  12.327   9.880  10.008  0.0685  0.1015  0.0630
15189W        W30320   0.810  15.021  13.434 -0.0516 -0.1499  0.3733
15190W        W30321  17.842  13.893  15.099 -0.0813  0.1005  0.1582
15191W        W30322  12.031  14.565  12.970 -0.1532 -0.0564 -0.0661
15192W        W30323   3.480   3.587  12.512 -0.1036 -0.2192 -0.0244
15193W        W30324  11.277   5.427  13.324  0.1083 -0.0434  0.1464
15194W        W30325  16.828  16.668   1.438  0.0362  0.0020  0.0398
15195W        W30326  11.109   8.588  15.959 -0.0167 -0.2256  0.1189
15196W        W30327   3.893   3.052  13.544 -0.1846  0.0553 -0.0959
15197W        W30328  13.038   9.328  12.908 -0.0358 -0.2811 -0.0919
15198W        W30329  10.635   8.954  14.145  0.1047  0.1859  0.0317
15199W        W30330  17.062   4.190   2.665 -0.0055 -0.0956 -0.0179
15200W        W30331   0.112  16.609  16.328  0.1196  0.0666  0.1164
15201W        W30332   0.777  16.577   0.229 -0.0443  0.1466  0.2043
15202W        W30333  10.249  11.794   0.628  0.0676  0.0937 -0.0259
15203W        W30334  10.126   1.708  14.048  0.2298 -0.1829 -0.1216
15204W        W30335  13.107  17.510   5.458 -0.0496  0.0794  0.1959
15205W        W30336   0.818  17.580  16.148 -0.2107 -0.0014 -0.1758
15206W        W30337   1.264   4.855  15.077 -0.2969 -0.1663 -0.1616
15207W        W30338   2.531  14.556   3.200  0.0431  0.2084  0.1032
15208W        W30339   8.712   8.748  13.163  0.0715  0.0432 -0.2144
15209W        W30340  14.523  17.228   1.689  0.2093  0.0179 -0.1058
15210W        W30341   6.265   6.431  15.233  0.0046  0.0050  0.2555
15211W        W30342   0.811   5.955  12.298 -0.2523  0.3323  0.0071
15212W        W30343  17.688   1.424  12.571 -0.1277  0.0260  0.0843
15213W        W30344   8.519  12.788   4.337  0.0901  0.0890  0.0961
15214W        W30345   7.983   8.592   2.256 -0.0123  0.1561  0.0604
15215W        W30346  16.878   8.952   3.306 -0.3723  0.4231 -0.0257
15216W        W30347   3.870   3.153  15.781  0.2936 -0.0108 -0.2705
15217W        W30348  15.036  14.862   1.323  0.1327  0.2361 -0.0976
15218W        W30349  15.770   9.003   3.224 -0.1879  0.0896 -0.2188
15219W        W30350  15.260  13.708   5.100 -0.0780  0.2473  0.2806
15220W        W30351  13.522   4.651  13.447 -0.1432 -0.1431  0.0342
15221W        W30352   9.307   0.808  16.501  0.0079 -0.2797  0.0845
15222W        W30353   9.351   8.044  13.224  0.1020  0.1555  0.1954
15223W        W30354   9.982  17.039   0.376 -0.3630 -0.0547  0.0886
15224W        W30355  10.999  11.530   5.390 -0.0915  0.1322 -0.1891
15225W        W30356   6.862   2.844  12.597  0.0039 -0.0903  0.0620
15226W        W30357   1.182  13.700  15.808 -0.0530 -0.0039 -0.0495
15227W        W30358  10.903  12.819   3.491  0.0489  0.0756 -0.2611
15228W        W30359   5.912   9.932   2.921  0.0288 -0.0527 -0.4556
15229W        W30360   6.912  11.834   1.820  0.0044  0.2450  0.2652
15230W        W30361  12.194  13.844   3.376  0.3275 -0.1869  0.1366
15231W        W30362   4.226   4.648   2.799 -0.2144 -0.0483 -0.0308
15232W        W30363   1.205  10.503  14.184  0.0674  0.1467 -0.0002
15233W        W30364  17.855  12.024   0.846  0.2120  0.0209  0.1843
15234W        W30365   0.369  17.483   1.080 -0.1264 -0.2087 -0.3239
15235W        W30366   2.494  12.918   5.395 -0.1603 -0.0126  0.1560
15236W        W30367   7.338   3.181  13.126  0.0796 -0.4047  0.1194
15237W        W30368   3.728   3.788   4.612 -0.0750 -0.0286 -0.0254
15238W        W30369   4.186  14.789   4.371 -0.0909  0.1178  0.2396
15239W        W30370  12.609  11.586  16.657  0.1476 -0.2578 -0.2331
15240W        W30371   5.901   0.661   0.339  0.2998 -0.0159 -0.1821
15241W        W30372   1.935   5.937  13.758  0.2235 -0.1745 -0.1039
15242W        W30373   5.836  14.224   5.210 -0.5203 -0.0685 -0.1369
15243W        W30374  14.162   0.937   5.012 -0.0458 -0.1092  0.0891
15244W        W30375   7.026   4.517   1.909 -0.2674 -0.2134 -0.2162
15245W        W30376   4.246  12.355   2.644  0.0102 -0.0624 -0.1073
15246W        W30377   8.871   4.683  15.850  0.0830 -0.5893  0.0061
15247W        W30378   7.376   5.908  12.316 -0.0735 -0.0938 -0.1101
15248W        W30379   5.972   6.718   0.184  0.0293 -0.0417 -0.0468
15249W        W30380  15.240  10.694  12.390  0.2201  0.0699 -0.0142
15250W        W30381  11.629   0.730   3.577 -0.1283 -0.0331  0.0757
15251W        W30382   2.773   3.783  11.928 -0.0162 -0.0193 -0.1817
15252W        W30383   6.944   6.734   5.508 -0.0561 -0.0680  0.0830
15253W        W30384   7.479   4.301  14.065 -0.1755 -0.1796 -0.0771
15254W        W30385   1.768  15.283   1.520  0.1202  0.2332 -0.1416
15255W        W30386   8.236   3.365  10.677  0.0039 -0.2080 -0.1336
15256W        W30387   7.070   3.792  11.048  0.2248 -0.0167  0.1755
15257W        W30388   6.531   5.278  13.907 -0.2931 -0.1012  0.0999
15258W        W30389  15.832  15.816   4.070  0.2096 -0.0054 -0.2923
15259W        W30390   0.165   0.274  11.933  0.0089 -0.1664  0.0602
15260W        W30391  10.227   9.004  14.501  0.2423 -0.2184  0.1165
15261W        W30392   3.217   8.499   1.538 -0.1924  0.0727  0.1846
15262W        W30393   8.740  16.007   0.069  0.0977  0.1822 -0.1173
15263W        W30394   1.739   0.327   5.784 -0.2949  0.2585 -0.2152
15264W        W30395   6.530   4.181   0.069  0.0099 -0.0440 -0.1805
15265W        W30396   3.529   1.741   3.138 -0.0441 -0.0372  0.0879
15266W        W30397  15.933   4.526   3.288  0.0443 -0.0514 -0.0069
15267W        W30398  12.874  10.348  13.376  0.1944  0.0618  0.0326
15268W        W30399  10.220   8.565   0.732  0.0141 -0.3264  0.1114
15269W        W30400  11.457  17.193  13.136  0.0105 -0.0546  0.0787
15270W        W30401  13.346   7.176   5.185  0.1540 -0.2460 -0.0073
15271W        W30402  17.872   7.590   4.023 -0.2024  0.1483  0.1435
15272W        W30403  15.836  16.673   4.418 -0.0241 -0.2090 -0.2141
15273W        W30404  10.443  16.133  14.695 -0.0904  0.1095 -0.1650
15274W        W30405   7.161  12.523  13.150 -0.4213  0.0167  0.2110
15275W        W30406  15.332  13.051   3.161 -0.1812 -0.0491 -0.2949
15276W        W30407   7.485   4.335   0.516 -0.1487 -0.2601 -0.0156
15277W        W30408   2.475   4.161   1.408 -0.0277  0.1761  0.1533
15278W        W30409   2.380   2.537  13.761 -0.1161  0.1318 -0.0654
15279W        W30410   7.990   1.978  15.852  0.2368  0.1754  0.0074
15280W        W30411  15.196   3.023  15.324 -0.0389  0.1093  0.1551
15281W        W30412   8.034  16.461  14.738  0.0595  0.1143  0.0618
15282W        W30413   4.645  10.259  15.584 -0.0477  0.2403 -0.0867
15283W        W30414  15.335   2.633   1.785 -0.1987 -0.1996 -0.0601
15284W        W30415   2.183  14.271   2.928 -0.1397 -0.1342 -0.1851
15285W        W30416   3.251   0.147   1.267 -0.1157 -0.3084  0.4281
15286W        W30417   3.367   9.488   2.948 -0.3346 -0.0949  0.0965
15287W        W30418   9.843  15.336   3.802 -0.2012  0.0748 -0.0224
15288W        W30419  16.569  15.597   5.270 -0.1145  0.0600  0.1445
15289W        W30420  12.831  10.843  14.471 -0.1577  0.0592 -0.1310
15290W        W30421   3.462   8.545  14.790  0.0563  0.0563 -0.1748
15291W        W30422  12.533  14.435  16.184 -0.2697 -0.3118  0.0453
15292W        W30423   0.985   4.346   3.785 -0.1790  0.1182  0.2747
15293W        W30424  12.617  16.985   4.605  0.0952 -0.3853 -0.0501
15294W        W30425   8.868   4.103   4.192  0.1118 -0.1327 -0.0455
15295W        W30426   8.911   3.166   4.558 -0.1217 -0.1759 -0.0233
15296W        W30427  12.387   9.992   2.171  0.1094 -0.1132  0.1107
15297W        W30428   1.711  13.503   3.181  0.1100  0.0442  0.1772
15298W        W30429  16.404   9.076  13.969 -0.1000 -0.0987 -0.3505
15299W        W30430   0.422  11.551   5.473  0.2164  0.2341 -0.0382
15300W        W30431  12.262   3.350  12.764 -0.1633 -0.0079 -0.2305
15301W        W30432   5.962   6.970  11.601  0.1180 -0.2249 -0.2678
15302W        W30433   1.300  12.166  13.968 -0.1076 -0.0356  0.1644
15303W        W30434  14.867   8.099  13.292 -0.1196 -0.0999  0.2223
15304W        W30435   0.758   4.553  13.659  0.0982 -0.0457  0.3015
15305W        W30436  12.801   4.737   4.539 -0.1732 -0.3712  0.0744
15306W        W30437  10.566  13.702  13.433  0.0009 -0.2612 -0.3492
15307W        W30438  14.741   9.254   4.368  0.0286  0.4758  0.0322
15308W        W30439  17.379  14.041   1.411 -0.1809 -0.1093  0.3221
15309W        W30440  12.425   8.071   2.475 -0.0932 -0.1711  0.0115
15310W        W30441  17.426   9.740   4.949 -0.1937 -0.0069 -0.3592
15311W        W30442  13.483   4.927   0.233  0.2564  0.0279  0.1570
15312W        W30443   3.937   7.079   3.846 -0.0760 -0.1368  0.1965
15313W        W30444  16.524   1.943  12.347 -0.3281  0.1991 -0.2491
15314W        W30445   9.434  11.187  15.446 -0.2991  0.1858  0.0087
15315W        W30446   1.341   1.115  16.205 -0.1625  0.2194 -0.1887
15316W        W30447  16.660   6.491  11.321  0.0863  0.2228 -0.0592
15317W        W30448  10.048  14.171  12.185  0.0543  0.2166  0.2075
15318W        W30449  13.626  12.873   1.830 -0.1956 -0.1700  0.2233
15319W        W30450  17.508   6.567  12.519  0.0389  0.1787 -0.0976
15320W        W30451  10.362  14.672   4.427 -0.0700 -0.2829  0.0218
15321W        W30452  14.418  16.061   0.598  0.0864  0.1501 -0.2262
15322W        W30453   6.516  15.404  12.684 -0.1416  0.0707  0.0745
15323W        W30454  10.913  14.688  15.705  0.3763 -0.0239  0.1626
15324W        W30455  12.879   9.212   1.861 -0.1956  0.0608 -0.2267
15325W        W30456   1.553   4.795  14.263 -0.1656 -0.2237 -0.1010
15326W        W30457   3.547  10.096   4.216 -0.1866 -0.0519 -0.0322
15327W        W30458   2.283  10.066   3.232  0.0604  0.0407  0.3285
15328W        W30459   9.360  10.976  13.146  0.0351  0.1227  0.1689
15329W        W30460   0.823   6.661  16.355 -0.1536 -0.1086 -0.1876
15330W        W30461  14.227  15.629  14.589  0.0380  0.2855  0.0853
15331W        W30462  15.149  15.692   0.678  0.2123  0.1701 -0.2689
15332W        W30463   8.692   2.214  16.473 -0.2361  0.3014  0.1472
15333W        W30464  13.547  12.903  14.132 -0.4885 -0.2157  0.2822
15334W        W30465  13.902  10.627   3.578 -0.0208 -0.0775 -0.0158
15335W        W30466   6.092  10.575  14.924 -0.0543 -0.0103 -0.4148
15336W        W30467   9.868   1.635   1.840 -0.0199 -0.1278 -0.0934
15337W        W30468  15.894  10.531   3.306 -0.3079  0.0083  0.3034
15338W        W30469  12.605  15.852  13.743  0.0219  0.0768 -0.1272
15339W        W30470   0.055   9.162   1.202 -0.0969  0.0933  0.2049
15340W        W30471   9.800   7.930  14.398  0.1285  0.1886  0.1189
15341W        W30472   4.815   2.605  13.199 -0.1229 -0.0417 -0.3596
15342W        W30473   4.477   1.061   4.751 -0.0121 -0.2948 -0.0163
15343W        W30474   9.537   6.038   3.538  0.1128  0.2199  0.1510
15344W        W30475   3.446  13.437  13.500  0.2543  0.0939 -0.1066
15345W        W30476   5.834  13.592   0.722 -0.0523  0.1809  0.4236
15346W        W30477  10.236   8.002  16.054  0.5497 -0.1253 -0.1307
15347W        W30478   7.690   2.934   2.476  0.0296 -0.0900 -0.1103
15348W        W30479  16.627  17.105  14.122  0.0960 -0.0538 -0.0039
15349W        W30480  13.962  12.361   2.884  0.1197 -0.0887  0.4056
15350W        W30481  12.335  16.642   0.091  0.0283 -0.0814  0.0886
15351W        W30482  14.286  16.640   4.293  0.0176 -0.1751 -0.1815
15352W        W30483  17.274   5.130   1.136  0.1437 -0.0867  0.2232
15353W        W30484   2.524   5.502   2.613 -0.2506  0.2469  0.2273
15354W        W30485   5.212   5.087   1.471 -0.1842  0.3594 -0.0335
15355W        W30486   3.282   2.653   0.244  0.2606  0.1990  0.1370
15356W        W30487  11.166  17.257   4.876  0.0764 -0.1661  0.1170
15357W        W30488   5.621   0.388  15.820  0.2281  0.2729 -0.0614
15358W        W30489  16.912   0.552   0.130  0.2340  0.0311  0.2943
15359W        W30490  17.119   6.493   2.340  0.0770  0.3031  0.1198
15360W        W30491   0.332  10.234   5.152  0.1374 -0.2662  0.4606
15361W        W30492  15.126   8.757   0.508 -0.1140  0.0471  0.4564
15362W        W30493   0.598   4.739  12.752  0.1094  0.2381 -0.0446
15363W        W30494  10.641  15.531   3.994  0.2792 -0.0847 -0.1161
15364W        W30495   6.550   0.705   0.433  0.2342  0.1972  0.2171
15365W        W30496   5.178   3.910  11.627 -0.2839  0.0904  0.0745
15366W        W30497   6.866   7.403   2.290  0.3661  0.0216 -0.1077
15367W        W30498  15.517  10.663   2.365 -0.0553 -0.1530 -0.0432
15368W        W30499  14.725  10.502   2.541 -0.2190 -0.0794  0.0229
15369W        W30500  17.206   4.349  16.728  0.2148 -0.0312  0.1306
15370W        W30501  13.181   2.310   3.815 -0.3409  0.0185  0.0700
15371W        W30502  17.430  17.467   3.172  0.1828 -0.1913 -0.1977
15372W        W30503  10.876   2.086  10.688  0.1787 -0.0704  0.3965
15373W        W30504   0.538   4.872  11.551  0.2488  0.2391  0.0407
15374W        W30505  11.279   8.264   3.130  0.0388  0.1626 -0.0267
15375W        W30506   6.449   7.127   3.754  0.0854  0.1684 -0.0449
15376W        W30507   4.208  16.224   5.422 -0.0330 -0.1000  0.0931
15377W        W30508   8.242  12.156  16.208 -0.3621  0.2423  0.2253
15378W        W30509   8.948  11.886   0.793  0.1262  0.2542  0.1220
15379W        W30510  12.439  14.013   2.100 -0.0565  0.2068 -0.0094
15380W        W30511   7.931   0.063  11.071 -0.1382  0.3857  0.2519
15381W        W30512   2.943   3.303   2.742 -0.1536 -0.2184 -0.1486
15382W        W30513   2.203   5.595  15.593 -0.0263 -0.0758 -0.0183
15383W        W30514   1.757  16.921   6.824  0.0923  0.2553  0.2904
15384W        W30515   6.356  15.546  11.674 -0.2307  0.1225  0.2490
15385W        W30516  15.563   2.204  12.242  0.1950 -0.2492 -0.2836
15386W        W30517   4.585   9.521   2.356 -0.0364  0.2563  0.4426
15387W        W30518   3.711  11.201   1.486 -0.2383  0.1781  0.1422
15388W        W30519  17.202  14.352   5.827  0.3052 -0.3018  0.0424
15389W        W30520   7.573  15.912  11.725  0.0102  0.1313  0.0461
15390W        W30521   8.071   0.599  12.991 -0.1446  0.0811 -0.1392
15391W        W30522   1.528   0.269   5.255 -0.1360  0.0140 -0.1064
15392W        W30523   7.347   5.289   2.926 -0.0604  0.2441  0.0883
15393W        W30524   3.880   3.944   3.133 -0.2784 -0.0885  0.0233
15394W        W30525   8.731   3.790   5.151 -0.2023 -0.1736 -0.2247
15395W        W30526  17.038  12.611   3.463 -0.2885 -0.2142 -0.1160
15396W        W30527  15.474  15.217   1.514  0.2321 -0.1060  0.1585
15397W        W30528  17.217  12.738   0.327 -0.0320 -0.2378 -0.0501
15398W        W30529  17.348  11.695   0.807  0.0413  0.0714 -0.2122
15399W        W30530   4.199   3.682  15.104  0.1715 -0.2124 -0.2288
15400W        W30531  15.560  14.356   0.228  0.1064 -0.1317  0.3455
15401W        W30532   1.628   3.954   0.929 -0.1258  0.0920 -0.1913
15402W        W30533  14.950  11.271   4.852 -0.0451 -0.2947 -0.0221
15403W        W30534   8.877   9.001  14.287 -0.1618 -0.4030 -0.3774
15404W        W30535  16.272  13.218  14.597  0.1261  0.2237 -0.1023
15405W        W30536   7.682  11.320  11.693  0.1716 -0.0489  0.0099
15406W        W30537  15.859  11.734   0.813 -0.1234 -0.2186  0.0921
15407W        W30538   8.475   9.783   3.847  0.1529  0.1478  0.3001
15408W        W30539   9.642  16.899   4.071 -0.0123  0.0493  0.1260
15409W        W30540   0.716  14.491   4.308 -0.1134  0.1679  0.0597
15410W        W30541   2.712  17.345   1.596  0.4504  0.1950  0.2049
15411W        W30542   8.947  13.549  11.476  0.2541  0.0153 -0.5374
15412W        W30543  10.409   6.631  13.281 -0.3577 -0.0388 -0.0494
15413W        W30544   4.062  17.775   6.575 -0.2595  0.0314  0.2946
15414W        W30545  10.469   1.835   3.186 -0.0797  0.0163  0.0822
15415W        W30546   0.287   1.809   1.843  0.3029  0.0299 -0.1013
15416W        W30547  14.502  14.830  11.179 -0.0697 -0.0596  0.0312
15417W        W30548  13.953   8.862  12.538  0.2211 -0.1133  0.0137
15418W        W30549   5.029   0.619  12.137 -0.1320  0.0792 -0.1018
15419W        W30550  15.825  14.300  11.607  0.0510 -0.1171  0.1483
15420W        W30551  11.280   5.099   0.337  0.1057  0.5294 -0.2484
15421W        W30552   4.546   7.922  15.911 -0.1567  0.2562  0.2095
15422W        W30553  17.854   5.524   4.740  0.0090  0.1717  0.0810
15423W        W30554   5.642  15.668   3.170 -0.0074 -0.0853  0.1733
15424W        W30555  14.241  17.508  12.536  0.2844  0.6449 -0.1766
15425W        W30556   1.791  11.101  11.099 -0.0586  0.1790  0.2617
15426W        W30557  12.959   3.869  16.620  0.1025  0.0695  0.1833
15427W        W30558  13.686  13.413   0.787  0.2723  0.2356 -0.1206
15428W        W30559  14.971  13.439  13.703  0.0381 -0.1184 -0.0796
15429W        W30560   7.392   5.126  13.209  0.1586 -0.2327 -0.1917
15430W        W30561   3.906   0.757  11.882  0.1066 -0.0473  0.3336
15431W        W30562   7.239  16.545  15.076  0.2608 -0.3067 -0.2615
15432W        W30563   3.525  12.247   2.442  0.2441 -0.1385  0.1332
15433W        W30564  15.735  16.008   1.853  0.0795 -0.0214 -0.1327
15434W        W30565   9.815   9.581  13.579  0.3567  0.0521  0.3361
15435W        W30566   9.402  12.279   3.379  0.1601  0.3100 -0.0396
15436W        W30567  14.522   5.314  14.860  0.0929  0.2620 -0.3328
15437W        W30568  14.639   1.721   3.331 -0.0085  0.0546  0.0329
15438W        W30569   4.454   9.768  14.433  0.3342 -0.0707 -0.2726
15439W        W30570   6.994   8.408  15.038 -0.1247 -0.0038 -0.5351
15440W        W30571   0.822   7.840  13.350 -0.0786 -0.1197 -0.2059
15441W        W30572   0.915  13.915  15.425 -0.0785  0.2284  0.3264
15442W        W30573  14.105  10.907  14.919 -0.1069 -0.1748  0.2030
15443W        W30574  17.462   8.794  15.354  0.0640  0.1890 -0.2999
15444W        W30575  13.967   0.723   1.951  0.1534  0.0767 -0.0708
15445W        W30576   3.321  10.999  16.200  0.0534  0.0544 -0.0882
15446W        W30577   7.109   8.927   4.523 -0.0431 -0.1717  0.0240
15447W        W30578  16.085   3.964  10.759 -0.2584 -0.3138 -0.1160
15448W        W30579  15.497  16.776   6.032 -0.0034  0.0192  0.0407
15449W        W30580  11.425  14.280   3.816  0.0296  0.1812 -0.0584
15450W        W30581  14.849   7.369   1.436  0.0995 -0.0534 -0.0242
15451W        W30582   3.679   2.779  15.404  0.2038  0.0413 -0.2632
15452W        W30583   8.122  16.269   2.612 -0.0745  0.1041  0.0206
15453W        W30584  14.311  17.122   0.868 -0.0207  0.3549  0.1332
15454W        W30585  10.845  12.105  16.724  0.0114 -0.1119 -0.0732
15455W        W30586   9.689  10.056  10.581 -0.1485  0.1404 -0.3282
15456W        W30587   7.868   9.261  14.596 -0.2493 -0.1347 -0.2417
15457W        W30588   9.118   5.048  15.500 -0.0701 -0.0511  0.2359
15458W        W30589  17.424   5.003  15.595  0.2268  0.0368 -0.0343
15459W        W30590   0.217   4.064   1.234 -0.2141 -0.1525 -0.1047
15460W        W30591   0.512   4.498   1.032  0.3524  0.2030  0.3366
15461W        W30592   8.489   8.103  14.166 -0.1243 -0.0203 -0.0253
15462W        W30593   6.656   1.037  15.176  0.2603  0.0856 -0.4365
15463W        W30594   7.477  11.755  16.532  0.0020 -0.1360 -0.1567
15464W        W30595  11.250  16.036   2.632  0.1514 -0.2678 -0.1573
15465W        W30596   0.475   2.926  14.107  0.0340  0.0870  0.0252
15466W        W30597  17.013   5.535   5.137 -0.1695  0.0734  0.1263
15467W        W30598   8.009  11.854  12.475 -0.1128 -0.0662  0.2266
15468W        W30599   8.199   0.458   0.833  0.0581 -0.0008 -0.2433
15469W        W30600   2.268  12.604  15.826  0.1401  0.0025 -0.2347
15470W        W30601   6.831  13.379  16.401  0.1084 -0.1967 -0.2533
15471W        W30602   0.092   8.413   0.701 -0.0933  0.0866 -0.0832
15472W        W30603   1.294  13.822  16.753 -0.0754  0.0397  0.0177
15473W        W30604   7.083   1.067  14.010  0.2575 -0.1184 -0.0338
15474W        W30605   6.981   7.409  14.378 -0.0952 -0.1143 -0.1148
15475W        W30606  14.689   4.596  14.577 -0.3471  0.1307 -0.0417
15476W        W30607   0.108  14.281  13.598 -0.0118  0.2632 -0.1500
15477W        W30608   1.129  14.681  12.511 -0.3187 -0.1088  0.2117
15478W        W30609   1.526   1.348   3.391  0.2672  0.2905 -0.2251
15479W        W30610   8.699   4.999  14.470 -0.0195 -0.2684 -0.0657
15480W        W30611  11.568   8.829  15.989 -0.0768  0.3171  0.2954
15481W        W30612  15.062  10.178   1.215  0.0359  0.0699  0.0843
15482W        W30613  13.616   4.371   4.829 -0.0439  0.0575  0.1666
15483W        W30614   7.985   1.225  13.811  0.1145 -0.0775 -0.0068
15484W        W30615  14.883  12.501  15.385  0.3040  0.0197  0.0739
15485W        W30616  12.839   2.976  13.385 -0.3505 -0.2145  0.3144
15486W        W30617   5.788  17.735  13.788 -0.0177 -0.1102 -0.0349
15487W        W30618   0.617   0.134  15.266  0.1531 -0.1103  0.0071
15488W        W30619   1.570   6.706  14.451  0.0398  0.1842  0.2239
15489W        W30620   5.920   8.921   5.237  0.0727  0.0327  0.2830
15490W        W30621   4.782  15.811  14.644 -0.2474 -0.0595 -0.2679
15491W        W30622  14.738   2.814   3.940  0.0118 -0.1493  0.3063
15492W        W30623   5.570   0.010  12.933  0.1461 -0.2879  0.1537
15493W        W30624  12.191  13.685  11.681  0.0372 -0.1487  0.0301
15494W        W30625  14.085  16.270  15.557 -0.3083  0.0662  0.4647
15495W        W30626   8.080   1.222   0.384  0.1812  0.0347 -0.0594
15496W        W30627  11.133  16.619  14.180 -0.1717  0.0109 -0.0906
15497W        W30628   7.683   4.361   2.563 -0.3144  0.0824 -0.1994
15498W        W30629  14.304   5.563   5.035  0.3137  0.2715  0.0130
15499W        W30630  12.061   9.647   3.484  0.0827  0.1715 -0.1352
15500W        W30631   9.443  10.648   0.965  0.0686  0.2017  0.0751
15501W        W30632  11.344  10.615   2.751 -0.1553  0.1556 -0.1181
15502W        W30633   0.621  15.168  12.162  0.1421  0.4475 -0.2851
15503W        W30634   7.443  15.986   0.025 -0.0320 -0.1139  0.1680
15504W        W30635  14.685  11.900   0.547 -0.1184  0.4355 -0.2164
15505W        W30636  15.982  14.258  15.433  0.2287 -0.1575  0.2514
15506W        W30637   0.780   8.345  13.386  0.2037 -0.0309 -0.0833
15507W        W30638   2.706  15.286  12.268 -0.1421  0.1925 -0.0703
15508W        W30639  13.263  15.909  11.911 -0.2410  0.0287 -0.1994
15509W        W30640   7.429  12.993   1.819 -0.1427  0.2784  0.0693
15510W        W30641  17.675   8.422  16.137 -0.2118 -0.0432 -0.0634
15511W        W30642   6.802  12.016   5.150  0.1550 -0.1578  0.2502
15512W        W30643   8.744   1.688  14.717  0.0201 -0.2216 -0.1752
15513W        W30644   4.749   5.833  11.812  0.0314 -0.0205  0.1182
15514W        W30645  14.930   5.942  15.508 -0.1746  0.1748 -0.2209
15515W        W30646   4.292   1.538   0.275 -0.4392  0.4660 -0.1575
15516W        W30647  13.404  13.688  14.148 -0.0887 -0.1010 -0.0049
15517W        W30648  12.033   8.078  10.744  0.1473 -0.3265 -0.1719
15518W        W30649   0.848   1.344   0.109 -0.3416  0.1350 -0.2914
15519W        W30650   9.989  13.767  16.730  0.2796 -0.0622 -0.1749
15520W        W30651   9.227  11.525  16.539  0.1559  0.0518  0.0355
15521W        W30652   6.443  12.725   1.896  0.1348 -0.1585  0.1055
15522W        W30653  17.613   9.070   0.629  0.0012 -0.0434 -0.0729
15523W        W30654   8.457   6.863  14.355 -0.0916  0.0805  0.2255
15524W        W30655  15.353  12.903   0.031 -0.0313 -0.3524  0.0171
15525W        W30656   1.398   0.086   3.783  0.1176  0.0143  0.1787
15526W        W30657  16.145   6.408  14.208 -0.3893 -0.0017  0.3126
15527W        W30658  13.663  13.071   4.603  0.1485  0.0954 -0.1027
15528W        W30659  17.045   1.317  13.858 -0.0555  0.1948 -0.0072
15529W        W30660  14.527   6.313  13.168  0.1741 -0.1070  0.1045
15530W        W30661  11.277  11.566   4.978 -0.0923  0.0664  0.0990
15531W        W30662  11.290  17.678  14.500 -0.1038 -0.1791  0.0005
15532W        W30663  13.064  10.755  16.208  0.1213 -0.3770  0.1266
15533W        W30664   8.859  11.725   2.284 -0.2555  0.0929 -0.0281
15534W        W30665   0.197   5.609  15.979  0.2191  0.0028  0.0701
15535W        W30666  14.009  15.943   0.025 -0.0941 -0.0043  0.1311
15536W        W30667   7.273   2.094   2.818 -0.1977 -0.0325 -0.4115
15537W        W30668   2.037   7.088  12.739 -0.1146  0.1142 -0.0297
15538W        W30669   8.446  15.686  12.292  0.0825 -0.2428  0.0260
15539W        W30670   7.462  13.434  14.065 -0.1797 -0.0949 -0.0984
15540W        W30671   2.920   3.796   1.597  0.0872 -0.0823 -0.1871
15541W        W30672   9.658   1.110   2.546  0.3619 -0.1815  0.0140
15542W        W30673  16.945   2.808  12.559 -0.0019 -0.1583 -0.0448
15543W        W30674  16.222   2.341  14.195 -0.1378 -0.0814 -0.1457
15544W        W30675   8.496   9.601  13.156  0.2525  0.1982 -0.2705
15545W        W30676  16.648   3.450  12.493  0.1197  0.2610 -0.0091
15546W        W30677   8.059  11.946  13.329 -0.0806 -0.1053 -0.2086
15547W        W30678  13.206  11.076   3.004  0.0649  0.0005  0.2680
15548W        W30679  14.585   0.591   1.282 -0.1874  0.4467 -0.0464
15549W        W30680  16.966   7.416  15.510 -0.3957 -0.1566  0.2459
15550W        W30681  10.403  13.368   3.113  0.0970 -0.1439 -0.1001
15551W        W30682   3.780   0.885   6.092  0.1532 -0.0767 -0.2032
15552W        W30683  11.087   5.425   4.382  0.1021  0.1176 -0.2193
15553W        W30684   3.027   3.930   3.306 -0.1880 -0.1764 -0.0462
15554W        W30685  14.067  13.070  14.669  0.0824  0.1523  0.2070
15555W        W30686  12.256   7.243  12.500 -0.2322 -0.1350  0.0651
15556W        W30687  12.729   1.800  11.302 -0.0570  0.1287 -0.1536
15557W        W30688  13.293  10.366  13.907 -0.2462 -0.1295 -0.1284
15558W        W30689  10.368   6.406   0.999  0.2440 -0.1570  0.2314
15559W        W30690   4.348   3.831   4.043 -0.2181  0.0231 -0.2217
15560W        W30691   6.578  13.692   3.499 -0.0731 -0.3724 -0.0956
15561W        W30692  14.071   1.121   0.599  0.0570 -0.1033  0.2662
15562W        W30693   7.324   8.367   1.567  0.2293 -0.1665 -0.2564
15563W        W30694   5.225   2.236  12.797 -0.1310 -0.0643  0.1851
15564W        W30695  14.186   7.189  15.241  0.1211  0.1775 -0.2769
15565W        W30696   0.198  11.639   2.554 -0.0374 -0.0984  0.0284
15566W        W30697   2.137  12.014   4.052 -0.0377 -0.2242 -0.1890
15567W        W30698  10.333   7.634   1.359 -0.0754  0.0103  0.2300
15568W        W30699  11.338   4.699  14.300 -0.2493 -0.4214  0.0702
15569W        W30700   7.767   1.684  13.032  0.0676  0.1675  0.0588
15570W        W30701   6.896   0.200   4.018 -0.1874  0.1892 -0.2136
15571W        W30702  12.614  13.063  15.485  0.0241 -0.3145  0.1126
15572W        W30703   2.783  13.960   3.951 -0.3858  0.4412 -0.1990
15573W        W30704   1.004   2.473  14.712  0.1984 -0.1565 -0.0645
15574W        W30705   9.320  14.215  14.628 -0.0535 -0.0643  0.0753
15575W        W30706   3.328   2.128   6.015 -0.1776 -0.1437  0.0505
15576W        W30707  12.191  15.672  14.067 -0.0456 -0.1356  0.1411
15577W        W30708  12.874   1.000   3.204  0.1315  0.0418  0.0640
15578W        W30709  15.865   7.229  16.012  0.3138 -0.1907  0.0184
15579W        W30710   2.181   8.934  15.626 -0.0027  0.0705  0.0278
15580W        W30711   4.078   9.912   4.985  0.0683  0.0926 -0.1040
15581W        W30712  10.476  11.159   6.449  0.0093  0.3323 -0.1025
15582W        W30713   4.924   2.281   0.388  0.3204 -0.0752  0.3139
15583W        W30714  14.101   4.854  15.732 -0.2124 -0.1081  0.2372
15584W        W30715  17.605   7.144   4.326 -0.0918  0.1332  0.1323
15585W        W30716  11.363   0.976   2.168 -0.3260 -0.1758  0.4074
15586W        W30717  16.839   6.625   1.160 -0.0350 -0.2030 -0.0082
15587W        W30718   7.750  11.032  14.152  0.0204 -0.3514  0.0076
15588W        W30719   1.813  11.068  15.067  0.0514 -0.1301 -0.3375
15589W        W30720   5.889  10.032   0.236 -0.1357  0.1215 -0.3959
15590W        W30721   2.761  15.157   5.447  0.1418 -0.2293  0.2976
15591W        W30722  16.090   6.713   5.223  0.1277 -0.0367  0.4197
15592W        W30723   7.671   9.210  13.468 -0.2550  0.2015  0.2670
15593W        W30724   8.437  14.228  16.426  0.0603 -0.0983 -0.1810
15594W        W30725  11.509  12.490  13.758 -0.2891 -0.1502 -0.2518
15595W        W30726   0.899  13.735   2.234 -0.0888  0.1593 -0.2043
15596W        W30727   4.995  13.373   3.074 -0.2033  0.2878 -0.2445
15597W        W30728  17.722  14.880   4.298 -0.0970 -0.0563 -0.0895
15598W        W30729  14.021  14.759   4.585  0.2136  0.0792 -0.1581
15599W        W30730   3.689   0.715   2.680  0.1861  0.0756 -0.0629
15600W        W30731  13.318  11.594   3.009 -0.2569 -0.1963 -0.2111
15601W        W30732  15.175  13.989   0.590 -0.2274  0.0122 -0.4833
15602W        W30733   3.691   8.659  13.070  0.1752 -0.2058 -0.0694
15603W        W30734   4.336   7.166  12.752  0.0112  0.1386 -0.3129
15604W        W30735   2.511  13.715   0.373 -0.1835  0.2875  0.1666
15605W        W30736   1.911  14.746   5.010  0.0473 -0.1478 -0.0536
15606W        W30737  16.293   6.357   4.966 -0.0820  0.1186 -0.1855
15607W        W30738   3.612   4.177   0.072  0.0668 -0.1433  0.3633
15608W        W30739   0.976   3.825  15.169  0.1229 -0.0027 -0.1435
15609W        W30740   2.685   0.442   4.921  0.1618 -0.1718  0.0810
15610W        W30741  11.091  11.571  16.101 -0.0629  0.1032  0.0417
15611W        W30742  10.367  17.739  15.025  0.3659 -0.1086 -0.1177
15612W        W30743   0.229  17.750  12.596 -0.0158  0.0727  0.4408
15613W        W30744   8.849  10.560   4.336 -0.1944  0.2028  0.0933
15614W        W30745  13.308   7.230   6.396  0.1332  0.0347  0.0169
15615W        W30746  13.964   9.330  12.965  0.3172 -0.0687 -0.1381
15616W        W30747  16.112  11.657   2.351 -0.1027  0.0225  0.0576
15617W        W30748  17.101   2.116  13.815 -0.0040  0.0406  0.1589
15618W        W30749   2.472  10.512   2.178  0.0531  0.0442 -0.1237
15619W        W30750  10.015   8.741   4.445  0.3252 -0.1038 -0.0512
15620W        W30751  15.396  13.151  12.682 -0.0911  0.2159 -0.0866
15621W        W30752   6.418  12.662   3.669 -0.1767 -0.0903  0.0080
15622W        W30753   0.033  12.814   2.059 -0.2196 -0.1744  0.2356
15623W        W30754   2.121  11.490  12.201  0.1056  0.1235  0.0848
15624W        W30755   3.249  12.670  12.172 -0.1917 -0.0863  0.0293
15625W        W30756  10.693   7.258  15.518  0.3405  0.0022  0.2448
15626W        W30757  10.539   1.813   1.453 -0.1734  0.0849 -0.0051
15627W        W30758   0.169  17.073   4.777 -0.0501  0.2316  0.1181
15628W        W30759   3.168  15.929  12.016  0.2017 -0.2059  0.0319
15629W        W30760   1.193   5.853  15.797  0.0617 -0.0776 -0.0951
15630W        W30761   3.938   5.025  13.581  0.0361 -0.0402 -0.1800
15631W        W30762  12.268   4.466   3.982 -0.1940 -0.2164  0.0569
15632W        W30763  15.950   1.284   2.300 -0.1173  0.0975 -0.1011
15633W        W30764  10.843   8.539  14.161 -0.1220  0.3710 -0.0514
15634W        W30765   8.699   9.678   2.302 -0.2398 -0.0780 -0.1423
15635W        W30766   0.245   6.078  14.741  0.2198  0.0182 -0.0680
15636W        W30767   6.403   7.164  13.448  0.0392 -0.0306 -0.3334
15637W        W30768  17.547   2.266   3.716 -0.0280 -0.1550 -0.1132
15638W        W30769  14.727   0.187   3.932 -0.0729 -0.1320  0.1758
15639W        W30770   0.429  11.060  14.589  0.1780  0.0419 -0.1383
15640W        W30771   5.023   6.239  13.610 -0.0057  0.1178 -0.0405
15641W        W30772   0.014   5.034  11.566  0.0703 -0.1948  0.2218
15642W        W30773  15.936   1.102   4.617 -0.1137 -0.1911 -0.2570
15643W        W30774   4.939   9.456  16.120  0.1806  0.1660 -0.1753
15644W        W30775   4.010  17.808  16.450 -0.1270  0.1668 -0.3124
15645W        W30776  16.226   4.767  11.709  0.1382 -0.0996 -0.1442
15646W        W30777   0.782  11.727   5.857  0.1589  0.2103 -0.1141
15647W        W30778   3.365  17.742   0.821 -0.2073  0.2541 -0.0548
15648W        W30779   2.186  12.203  14.703  0.1847 -0.0767 -0.1903
15649W        W30780   1.386  15.586  12.895  0.0873  0.1480  0.0087
15650W        W30781  14.899   8.960   4.031 -0.2696  0.1597  0.0310
15651W        W30782   9.863   7.206  12.250 -0.0319 -0.0421  0.1600
15652W        W30783   6.842   1.170   4.065  0.0492 -0.1866 -0.1783
15653W        W30784   6.539   7.397   1.455  0.2253  0.0905 -0.2064
15654W        W30785  14.263  10.714   0.552  0.3753 -0.0207  0.0468
15655W        W30786   6.978   2.782  15.375  0.1646 -0.0637 -0.3894
15656W        W30787   0.969   5.294  14.980  0.3486 -0.1105  0.0059
15657W        W30788  14.965  12.834  16.450 -0.0363  0.0583 -0.3537
15658W        W30789  15.885  16.678   6.485  0.1492 -0.2456  0.1630
15659W        W30790   5.607  14.373  14.052  0.1555 -0.0937 -0.0072
15660W        W30791   4.306  14.486   1.046  0.1700 -0.2810  0.3529
15661W        W30792  11.027   6.707   3.159 -0.0699 -0.1328  0.0437
15662W        W30793   0.083  16.092   5.948  0.1061  0.0950  0.1648
15663W        W30794  16.479   9.597   3.859  0.0515  0.1166  0.0357
15664W        W30795   2.542  17.662  15.022  0.0234  0.0105 -0.1914
15665W        W30796  12.415   5.920   5.042  0.3399 -0.0113 -0.1306
15666W        W30797   2.765   2.691  15.597  0.0621 -0.2142 -0.3121
15667W        W30798   7.266   9.641  14.748  0.3223  0.1493  0.2682
15668W        W30799   6.582  10.880  15.816  0.0757 -0.3207  0.0963
15669W        W30800  12.690  12.708   5.464 -0.2762  0.0772  0.1220
15670W        W30801  13.070  13.022   2.113 -0.2078  0.3017 -0.1153
15671W        W30802   6.517   1.564   5.847  0.2669  0.0355 -0.1729
15672W        W30803  10.939  14.233   1.035 -0.0828  0.0319  0.0845
15673W        W30804   0.259  17.433   1.615  0.1222 -0.0917 -0.0846
15674W        W30805   7.435  14.492  14.035  0.0227  0.1576 -0.0304
15675W        W30806  17.121  11.336  11.721 -0.1445  0.0728 -0.3857
15676W        W30807   2.461  10.408   3.570 -0.1087  0.0831 -0.2266
15677W        W30808   5.139   7.859   6.367  0.2516 -0.1914  0.0819
15678W        W30809   4.618  16.475   2.108  0.1354  0.2057  0.0918
15679W        W30810  14.054   9.276  11.516 -0.1046  0.3294  0.2988
15680W        W30811  11.472   3.542  13.943  0.0617  0.0046  0.0924
15681W        W30812   3.680   7.138   4.314 -0.3596 -0.0803 -0.0539
15682W        W30813   0.161   1.976  11.427 -0.2315 -0.1629  0.2410
15683W        W30814   0.626   5.113  11.055 -0.1348  0.1931 -0.1117
15684W        W30815   2.644  16.324   1.907 -0.0420  0.0044  0.0789
15685W        W30816  13.371  11.172   4.777  0.1362 -0.2475  0.1673
15686W        W30817   9.736   8.257  15.502  0.0126 -0.1035  0.0574
15687W        W30818  10.662  12.963   3.968  0.1622 -0.1163 -0.1833
15688W        W30819   1.851  17.315  12.310  0.1405  0.4974  0.0767
15689W        W30820   2.018  12.676   3.627  0.1583 -0.0656  0.0432
15690W        W30821   5.506  16.626   1.675  0.1826 -0.5590 -0.1296
15691W        W30822  11.233  10.353  16.021  0.1137 -0.1407 -0.3615
15692W        W30823  15.849  13.126  13.795 -0.1161 -0.3061  0.1232
15693W        W30824  16.984   4.928   2.042  0.0519  0.1017  0.1737
15694W        W30825   2.815  13.202  10.378  0.0971 -0.2029 -0.4273
15695W        W30826   7.181  17.491  13.464  0.0860  0.1190 -0.0970
15696W        W30827  14.727   5.693   5.190  0.1332 -0.0810  0.0159
15697W        W30828   0.016  12.197  14.405 -0.2815 -0.0168 -0.1647
15698W        W30829   4.506   5.774   1.676  0.0154 -0.1185 -0.0003
15699W        W30830   5.900   8.431  13.330  0.1060 -0.0448 -0.2288
15700W        W30831   2.298   7.057  13.910 -0.1675  0.3600  0.0220
15701W        W30832   3.445   7.550  11.528 -0.0455 -0.1339 -0.0175
15702W        W30833   8.613   7.075  16.525 -0.1699 -0.6024  0.2515
15703W        W30834  12.995   1.222   3.665 -0.0725 -0.0138  0.0907
15704W        W30835  17.302  17.516  14.403  0.3152  0.2244 -0.2460
15705W        W30836  16.392   4.886   1.132  0.1254 -0.1169  0.1013
15706W        W30837  12.664   3.751   1.189  0.1151 -0.0878  0.0082
15707W        W30838   8.318   7.746  11.356 -0.2402  0.0302  0.1195
15708W        W30839  17.279   8.446  14.702  0.0026 -0.0602 -0.0401
15709W        W30840   9.009   1.482   5.150  0.1829 -0.0096  0.2195
15710W        W30841  13.210   5.819   2.499  0.4125  0.2604 -0.2347
15711W        W30842   7.518  16.558  13.888  0.0416  0.2302 -0.0629
15712W        W30843  13.397  15.396  12.086  0.3748 -0.0922 -0.0539
15713W        W30844  12.581   7.472  11.400  0.2795 -0.2243  0.0599
15714W        W30845   4.693   5.897   2.964 -0.3303  0.0322  0.0251
15715W        W30846  10.441  17.184   4.633  0.1670  0.0017  0.2519
15716W        W30847  15.073  16.908  11.958  0.0914 -0.1157 -0.1572
15717W        W30848  14.584  15.315  13.056  0.2014  0.0176 -0.0685
15718W        W30849   4.735   4.808   0.881 -0.5053  0.0928 -0.0143
15719W        W30850  17.694  11.490   5.192 -0.1251 -0.0080 -0.4204
15720W        W30851  10.872   4.684   5.844  0.1720 -0.1229  0.0449
15721W        W30852  12.596  13.447   3.350  0.0923  0.2000  0.1953
15722W        W30853   2.048  13.073  16.681  0.0488 -0.4770 -0.1962
15723W        W30854   0.805  17.238   5.502  0.0864  0.4755  0.1875
15724W        W30855   8.532   1.337  16.396  0.0677  0.0251  0.2998
15725W        W30856  14.511  13.219  11.588 -0.0581 -0.0731  0.1000
15726W        W30857   5.645   7.193   2.091 -0.1599 -0.2804  0.3844
15727W        W30858  16.860   0.584   3.291  0.2456  0.0907  0.0197
15728W        W30859  13.828   5.775  16.594 -0.1184  0.0837 -0.1683
15729W        W30860  13.886   5.003   3.458 -0.3462  0.2100  0.1741
15730W        W30861  14.304  17.401  15.850 -0.0754 -0.0484 -0.0806
15731W        W30862  11.750   4.290  13.525  0.0890  0.0116  0.2849
15732W        W30863   6.162   1.896   4.950 -0.2283  0.3659 -0.2187
15733W        W30864   5.026  16.441  10.691 -0.1812  0.3153  0.0573
15734W        W30865   8.107  17.079  11.471  0.1061 -0.1392  0.1263
15735W        W30866   6.349   2.703   2.094  0.1004 -0.1669  0.1456
15736W        W30867   3.724   0.390  12.182  0.1042  0.1118 -0.4261
15737W        W30868  16.592   4.217  14.953 -0.2204  0.0411  0.0189
15738W        W30869   3.619  15.351   0.308  0.1067 -0.2290 -0.1298
15739W        W30870  12.109  11.501   4.681  0.1384 -0.1409  0.0315
15740W        W30871   3.263  11.230  14.559 -0.0160  0.0409  0.1051
15741W        W30872   3.132  11.139   4.019 -0.0101  0.0915 -0.0703
15742W        W30873  17.737   9.254  13.610  0.2088  0.1089 -0.0793
15743W        W30874   4.428   5.469  12.835 -0.0676 -0.1174 -0.2559
15744W        W30875   3.191   2.408  15.749  0.1917  0.0955 -0.1786
15745W        W30876  12.042   9.985  15.769  0.0817 -0.0691 -0.3237
15746W        W30877   4.776   9.286  11.735 -0.2762 -0.1264  0.2012
15747W        W30878  11.441   4.098   0.283  0.0665 -0.2148 -0.0519
15748W        W30879  12.059  15.237  15.532  0.2727 -0.2199 -0.0636
15749W        W30880  14.655   0.250  13.159 -0.1581 -0.0624  0.2105
15750W        W30881  16.265  11.152  13.312  0.2765 -0.0763 -0.0545
15751W        W30882   2.211  10.227   0.264 -0.2373  0.1485  0.3565
15752W        W30883  17.064   1.167  11.861 -0.1115  0.2185  0.0019
15753W        W30884   3.487  15.742  15.449  0.0074 -0.0193  0.2288
15754W        W30885   1.107  14.390  11.860 -0.2728  0.1503 -0.1502
15755W        W30886  16.264  10.330   1.882 -0.0951 -0.1599  0.0880
15756W        W30887   6.873   5.428  15.185  0.0670 -0.0528 -0.1215
15757W        W30888   2.881   8.319  16.088  0.3023  0.1874  0.0644
15758W        W30889   6.044   8.776  16.702 -0.1855 -0.3501 -0.0056
15759W        W30890   4.931   0.333  16.635  0.3326  0.1060  0.0862
15760W        W30891   1.653   7.583   2.944 -0.0485  0.0178 -0.1919
15761W        W30892  11.256   7.790   1.032  0.0987 -0.1054 -0.1044
15762W        W30893   2.928   4.159  12.967  0.1893 -0.1519  0.0772
15763W        W30894  16.877   8.976   2.794  0.0633 -0.1867  0.0271
15764W        W30895  15.693   6.901  13.546  0.0781  0.0340  0.1360
15765W        W30896   9.783  16.042  14.158 -0.3371  0.1588  0.3289
15766W        W30897   3.408  13.762  15.743  0.2160  0.0360  0.0172
15767W        W30898   1.291   5.380  15.623  0.0788  0.0572 -0.1371
15768W        W30899  10.391   0.349   1.480  0.3191  0.1531 -0.0230
15769W        W30900  14.859   9.074   5.154  0.1948 -0.2186 -0.1303
15770W        W30901   2.420   2.037  15.153 -0.1493  0.0915 -0.1670
15771W        W30902  14.566  13.907  12.559 -0.2997  0.2857 -0.2865
15772W        W30903   8.999   7.137  12.714 -0.2370  0.3728 -0.2510
15773W        W30904   3.245  11.319   5.620  0.3980  0.0259 -0.0948
15774W        W30905   5.665   8.972  14.126  0.0631 -0.1022  0.5627
15775W        W30906  10.004  10.939   4.859  0.0598  0.0140 -0.0724
15776W        W30907  17.323  15.333   0.305  0.2419 -0.1617  0.1584
15777W        W30908  13.646  14.159  10.291  0.2135  0.0755 -0.0898
15778W        W30909  17.672   3.741   3.393  0.2811 -0.0017  0.0297
15779W        W30910  10.719  16.584   4.266 -0.0419  0.2493  0.4931
15780W        W30911   7.917   1.257   1.291  0.1189 -0.1395 -0.1123
15781W        W30912   5.752   1.923   3.618  0.2520 -0.1130  0.0112
15782W        W30913   9.089  16.047   2.025  0.1020  0.2598 -0.0849
15783W        W30914  10.239  14.806  11.288 -0.2420 -0.0406 -0.2548
15784W        W30915   4.432   1.086  15.395 -0.2718 -0.0056  0.1425
15785W        W30916   6.435  11.092   4.334  0.0646  0.0575 -0.2137
15786W        W30917   8.651  15.478  16.366 -0.0129  0.3290 -0.4299
15787W        W30918   9.152  15.013  12.394 -0.1103  0.0331 -0.0429
15788W        W30919   1.866  11.896  16.043  0.3400 -0.0440  0.1794
15789W        W30920   3.181  11.555  14.927 -0.0400  0.0944  0.1459
15790W        W30921  13.066   6.846  11.343  0.1796 -0.1795 -0.1065
15791W        W30922   4.532  12.406  13.753  0.0691 -0.0295 -0.2534
15792W        W30923  10.082   9.486  14.498 -0.0412  0.1596  0.2905
15793W        W30924   0.502  17.428  12.327 -0.3577 -0.0478 -0.0555
15794W        W30925   8.674   3.821  16.090 -0.1084 -0.2786  0.0778
15795W        W30926  17.231  10.328  15.140  0.3259 -0.2169  0.0606
15796W        W30927   1.579   0.730  13.604  0.0810 -0.2165 -0.0162
15797W        W30928   7.425   8.376   2.430  0.1170  0.1735  0.0297
15798W        W30929  10.267   4.229  13.556 -0.2162 -0.0325 -0.0015
15799W        W30930   9.842   3.528   3.189 -0.0532 -0.0669 -0.0447
15800W        W30931  16.994   7.944   6.066 -0.1709 -0.1531  0.1479
15801W        W30932   5.010   9.207  11.150 -0.2366 -0.0819  0.0407
15802W        W30933  12.170  14.193  11.931 -0.0393 -0.1747  0.2582
15803W        W30934  13.647   9.113   5.658 -0.1834  0.2614  0.0103
15804W        W30935  11.370   2.143   0.597 -0.0043 -0.1548 -0.4034
15805W        W30936  11.903   8.243   1.633 -0.0867 -0.2544  0.3694
15806W        W30937   1.042  10.622   2.822  0.4226  0.0517 -0.1302
15807W        W30938  14.131   5.351  16.517 -0.2657  0.0025 -0.0126
15808W        W30939   2.245   7.961  16.742  0.1835 -0.1179 -0.1164
15809W        W30940  11.998  15.779  13.598 -0.0117  0.2583  0.0245
15810W        W30941  17.571   2.383   4.198 -0.2855 -0.2066  0.1250
15811W        W30942  13.326  13.985   4.905  0.1344  0.1389  0.1755
15812W        W30943   4.313  16.785  12.529 -0.0030  0.1732 -0.3435
15813W        W30944   9.285   2.013   1.079 -0.2184 -0.2608 -0.0782
15814W        W30945   3.452  11.896  16.481  0.4727  0.0916  0.0249
15815W        W30946   7.750   8.090   0.120  0.6299  0.0268  0.1118
15816W        W30947   4.234  13.280  12.923  0.0773  0.1412  0.0797
15817W        W30948   3.276  15.911  13.902  0.0326  0.2534  0.0437
15818W        W30949  12.131   3.706   2.867 -0.0808  0.0720 -0.1698
15819W        W30950   9.052   6.446  15.951  0.0103 -0.1986 -0.1259
15820W        W30951  13.998   4.916   1.415  0.1069  0.1519  0.1774
15821W        W30952   0.214   0.067  13.866 -0.0159  0.1074 -0.0540
15822W        W30953   1.405   5.370  16.555 -0.2218  0.0933 -0.1708
15823W        W30954   9.982   0.140  10.925 -0.2985  0.2355  0.2874
15824W        W30955  13.176   9.789  16.566  0.2773 -0.1364 -0.0637
15825W        W30956  10.617   9.832  14.593 -0.0158  0.1198  0.1537
15826W        W30957  11.955  16.240  14.673  0.0981  0.2721 -0.2676
15827W        W30958  15.589   0.883  12.451  0.2434  0.0374  0.2404
15828W        W30959  12.726   4.962   4.037  0.1567  0.3031 -0.1446
15829W        W30960   5.472   4.144  11.155  0.2050  0.2090  0.0615
15830W        W30961   6.117   7.740   0.175 -0.0539 -0.0015  0.1860
15831W        W30962  17.139  14.619   0.641  0.0892  0.0981 -0.2383
15832W        W30963   2.428  14.283  14.584  0.3663  0.0331 -0.0677
15833W        W30964  10.470  15.592   0.768  0.0147 -0.0506 -0.2245
15834W        W30965  17.778  14.961   3.049 -0.1048 -0.0713 -0.2522
15835W        W30966  10.658   3.470  10.688 -0.1591 -0.1339  0.1049
15836W        W30967   4.030  12.659   4.982 -0.2591  0.0196  0.2507
15837W        W30968  15.090  12.313   2.127 -0.0857 -0.0596 -0.1132
15838W        W30969   0.732   8.522  11.587 -0.2515  0.0984 -0.0665
15839W        W30970   0.798   3.177  15.286 -0.1072 -0.0041  0.0296
15840W        W30971   5.666   1.102   5.523  0.0139 -0.2232  0.0831
15841W        W30972  12.388  10.886  12.300 -0.0644  0.0841  0.0148
15842W        W30973  10.692  11.394  14.831 -0.0143  0.0578  0.3054
15843W        W30974  16.760   1.034  14.765 -0.2961  0.1902  0.2003
15844W        W30975   9.016   9.355  12.038  0.1744  0.1385  0.2290
15845W        W30976   8.060   8.462  12.606 -0.1249  0.3620  0.1928
15846W        W30977   5.154  10.079   0.038 -0.1107  0.2454  0.0812
15847W        W30978   3.228  11.093  13.217 -0.1966 -0.2181  0.0917
15848W        W30979  16.871   6.580  13.314  0.1525  0.1124  0.0385
15849W        W30980  11.216   2.799  13.986  0.1302  0.0389  0.2524
15850W        W30981   9.744   3.612  12.086  0.0938 -0.2053  0.0671
15851W        W30982  11.721  16.512  11.576  0.1385  0.1468  0.1099
15852W        W30983   7.832   5.023   1.365  0.0086  0.0767 -0.3056
15853W        W30984   5.141  13.580   4.061 -0.6187 -0.0054 -0.1809
15854W        W30985   4.272   5.377  16.621 -0.0345 -0.5364 -0.0244
15855W        W30986  15.293  17.285  11.624  0.0821 -0.0473  0.1848
15856W        W30987  17.734   0.768  11.435 -0.0985  0.0260 -0.1640
15857W        W30988  10.486   1.110  14.633 -0.1227  0.1472  0.3678
15858W        W30989   0.937  15.731   3.900 -0.1856  0.0839  0.2154
15859W        W30990  11.319   4.695   0.843 -0.1282  0.1575  0.1735
15860W        W30991  10.784  16.314  11.265 -0.1565  0.0394  0.0126
15861W        W30992   4.174   9.880  11.997 -0.2457  0.1382 -0.0278
15862W        W30993  17.213   1.981   3.508 -0.0540  0.0023  0.0123
15863W        W30994   8.628  12.816   1.638 -0.2022 -0.0439  0.1714
15864W        W30995   4.451   4.501   2.387 -0.0262  0.2136 -0.0959
15865W        W30996   1.964  12.836  12.866  0.0014  0.0738  0.0063
15866W        W30997   1.091   3.756   4.896 -0.1317  0.0247  0.3661
15867W        W30998   6.243  13.075  11.384  0.0520 -0.0029  0.1830
15868W        W30999   1.239   3.544  15.496  0.1158 -0.0756  0.0115
15869W        W31000  16.558   5.833   3.024 -0.1809 -0.4249  0.2801
15870W        W31001  16.380  14.792   3.852  0.1564  0.3183  0.4990
15871W        W31002   0.145   8.129  15.970 -0.0749 -0.4704 -0.0494
15872W        W31003   7.249  14.970  11.404  0.2254 -0.0397 -0.0734
15873W        W31004   7.730  17.321   3.234 -0.0234 -0.2717 -0.1603
15874W        W31005  12.030  16.013  12.402 -0.0691  0.0417 -0.2947
15875W        W31006  13.199   4.775  11.237 -0.0869  0.0916  0.0806
15876W        W31007  13.062  15.700   5.202 -0.3249  0.2251  0.2280
15877W        W31008   1.216   9.141  16.643 -0.0298 -0.0822 -0.3762
15878W        W31009  12.208   8.405   2.061  0.0236 -0.3416 -0.0258
15879W        W31010  15.295  17.439   4.806  0.2500  0.0902  0.0510
15880W        W31011   1.591   5.017   2.813 -0.0717 -0.2635 -0.0799
15881W        W31012   4.571  14.490   4.654  0.0349  0.3120 -0.1231
15882W        W31013  14.162  10.867   4.194  0.1759 -0.2372 -0.0824
15883W        W31014   7.393   2.945   1.567  0.1209  0.3309  0.2828
15884W        W31015  11.551  11.487  16.390  0.2899  0.1731 -0.1479
15885W        W31016   7.952  15.261  13.756  0.1216  0.1821  0.1296
15886W        W31017   8.330   9.637  13.696 -0.0157  0.3423  0.1092
15887W        W31018   2.723   4.411  14.118 -0.1038 -0.2838 -0.0159
15888W        W31019  12.294   7.120  11.889  0.0823  0.2698  0.0181
15889W        W31020  15.784   4.259   1.730  0.0285 -0.3369  0.1226
15890W        W31021  12.318   5.809  11.715 -0.1308  0.0170 -0.0379
15891W        W31022   5.878   9.201  14.813 -0.0931 -0.1883 -0.2182
15892W        W31023  12.763   6.548  14.343 -0.1160  0.0122  0.0477
15893W        W31024  10.304   0.745  14.082  0.0145  0.0614  0.3877
15894W        W31025  10.043  15.922   0.012 -0.1536 -0.0256 -0.0327
15895W        W31026  16.084   3.536  14.599 -0.1454  0.1886  0.5166
15896W        W31027  13.012  10.078   6.219 -0.1204 -0.2524 -0.2948
15897W        W31028  14.743  16.666  12.428  0.1241 -0.0983 -0.1053
15898W        W31029   4.996   8.422  14.740 -0.1270 -0.0557  0.0639
15899W        W31030   3.088  10.562  16.379 -0.2216 -0.0311 -0.1230
15900W        W31031  16.908  10.914   3.919  0.0346  0.0139  0.3758
15901W        W31032  11.103   2.670   1.402 -0.1279  0.1520  0.2535
15902W        W31033  12.170  15.646   1.199 -0.1799  0.1121 -0.0640
15903W        W31034   8.504   8.866   1.796  0.0444  0.0770 -0.1221
15904W        W31035  15.011  10.318  13.673 -0.2678  0.0882  0.3048
15905W        W31036   5.105  13.529   5.319  0.1031  0.2371 -0.1104
15906W        W31037  10.114   8.288   4.681 -0.3143  0.0943  0.0917
15907W        W31038   9.016   3.670   1.738  0.0053  0.0588 -0.2283
15908W        W31039  15.873  14.703   2.696 -0.0039 -0.4065  0.2012
15909W        W31040  11.232  16.464  12.152  0.1599 -0.1203 -0.1516
15910W        W31041   2.639  13.039  16.519 -0.1986  0.2125 -0.0627
15911W        W31042   9.789   0.817  10.931  0.1187  0.0629 -0.2840
15912W        W31043  13.933   2.753   4.111 -0.0747 -0.1275  0.0799
15913W        W31044  12.194   4.759   0.537  0.1103 -0.0077 -0.0423
15914W        W31045  10.119   2.115  15.329  0.1489 -0.2194 -0.0142
15915W        W31046  13.329   7.685  11.996 -0.0968 -0.0821 -0.1342
15916W        W31047  11.483   0.436  13.786  0.4586 -0.1612 -0.1887
15917W        W31048   1.768   0.154   4.766 -0.2678 -0.2225  0.2224
15918W        W31049  13.419   7.319  13.105 -0.0592 -0.1709  0.2142
15919W        W31050  14.208   1.377   4.138  0.1856  0.1416 -0.2207
15920W        W31051  10.501   5.870  16.472  0.2027  0.2714 -0.0462
15921W        W31052   8.309   6.356  14.835  0.1393  0.3652 -0.1249
15922W        W31053   1.261   1.637  16.650  0.1938  0.2090  0.0545
15923W        W31054  12.455   3.700   2.353  0.1670  0.0971  0.3481
15924W        W31055  14.322   2.832  14.947  0.1122 -0.0601  0.4471
15925W        W31056  16.037  16.039   0.406  0.1768  0.1202 -0.1061
15926W        W31057   1.628   8.750  13.161  0.3625  0.1718  0.1564
15927W        W31058  13.842   1.560  13.938 -0.1135  0.1451  0.0694
15928W        W31059  15.189   8.162  14.168 -0.0431 -0.2237  0.0138
15929W        W31060   7.807  14.796  16.253  0.0851 -0.2212 -0.2524
15930W        W31061   7.798   5.042   4.631 -0.0610 -0.0614 -0.0599
15931W        W31062  16.879  14.046   3.339 -0.0960 -0.1133 -0.1342
15932W        W31063  14.412   3.332   1.301  0.1886  0.1182  0.0438
15933W        W31064   2.342  17.544  12.284  0.2446  0.2440 -0.3126
15934W        W31065  13.071  16.147  13.929 -0.1318 -0.0631 -0.0434
15935W        W31066  13.877   2.398  16.213  0.0709 -0.0577  0.4537
15936W        W31067   7.656   7.895   5.824  0.0613  0.3277 -0.0405
15937W        W31068  11.531  12.929   4.406  0.0818  0.2419 -0.0230
15938W        W31069   5.847  13.759  14.776 -0.0228 -0.1157  0.1577
15939W        W31070   4.462   3.781  16.685 -0.0179  0.0190 -0.3064
15940W        W31071  11.115  13.768   1.854 -0.2630  0.2147  0.1169
15941W        W31072  11.279   8.203  12.189 -0.1384  0.0179  0.1170
15942W        W31073  12.523  10.182  14.823 -0.1395 -0.0502 -0.3703
15943W        W31074  17.050   5.537  14.894 -0.0208  0.2083  0.1146
15944W        W31075  15.855   0.593   0.807 -0.0768 -0.0797  0.0465
15945W        W31076   7.582  12.925  16.473 -0.0751 -0.1727  0.0379
15946W        W31077   5.973   6.723  11.095  0.0765 -0.1827 -0.2027
15947W        W31078   3.780   9.243   5.565 -0.1735  0.0542  0.0605
15948W        W31079   0.290  12.133  15.295 -0.0320 -0.3589 -0.0056
15949W        W31080   5.180  11.189   0.504 -0.2917 -0.2033 -0.0834
15950W        W31081  13.066   3.421   1.402 -0.2236 -0.2627  0.0145
15951W        W31082   4.153  15.713   4.138 -0.1898  0.2741 -0.2606
15952W        W31083   1.942   3.436   1.492 -0.1751 -0.0289 -0.1561
15953W        W31084   5.639   4.801  15.153 -0.2042  0.0507  0.1314
15954W        W31085  16.280  12.231  14.143 -0.2197  0.0717 -0.2079
15955W        W31086  15.911  17.186  13.853 -0.0339 -0.3805  0.1170
15956W        W31087  11.603   5.148  15.926  0.1246  0.1645 -0.3271
15957W        W31088  10.815  12.005   1.932 -0.2972  0.1591  0.1879
15958W        W31089   7.112   0.028  11.654 -0.5000 -0.2931 -0.5117
15959W        W31090  12.955  13.259   4.308 -0.3093 -0.3991  0.0612
15960W        W31091   6.104  12.697   5.212  0.0050  0.0276 -0.0310
15961W        W31092  16.647   6.508  15.190 -0.2414  0.2901  0.0402
15962W        W31093   9.453   4.147  11.914  0.0810  0.2775  0.3766
15963W        W31094   2.103   9.049   4.806  0.1172 -0.2936  0.2484
15964W        W31095  12.646   9.640  10.994  0.2052  0.2875 -0.1231
15965W        W31096  14.628   9.586   2.816  0.1483 -0.0378  0.0381
15966W        W31097   8.501   9.218  11.982 -0.0650  0.3809  0.0768
15967W        W31098  13.238  13.763  12.905  0.0480 -0.1738 -0.1570
15968W        W31099  15.416  10.375  16.474 -0.2218  0.0592  0.2997
15969W        W31100   0.713  15.448  16.059  0.1847  0.2430  0.1540
15970W        W31101  16.517   3.896  13.945  0.2413  0.0328 -0.1663
15971W        W31102   2.433   0.934   2.738  0.1091 -0.0125  0.0147
15972W        W31103  10.336  11.756   4.051 -0.0397  0.1965  0.1567
15973W        W31104  14.956  17.065   4.401  0.0920 -0.1040 -0.0007
15974W        W31105  11.933  14.854  13.335 -0.2024  0.0349 -0.3220
15975W        W31106   0.017   3.163   4.691  0.0625 -0.0540  0.0562
15976W        W31107  11.931   5.093  15.489  0.1430 -0.1731 -0.0849
15977W        W31108  16.147  12.824   2.970  0.0853  0.1239 -0.0978
15978W        W31109  11.643   1.005  14.715 -0.0157  0.1636  0.0196
15979W        W31110   7.427  12.039   3.470 -0.3109  0.0001  0.0918
15980W        W31111   2.412   0.595   3.507 -0.2784  0.4961  0.1630
15981W        W31112   4.822   5.866  12.294 -0.1074 -0.0442 -0.1397
15982W        W31113   9.255  15.598   2.693  0.1109  0.0420 -0.1277
15983W        W31114   2.831  15.813  14.813 -0.0195 -0.1009 -0.0554
15984W        W31115  15.742   1.932   3.579  0.0345  0.0746 -0.3231
15985W        W31116  10.410  10.168  15.167  0.2029  0.2283  0.0136
15986W        W31117  16.151  17.180   0.864  0.0680 -0.3359  0.1270
15987W        W31118   8.684   7.665   3.063 -0.1059  0.3277  0.0198
15988W        W31119  14.609   4.699   0.569  0.2311  0.0801  0.0014
15989W        W31120   5.478  17.237   2.194  0.1897 -0.0691 -0.1858
15990W        W31121  12.292  10.626   4.197 -0.2011 -0.1905 -0.2404
15991W        W31122  12.267  14.517  13.964 -0.0635 -0.1891  0.3853
15992W        W31123  10.377   5.801  12.472 -0.1429 -0.1343 -0.1028
15993W        W31124   4.191  16.376  15.190 -0.0113 -0.1168  0.3455
15994W        W31125   1.423   6.255  13.073 -0.0899  0.1873 -0.0746
15995W        W31126  11.798  11.464  13.842  0.2906 -0.0738 -0.2692
15996W        W31127   4.788  13.304  14.262 -0.1205  0.2526 -0.0488
15997W        W31128  11.691  13.824  15.195 -0.0326 -0.0309  0.0202
15998W        W31129  15.907  11.244  12.348  0.0295  0.3840  0.1160
15999W        W31130  11.043  13.163   2.566 -0.0851  0.1091 -0.0797
16000W        W31131  16.603   1.395   2.841 -0.4499 -0.0259  0.0852
16001W        W31132  14.663   3.481  10.900 -0.0256 -0.0707 -0.3644
16002W        W31133  16.528   2.385   2.126  0.2180 -0.2077  0.0558
16003W        W31134   0.805   0.907  14.182  0.0907 -0.0845  0.2343
16004W        W31135   5.592  11.792  14.240  0.2548  0.1484  0.0277
16005W        W31136   0.857   0.995   1.111  0.0800  0.1255 -0.0795
16006W        W31137   1.122  12.054  11.997  0.0164 -0.0127  0.1443
16007W        W31138   4.614  17.175   4.407 -0.0847 -0.0881  0.2233
16008W        W31139   9.227  17.165   4.161  0.1383 -0.0463  0.0349
16009W        W31140   8.149   7.247  13.766 -0.1273 -0.0723  0.1171
16010W        W31141   1.262   0.249   4.845  0.1445 -0.0564 -0.1654
16011W        W31142  15.738   6.639   5.577 -0.0776 -0.0769  0.1814
16012W        W31143   4.077   7.914  13.530  0.2084  0.0708  0.1708
16013W        W31144   4.114   4.195   4.716 -0.3293 -0.4000 -0.0718
16014W        W31145  10.728   9.623   1.180 -0.0676  0.2574  0.0435
16015W        W31146  12.479   2.095  13.040  0.1213 -0.0324 -0.0089
16016W        W31147   0.340   0.996   2.085  0.1726  0.0994  0.1773
16017W        W31148  13.942  10.020  15.045 -0.1008  0.1838 -0.0308
16018W        W31149  10.512  14.195  11.842  0.0229 -0.0694  0.2667
16019W        W31150   1.996   4.529  10.913 -0.2761 -0.0586 -0.1704
16020W        W31151  11.973  10.233   0.344  0.0795  0.1258  0.1779
16021W        W31152  16.803   1.082   1.300  0.2655  0.0177 -0.2251
16022W        W31153  10.418  12.645   0.436  0.0422  0.1038  0.2005
16023W        W31154  14.765  14.856  12.975  0.1093  0.0810 -0.0334
16024W        W31155  11.319   9.009   5.913 -0.3684  0.3046 -0.1843
16025W        W31156  12.113  17.859   1.963  0.1520 -0.2525 -0.0908
16026W        W31157   4.802  17.166   2.882 -0.1271  0.2786  0.2411
16027W        W31158  14.807  12.599   5.433  0.1559  0.0325  0.1805
16028W        W31159  11.178  12.573   4.114 -0.0953 -0.2451  0.3411
16029W        W31160   6.037   3.165   1.446  0.2048  0.0154 -0.0815
16030W        W31161   9.340  14.495   0.028  0.1323  0.0114 -0.4279
16031W        W31162  11.957   3.868  11.786  0.0173 -0.2007 -0.1501
16032W        W31163  14.996  10.327   4.311  0.1412 -0.0202 -0.0698
16033W        W31164  16.544  14.120  12.943  0.1231 -0.1220 -0.0195
16034W        W31165  16.455   6.962   0.094 -0.1497 -0.0447 -0.1984
16035W        W31166  10.615  11.744  12.343 -0.0064  0.0935 -0.0480
16036W        W31167   0.968   8.698   1.893 -0.0829  0.2066 -0.3075
16037W        W31168   8.353  11.095   5.492  0.2828 -0.0459  0.1219
16038W        W31169   8.215  13.819   4.411 -0.1462 -0.0141 -0.3494
16039W        W31170  11.165   5.087   5.237 -0.2451 -0.2607  0.2115
16040W        W31171   4.016  11.133  13.285 -0.0109 -0.1143 -0.1228
16041W        W31172  17.515  11.489  12.872  0.1469  0.0229 -0.0410
16042W        W31173  12.720   2.385  13.550  0.1427  0.0751 -0.0326
16043W        W31174  14.390   2.746   0.960  0.0061  0.1114 -0.2372
16044W        W31175  11.771  16.074  15.152  0.0313 -0.0359  0.1169
16045W        W31176   0.423  17.338  14.694 -0.1980  0.0419  0.2027
16046W        W31177  16.059  14.444  16.091 -0.0085  0.2307  0.1008
16047W        W31178   9.694  15.921  13.010 -0.0562  0.2940  0.0635
16048W        W31179  15.942   6.918   3.268 -0.2005 -0.2271 -0.1790
16049W        W31180  10.573   9.454   3.537  0.0012  0.2452 -0.3407
16050W        W31181   2.960   1.570   0.778  0.2344 -0.1425 -0.0263
16051W        W31182  16.950   2.716  13.056  0.0581 -0.1422  0.0099
16052W        W31183  16.727   8.669   2.373  0.0038 -0.1189 -0.0717
16053W        W31184  13.858   7.517  15.456 -0.0029  0.0533 -0.0808
16054W        W31185  10.616  10.376  16.049 -0.0485  0.0775  0.2397
16055W        W31186  11.354  15.686   4.578  0.0366 -0.1554  0.1418
16056W        W31187  14.753   8.171  10.243  0.1815 -0.3454  0.1133
16057W        W31188  10.007  12.789   0.037  0.0349 -0.3575 -0.2300
16058W        W31189   4.488  12.114  12.523 -0.0693 -0.4850  0.3732
16059W        W31190   6.064  14.070   2.536 -0.1389 -0.1099 -0.0101
16060W        W31191  15.241  17.829  10.862  0.0260 -0.2450  0.2113
16061W        W31192  17.870  11.827   1.602 -0.0661 -0.1593  0.1610
16062W        W31193  15.499  14.321  15.711 -0.0505 -0.1037  0.3770
16063W        W31194   3.384   8.813   4.565  0.1088  0.1270 -0.1857
16064W        W31195  12.505   4.123   3.599 -0.0086 -0.3795 -0.1692
16065W        W31196   2.626  11.449  14.093  0.0125  0.0696 -0.2651
16066W        W31197   5.352  11.197   3.558 -0.2661 -0.1496  0.0638
16067W        W31198  13.885   5.996  13.280  0.3550  0.3283  0.1423
16068W        W31199   5.305   2.377  13.841 -0.2618  0.1163 -0.1291
16069W        W31200  12.282   4.948   2.630  0.1142 -0.0478 -0.0706
16070W        W31201   9.476   8.131   0.647 -0.0891 -0.1723 -0.2302
16071W        W31202   4.328   1.789   2.860 -0.1399 -0.1241  0.1204
16072W        W31203   1.279   8.253  15.298  0.1883 -0.5081  0.2318
16073W        W31204   2.546  16.355  13.379  0.2721 -0.2794 -0.0364
16074W        W31205   1.070   3.316   3.883  0.0330 -0.0715  0.2641
16075W        W31206  14.330   7.948  14.017 -0.0656 -0.1969  0.0632
16076W        W31207   1.270   8.729  15.409  0.1571 -0.1689  0.1953
16077W        W31208   4.418  15.481   4.889  0.2105 -0.2506 -0.0980
16078W        W31209  15.144  10.356   3.397  0.2368 -0.0020  0.0319
16079W        W31210   3.905   9.856  15.055 -0.0638  0.2544  0.0215
16080W        W31211  12.466   2.510   0.194 -0.0289  0.2486  0.2535
16081W        W31212   5.078   7.215  12.106  0.1199  0.1357 -0.0590
16082W        W31213   5.663  16.021   6.048  0.2254  0.0362 -0.1324
16083W        W31214  12.126   4.272  14.403  0.0713  0.2029 -0.0039
16084W        W31215   1.537   9.854   1.898 -0.1308  0.0227 -0.1219
16085W        W31216  11.814  14.439   1.371 -0.0604  0.0957 -0.0885
16086W        W31217   8.416  12.546  15.968 -0.2118  0.1139 -0.1157
16087W        W31218   4.341   7.625   0.800  0.0191  0.0367  0.2914
16088W        W31219  13.102  14.697  13.649  0.3528 -0.0132  0.3478
16089W        W31220  12.369   5.685   4.521 -0.1502 -0.0271 -0.0395
16090W        W31221  12.770   3.470  13.321 -0.0591  0.0184 -0.1405
16091W        W31222  13.600   5.421  12.068  0.2151  0.0175  0.1802
16092W        W31223   5.553   8.367  14.892  0.0752  0.2530 -0.1480
16093W        W31224   7.066  13.737   3.467  0.0278 -0.1577 -0.0999
16094W        W31225  12.447   6.015   4.177  0.0238 -0.0613  0.0044
16095W        W31226   6.710   1.951  13.142 -0.2054 -0.0861 -0.0608
16096W        W31227  11.152  16.617   1.465  0.0920 -0.4613  0.0233
16097W        W31228   6.187   2.659   0.621 -0.0300  0.1947 -0.1138
16098W        W31229  13.050  17.393  15.829  0.2387  0.0135  0.4480
16099W        W31230  10.739  14.330  16.483  0.0105  0.1749  0.1124
16100W        W31231  10.374   0.254   3.257  0.1188 -0.1283  0.0241
16101W        W31232   6.366  15.771  15.572 -0.1596 -0.0049 -0.1921
16102W        W31233  15.031   0.667   1.437 -0.0565  0.0007  0.1822
16103W        W31234   2.764  11.122   4.733 -0.1372 -0.4287 -0.3225
16104W        W31235  11.442   0.662  15.064  0.0875  0.1734  0.0568
16105W        W31236  14.860   2.894   0.597 -0.1682 -0.1360 -0.0756
16106W        W31237   6.486  11.607  15.145 -0.0024 -0.1670  0.0782
16107W        W31238   1.777  16.870  16.059 -0.0667  0.0055 -0.2752
16108W        W31239  12.040   7.691   3.178  0.2846 -0.1380 -0.0155
16109W        W31240   1.362  14.710   2.065 -0.0275 -0.0502 -0.0699
16110W        W31241   0.983  14.813   2.420  0.0612  0.1602 -0.2335
16111W        W31242   1.031   0.823   0.298  0.0617  0.0321 -0.3003
16112W        W31243   5.144  15.313   1.697 -0.1569  0.1293  0.3930
16113W        W31244  11.957   9.861   1.360  0.0306 -0.0819 -0.2010
16114W        W31245   3.994   0.851   3.300  0.3825 -0.0899  0.2041
16115W        W31246   9.861  12.380   6.621  0.1251  0.3676 -0.1507
16116W        W31247  12.499  17.335  12.761 -0.0424 -0.2125  0.1387
16117W        W31248  12.264  12.368  11.563  0.1846 -0.2523  0.1580
16118W        W31249  16.863  17.021  11.191 -0.0509 -0.0010 -0.3978
16119W        W31250   9.686   1.828   0.492  0.0306 -0.1059 -0.0441
16120W        W31251  12.291   5.731   1.264  0.0851 -0.3873  0.0040
16121W        W31252   8.291  10.917  13.326 -0.0709 -0.0390  0.2827
16122W        W31253   9.242  15.599   1.791 -0.0427 -0.0494 -0.0206
16123W        W31254  10.800  10.554   5.106  0.1236 -0.1394  0.6087
16124W        W31255   4.417   0.570   4.557  0.4141  0.0041  0.0103
16125W        W31256   4.804   1.638   0.450  0.0822 -0.0918  0.3005
16126W        W31257   8.361   4.687  16.467  0.1148  0.0861 -0.2249
16127W        W31258   9.290  16.069  14.332  0.0735  0.1135  0.2382
16128W        W31259   0.529  12.499   3.971 -0.1230 -0.1098 -0.4132
16129W        W31260  17.557  11.948  14.643  0.1194 -0.0319  0.2103
16130W        W31261  13.145   3.257   4.167  0.2947 -0.0009  0.3889
16131W        W31262  14.309  14.110  13.290  0.1933 -0.0234 -0.2097
16132W        W31263  15.307   5.309   1.882  0.0058  0.0309  0.1202
16133W        W31264  13.937   3.689  11.536 -0.1160  0.1210 -0.3302
16134W        W31265  13.813   3.415   5.358 -0.2251  0.0417 -0.0268
16135W        W31266  17.804   7.113   4.823 -0.0311 -0.1787 -0.0318
16136W        W31267   7.076   0.564  13.819 -0.2647 -0.3103 -0.0750
16137W        W31268  12.209   0.341   4.093 -0.0777 -0.3125  0.1702
16138W        W31269  12.038   4.932  11.667  0.0327  0.2756 -0.0660
16139W        W31270   4.013   9.164  11.414 -0.0369  0.0139 -0.1569
16140W        W31271  17.110   8.974   0.448 -0.1353 -0.2677  0.0612
16141W        W31272   6.712  14.648  11.890  0.0978 -0.0623  0.2034
16142W        W31273  12.853  12.556   2.114 -0.1134 -0.1763 -0.2579
16143W        W31274  17.223   3.976   4.297 -0.1296  0.1462  0.1821
16144W        W31275   7.680   3.900   2.274 -0.2374  0.1516  0.2105
16145W        W31276  10.415  16.422   1.280 -0.0333  0.2293  0.1622
16146W        W31277   1.142   7.071   3.309 -0.0902  0.2927  0.4252
16147W        W31278  15.183   8.424  15.496 -0.0565 -0.1196 -0.0248
16148W        W31279  17.049   3.774   2.129 -0.0016 -0.0191 -0.0430
16149W        W31280   7.002   9.826   4.471  0.1232  0.0593  0.0479
16150W        W31281  16.972  14.168   4.280  0.0033 -0.1236 -0.0546
16151W        W31282   1.074   8.541  14.976  0.0818 -0.0180 -0.1179
16152W        W31283   9.760   0.303   1.253 -0.1075 -0.1304  0.3070
16153W        W31284   7.573   9.763   5.298  0.0120 -0.0655 -0.3565
16154W        W31285  11.194  11.101   5.094  0.0307  0.2164 -0.0801
16155W        W31286   5.311   1.988   3.869  0.1867  0.0561  0.1125
16156W        W31287  13.220  17.008   1.554  0.1179  0.1277  0.0818
16157W        W31288   5.578   2.765  14.832  0.4222 -0.0831 -0.1753
16158W        W31289   8.163   9.528   0.186  0.2030  0.2460 -0.0063
16159W        W31290  13.916   0.925  12.826 -0.0960 -0.2014 -0.0937
16160W        W31291  15.348  17.311   4.068  0.1383  0.0089 -0.3149
16161W        W31292  15.029   7.142  11.912 -0.1773 -0.1822 -0.1696
16162W        W31293  14.701   4.841   1.693  0.0950 -0.0253 -0.1418
16163W        W31294   5.695   8.562  12.380 -0.0587  0.0768  0.3092
16164W        W31295  14.232   5.791   2.520  0.1571 -0.3868 -0.1240
16165W        W31296   5.237   0.579   4.947 -0.0536  0.0833 -0.1180
16166W        W31297   2.456  14.570   1.681  0.0515 -0.0896  0.0473
16167W        W31298  12.439  17.819   4.025 -0.1865  0.0465 -0.2548
16168W        W31299   5.096  14.396   4.850 -0.0883 -0.1424 -0.3028
16169W        W31300   9.293   3.851   5.171  0.0347  0.1717  0.1226
16170W        W31301  16.568   0.951  11.146  0.0421 -0.1895 -0.0508
16171W        W31302   7.553  14.154   5.041 -0.0363 -0.1383 -0.0315
16172W        W31303  16.875   9.883  16.109 -0.2631  0.1695 -0.2239
16173W        W31304   0.407   5.071   1.288 -0.0336  0.1183  0.1983
16174W        W31305  15.040  17.409  15.219 -0.0090  0.2538 -0.1649
16175W        W31306   4.685  16.154  15.854  0.1216  0.2011  0.2489
16176W        W31307   3.343  10.290   5.679  0.1874  0.0643 -0.0424
16177W        W31308  12.053  10.608  13.186  0.1464  0.0192 -0.0516
16178W        W31309  10.664   6.675  14.520  0.0211  0.0383 -0.0195
16179W        W31310  17.575   5.495  15.301 -0.1447 -0.0732 -0.1509
16180W        W31311   6.246  17.793   2.440  0.2384 -0.0457  0.1153
16181W        W31312   0.694   5.957   2.197 -0.0124 -0.0612 -0.0649
16182W        W31313   8.264   9.996   0.129  0.3637  0.2149  0.1780
16183W        W31314   3.773  16.434  15.874 -0.1000  0.0582  0.1691
16184W        W31315  15.982  16.145  16.659  0.2028 -0.0126 -0.1498
16185W        W31316   2.956   5.980  11.889 -0.1410  0.2789  0.1615
16186W        W31317   6.645   1.206  11.527 -0.0155  0.1842 -0.0237
16187W        W31318  17.377   6.359   1.844  0.0011 -0.1221  0.0446
16188W        W31319   9.510   8.681   2.396 -0.0277  0.1292  0.1999
16189W        W31320  11.609   9.999   3.560  0.0255  0.1433 -0.1402
16190W        W31321   8.909   2.372   1.331  0.1389  0.0021  0.1410
16191W        W31322  10.528  12.015   1.066  0.0392  0.0166  0.4106
16192W        W31323  14.861   6.581   4.435  0.1519  0.2946  0.1567
16193W        W31324  15.811   6.310  12.394 -0.3972 -0.1518  0.0196
16194W        W31325   8.038   7.925  13.168  0.1050  0.2575 -0.5936
16195W        W31326   0.591  16.604   4.677  0.2833 -0.5781  0.0751
16196W        W31327  17.090   2.709  15.755 -0.0719  0.0187  0.0371
16197W        W31328   6.712  16.556  14.044 -0.0797 -0.0653  0.2055
16198W        W31329   9.682  13.370   4.462  0.1097  0.0295  0.0765
16199W        W31330   2.433  15.323   4.096 -0.0971  0.0169  0.2406
16200W        W31331   8.754  16.588  11.914 -0.0581  0.3587 -0.1571
16201W        W31332  17.183   0.696  11.578  0.0154  0.0363 -0.1999
16202W        W31333   8.420   8.456   3.251 -0.0041  0.2472 -0.1518
16203W        W31334   1.166  14.077  11.499  0.0339 -0.1183 -0.0936
16204W        W31335   1.773   1.938  14.129  0.1003 -0.0154 -0.1168
16205W        W31336   7.318   3.040   3.334 -0.1242  0.1702  0.0022
16206W        W31337   1.418  12.488   2.252  0.3446  0.1207 -0.2476
16207W        W31338   4.049   4.299  12.981 -0.0182  0.0570  0.2154
16208W        W31339   4.012   6.163  16.654  0.0353 -0.2716  0.2072
16209W        W31340  12.949   0.054   4.205  0.1703  0.2393 -0.0647
16210W        W31341   6.216  16.471   4.149  0.0605  0.4067  0.2643
16211W        W31342  12.435  15.914  12.777  0.0458  0.0534  0.0850
16212W        W31343   8.998  17.284   2.418  0.0818  0.1606 -0.2886
16213W        W31344   1.875  16.542   6.029 -0.1203 -0.0104 -0.1435
16214W        W31345   0.695   3.281   5.899 -0.0470 -0.0481 -0.0101
16215W        W31346   0.102   1.194   4.328 -0.3682  0.2145  0.0947
16216W        W31347   7.932   5.145  14.660  0.0191 -0.0467 -0.2128
16217W        W31348  15.452   0.976   0.696 -0.0663  0.0669  0.0079
16218W        W31349   4.665   0.418   2.905  0.2935 -0.2351 -0.4513
16219W        W31350  13.499   1.727   6.469  0.2892  0.0894  0.3152
16220W        W31351   3.534   0.518   0.008 -0.0602 -0.2626 -0.0180
16221W        W31352   5.835   8.806   2.288  0.0964 -0.1061  0.0043
16222W        W31353  15.144   1.971  16.512  0.2951 -0.1892  0.1125
16223W        W31354  16.178  16.421  13.071 -0.2179  0.2203  0.1337
16224W        W31355   6.665   1.266  13.696 -0.1141 -0.1866  0.3044
16225W        W31356   0.850  17.700   5.708  0.1916  0.1439 -0.2386
16226W        W31357   4.174  16.709   0.537 -0.2305  0.2304 -0.1679
16227W        W31358  12.730   3.578  12.860 -0.0085  0.2217 -0.2617
16228W        W31359  17.021  10.582  12.028  0.4146 -0.0462 -0.0071
16229W        W31360  13.741  16.714  12.448 -0.3098 -0.2239  0.2653
16230W        W31361  13.830   9.211   4.653 -0.1067  0.0409 -0.4990
16231W        W31362   4.804   3.313  11.738  0.3016  0.1580 -0.0391
16232W        W31363  15.594  13.925   5.822  0.0507 -0.1642  0.2947
16233W        W31364   7.272  11.365  11.396 -0.5148 -0.2177 -0.0034
16234W        W31365   1.523   4.612   0.357  0.1406 -0.0669  0.2133
16235W        W31366   9.445  13.984   5.772 -0.0882  0.1228  0.1098
16236W        W31367   2.230  11.560  16.140 -0.2742  0.2057  0.2387
16237W        W31368  15.163   6.616   4.860 -0.1073 -0.0976 -0.3061
16238W        W31369   0.880  15.037   0.161  0.3396  0.2013 -0.1479
16239W        W31370  13.908   5.340   5.260  0.0437 -0.0059  0.0464
16240W        W31371   3.441  17.334   3.648  0.1595  0.0714  0.0855
16241W        W31372   7.496   7.133   4.275 -0.0734  0.0870 -0.1630
16242W        W31373   3.993  12.380  12.116 -0.0787  0.3757  0.0650
16243W        W31374   9.132  13.278   0.067  0.0460  0.1208 -0.2330
16244W        W31375  15.156   1.971  12.776  0.2935  0.2864 -0.2028
16245W        W31376  13.151   3.631  15.354  0.1719 -0.0905 -0.2327
16246W        W31377  17.776   7.401  16.596  0.0660  0.0161  0.0585
16247W        W31378  16.259  15.832   4.320  0.1494 -0.4026  0.2211
16248W        W31379  14.379   0.164   5.572 -0.1444  0.0380 -0.0424
16249W        W31380  11.533   1.918  15.583  0.1655  0.0092 -0.0978
16250W        W31381   2.913  15.998  13.494 -0.1148 -0.1070 -0.2277
16251W        W31382  14.700  12.804  13.374  0.0812  0.2326  0.1947
16252W        W31383   3.399   2.751   1.501 -0.0575 -0.0722  0.0016
16253W        W31384   1.426   2.337   4.665 -0.2226  0.0749 -0.3393
16254W        W31385   8.337   2.812  14.759  0.0251 -0.0115  0.0566
16255W        W31386  10.619  17.278  14.225  0.0701  0.3305 -0.0097
16256W        W31387   0.218  11.356  15.038  0.2183 -0.0475 -0.1687
16257W        W31388   9.543   3.665  11.593 -0.3031  0.0673  0.1931
16258W        W31389   5.410   4.942  12.205 -0.1228  0.2670 -0.0166
16259W        W31390  15.564  13.585  15.003  0.3468 -0.1250  0.0194
16260W        W31391   8.939  14.381  14.861 -0.0584  0.2964  0.0703
16261W        W31392  11.528   6.593  12.767 -0.0550 -0.0534 -0.2198
16262W        W31393   1.662  15.249   3.651  0.1962  0.3020 -0.0271
16263W        W31394   8.346   7.331  14.590 -0.0268  0.2281  0.0977
16264W        W31395  11.558   2.062  14.661  0.1006 -0.1046  0.2157
16265W        W31396  16.051  11.106   1.503  0.0355  0.0563  0.0054
16266W        W31397  16.609  16.922  14.843  0.0040  0.0784  0.0280
16267W        W31398  16.135  17.529  10.954 -0.3314  0.0968 -0.0332
16268W        W31399   5.024  16.228   4.759  0.2172  0.3258 -0.1418
16269W        W31400   5.202   0.192   4.317 -0.0155 -0.0023 -0.1241
16270W        W31401   8.070  10.775   5.789 -0.1815 -0.2832 -0.0140
16271W        W31402   7.212   4.377   1.441  0.2012 -0.0483  0.0661
16272W        W31403   6.128  16.999   0.453  0.2562  0.1901  0.0351
16273W        W31404  13.503  17.745   0.748 -0.2053  0.0672  0.2395
16274W        W31405   6.995  17.825   3.527  0.1703  0.0233 -0.3064
16275W        W31406  10.085   0.584   3.583 -0.0514 -0.1330  0.1629
16276W        W31407   7.617  11.937   0.292 -0.1077 -0.1923 -0.1781
16277W        W31408   6.271   3.577   3.367  0.1141 -0.1054  0.0165
16278W        W31409   6.929  15.469   3.848 -0.0030  0.1378  0.1528
16279W        W31410  15.874   0.300  11.697 -0.0406 -0.4576  0.3103
16280W        W31411  14.992   3.741   3.283  0.5559 -0.1075 -0.1190
16281W        W31412   5.023   0.275   3.812  0.0098  0.0625 -0.1805
16282W        W31413   6.874   5.622  12.405 -0.0319 -0.1091  0.0769
16283W        W31414   2.462   4.536  11.445  0.0251 -0.2528  0.1586
16284W        W31415   9.567  11.431  12.859  0.0975 -0.0842 -0.2021
16285W        W31416   7.873   1.783   3.115 -0.0232  0.1602 -0.2240
16286W        W31417   1.152  11.050   3.782  0.0664 -0.1472  0.0427
16287W        W31418  12.144  16.097   4.717  0.1908  0.2895 -0.3580
16288W        W31419  16.899  14.242  15.204  0.1382  0.0671  0.1424
16289W        W31420  16.425   1.143   4.738  0.3949  0.0797  0.0619
16290W        W31421  17.352   8.468  13.232 -0.0630 -0.0792 -0.3209
16291W        W31422   4.687   7.323   2.668 -0.0613  0.2678 -0.0481
16292W        W31423   9.515  12.138  13.396 -0.4057 -0.0181 -0.4211
16293W        W31424  16.664  12.299  11.131 -0.1419 -0.0076 -0.2709
16294W        W31425  11.190  16.753   4.703  0.0832 -0.3363 -0.1467
16295W        W31426  11.544  16.772  12.832 -0.0618  0.2513  0.2427
16296W        W31427  11.199   3.906   2.829 -0.1952  0.2485 -0.0014
16297W        W31428  12.792   4.577   2.065  0.0928  0.0795 -0.0419
16298W        W31429  17.183   0.991   4.603  0.2190  0.0762 -0.0250
16299W        W31430  11.662   3.470  12.263  0.0636 -0.0847  0.1310
16300W        W31431   1.845   9.684  12.592 -0.2463  0.1088  0.3394
16301W        W31432  10.387   5.258   3.980 -0.1115  0.1266  0.0677
16302W        W31433  13.332   9.351   1.677  0.1192 -0.0296  0.0112
16303W        W31434   3.964   6.924   4.701  0.0814  0.0910  0.0590
16304W        W31435   9.739  12.985  11.392  0.1021  0.0359  0.0261
16305W        W31436  16.882   9.184  13.073 -0.2017 -0.0363  0.0744
16306W        W31437   5.218   8.633   5.567 -0.2032  0.0575 -0.2081
16307W        W31438   3.289  14.280  11.902 -0.1324 -0.0470  0.1695
16308W        W31439   3.961   0.098  10.930 -0.3004  0.1819  0.0885
16309W        W31440   7.833   2.653  16.529  0.0474 -0.3784 -0.1222
16310W        W31441  10.067  16.385  12.191  0.1736 -0.1613  0.0009
16311W        W31442   1.122  10.310  13.711  0.2916  0.0830 -0.0212
16312W        W31443   1.148  12.840  16.666 -0.0269  0.1426 -0.1049
16313W        W31444   7.088  16.816  14.107  0.0343 -0.0607  0.1645
16314W        W31445   9.173  16.768  12.633 -0.1663  0.2431 -0.2167
16315W        W31446   4.717   5.703  13.949 -0.0309 -0.1991  0.1554
16316W        W31447  13.199   8.901   0.529 -0.2731 -0.1305 -0.2162
16317W        W31448   4.640  14.185   5.189 -0.2650  0.1004  0.2512
16318W        W31449   3.785  16.574   4.193  0.2597  0.3177  0.1003
16319W        W31450  13.517   0.914  12.497 -0.0958 -0.1775 -0.0854
16320W        W31451  15.836   7.408   2.997  0.0582  0.4548 -0.0469
16321W        W31452   7.453  16.640  11.958  0.1356  0.1197 -0.0613
16322W        W31453  15.470  11.260  13.074 -0.1392  0.0954 -0.0088
16323W        W31454  15.236   2.039   2.396 -0.3199  0.1595  0.0224
16324W        W31455  16.264   3.533  15.684 -0.3743 -0.3078  0.2809
16325W        W31456  16.123   3.779  14.199 -0.0783  0.0207  0.0416
16326W        W31457  13.658   7.000   4.808 -0.0826  0.1935  0.0771
16327W        W31458   3.102   1.456  12.507  0.4306  0.0383  0.1453
16328W        W31459  15.172   9.155   6.680 -0.2149  0.2151 -0.2350
16329W        W31460   0.462   4.208   5.077 -0.2058 -0.3363 -0.1283
16330W        W31461  16.728  11.034  11.730 -0.1729 -0.1351 -0.2585
16331W        W31462   3.636   6.011  15.595  0.3962  0.1334  0.1608
16332W        W31463  16.919   5.787   4.111 -0.0362  0.1863 -0.1587
16333W        W31464   7.193   7.655  16.125 -0.1531 -0.0681 -0.1676
16334W        W31465  11.104  13.158  13.937  0.5997  0.0824  0.1099
16335W        W31466  14.084   0.327   3.448 -0.4506 -0.1312 -0.1901
16336W        W31467  13.955  17.280   5.797  0.0455 -0.0169 -0.2516
16337W        W31468   1.387   0.911  14.590 -0.0024 -0.1008 -0.1602
16338W        W31469   4.406  14.406   2.209  0.1287  0.2089 -0.2209
16339W        W31470  10.705  10.253   3.917  0.0872 -0.2696 -0.3569
16340W        W31471   2.659  12.314  12.361 -0.1060 -0.1935 -0.0585
16341W        W31472   0.682  17.633   1.457 -0.0792 -0.1185  0.2841
16342W        W31473  14.137   6.270  15.829  0.2986 -0.1302  0.1875
16343W        W31474   4.309   8.567   3.790  0.0185  0.0533  0.0160
16344W        W31475   4.836   4.976   4.735 -0.3339  0.0126 -0.1296
16345W        W31476   2.088   9.563   4.731  0.1749 -0.1051 -0.0121
16346W        W31477  17.542  12.693  12.184 -0.2700 -0.1209 -0.0817
16347W        W31478   3.353   6.086   5.213 -0.0549  0.1367  0.0306
16348W        W31479   9.639  10.582   0.139 -0.0165 -0.5556 -0.0450
16349W        W31480  11.671  16.076   1.894  0.0427 -0.2024  0.0838
16350W        W31481   8.366   3.679  14.622 -0.1698 -0.0451  0.0053
16351W        W31482  15.943   8.528  13.787 -0.1504  0.1297 -0.1740
16352W        W31483  16.593   0.931  14.205 -0.0163 -0.0459 -0.3124
16353W        W31484   4.562   9.511   0.875  0.2202  0.0446 -0.2534
16354W        W31485   5.657  15.417   0.870 -0.0391 -0.2481 -0.4318
16355W        W31486  15.950  12.195  13.241 -0.0670 -0.0132 -0.3311
16356W        W31487   6.267  14.917  14.542 -0.2143 -0.0287  0.0229
16357W        W31488   6.944   1.043  16.635 -0.1234  0.4451 -0.0036
16358W        W31489   9.807  15.314  14.840 -0.0323  0.1714  0.0765
16359W        W31490   4.116   1.450  16.102 -0.0815 -0.2181  0.2611
16360W        W31491   3.571   0.540  15.344  0.0526 -0.0864  0.3260
16361W        W31492  17.879   2.043   3.980 -0.0276  0.0487  0.2815
16362W        W31493   4.251  11.883   6.256  0.0565  0.2340  0.4271
16363W        W31494  17.143  16.489   0.005  0.1114  0.3093 -0.0861
16364W        W31495   5.306  12.659  11.571 -0.1704 -0.1561 -0.0168
16365W        W31496   3.512  15.173  12.494 -0.1990 -0.1676  0.2242
16366W        W31497   8.224  15.630  16.573  0.0798  0.1759  0.2194
16367W        W31498  13.355   3.639   6.288  0.0907 -0.3028 -0.1832
16368W        W31499   1.894   2.701  15.634  0.1480 -0.0305 -0.1568
16369W        W31500   7.726   0.164   5.779 -0.1845  0.0468  0.0327
16370W        W31501   6.333   4.315   5.413  0.1923  0.0574 -0.0334
16371W        W31502   5.368  17.295   5.165  0.0341  0.0702  0.2190
16372W        W31503  17.547   7.023  15.864  0.0600  0.0649  0.0429
16373W        W31504   6.868   2.635   4.118 -0.0636 -0.1738 -0.1701
16374W        W31505  11.615  17.542   4.883 -0.2357  0.2946  0.0573
16375W        W31506   5.955  11.241   3.644  0.1526  0.0389  0.0448
16376W        W31507  11.379  12.066   6.000 -0.3925 -0.5205  0.0021
16377W        W31508  11.355  10.892  14.916 -0.3970  0.0518  0.0307
16378W        W31509   4.985  12.717   0.226 -0.2641  0.0753 -0.3679
16379W        W31510   0.831  11.140  15.462  0.2843 -0.1131  0.2883
16380W        W31511   6.255   6.330   5.606 -0.2424  0.1692  0.1009
16381W        W31512  10.940  12.555   4.919 -0.0291  0.3081 -0.0571
16382W        W31513   9.775   4.616  13.189  0.2829  0.1065  0.0486
16383W        W31514  13.190  16.246   5.738 -0.5468  0.2258  0.2569
16384W        W31515  16.887   1.741  14.090 -0.0520  0.0421 -0.1099
16385W        W31516   7.245  14.134   0.238  0.1936 -0.1663  0.0784
16386W        W31517  12.615  11.800  15.386 -0.0163  0.1568  0.1432
16387W        W31518   5.353   1.479   3.037  0.0742  0.1331 -0.0901
16388W        W31519  14.189   8.710  11.533  0.2416  0.0917  0.0594
16389W        W31520   7.000   9.678   6.195  0.0932  0.2393 -0.0213
16390W        W31521  16.325   0.519   0.831 -0.3201 -0.0841 -0.0686
16391W        W31522  12.395  12.456   4.229  0.1233  0.4746 -0.1712
16392W        W31523   2.198   0.130   5.912 -0.0201 -0.1102 -0.0712
16393W        W31524   9.748  14.135   3.819  0.0309  0.0465  0.1442
16394W        W31525   4.756  11.011  14.516 -0.0947 -0.2005  0.2256
16395W        W31526   4.093  13.788  12.839  0.5063  0.0069  0.1117
16396W        W31527  16.824  10.056  15.008  0.0449 -0.1144  0.1311
16397W        W31528  13.378  11.860  12.078  0.2383 -0.0769  0.0309
16398W        W31529  11.475   8.474   3.599 -0.1398 -0.0682  0.1902
16399W        W31530  17.338  15.997   1.528 -0.0379 -0.2232  0.0708
16400W        W31531   5.753   8.302   2.253  0.0698  0.0219 -0.1273
16401W        W31532   1.501   5.744   3.534  0.2000  0.1198 -0.0599
16402W        W31533   8.083   7.104  16.447 -0.2123 -0.0882  0.1889
16403W        W31534  15.665   0.932  13.851 -0.1864 -0.3112  0.2195
16404W        W31535  12.394   3.003  15.274  0.1868 -0.1161  0.0552
16405W        W31536  15.123  11.398   5.776 -0.2108 -0.0978  0.2687
16406W        W31537  10.087  11.409   0.202 -0.2562 -0.1440 -0.2554
16407W        W31538   1.501   2.487  15.492  0.2302  0.0319  0.1757
16408W        W31539  10.770  12.881  14.787 -0.0505 -0.1560 -0.1913
16409W        W31540   5.911   1.352   1.404 -0.0880 -0.0598 -0.0544
16410W        W31541   1.922  17.641   6.447  0.0459  0.0976  0.0487
16411W        W31542  17.201  14.487  14.266  0.0287 -0.2055 -0.0734
16412W        W31543   7.211  16.079   1.381 -0.2242  0.1600 -0.1817
16413W        W31544   2.130  14.101   5.558  0.1482  0.1034 -0.2384
16414W        W31545  10.327   6.520  16.535 -0.1671  0.0962 -0.1456
16415W        W31546  12.524   9.459   3.389  0.0691  0.2226  0.2547
16416W        W31547   6.868   8.611  12.059  0.1530  0.1978 -0.1410
16417W        W31548  14.582   7.472  15.095  0.0681  0.0312 -0.1970
16418W        W31549   0.769   1.222   2.250  0.0749 -0.0921 -0.4037
16419W        W31550  15.665  17.149  12.482 -0.2437 -0.1342  0.1544
16420W        W31551  11.294   8.104   2.124 -0.3130  0.1371  0.2958
16421W        W31552  11.071   0.184   2.014 -0.1004  0.1729  0.2413
16422W        W31553   0.861   2.926  14.459 -0.0976 -0.4054 -0.1906
16423W        W31554  13.726  13.650   3.885  0.2441 -0.0492  0.1421
16424W        W31555   7.697   9.408   0.042  0.1593  0.0047  0.2038
16425W        W31556  16.262   8.243   3.735 -0.2132  0.0765  0.1263
16426W        W31557  16.453   6.977  14.997 -0.2068  0.1031  0.0960
16427W        W31558  13.688  15.038   4.273 -0.0720 -0.1070  0.2157
16428W        W31559   4.761  10.049  16.550  0.0048  0.1116  0.0896
16429W        W31560   1.496   6.287  13.755 -0.0134 -0.1027  0.2764
16430W        W31561   8.315  11.655  14.917 -0.1057  0.0811 -0.2821
16431W        W31562   3.301   4.661  15.959 -0.0727 -0.0280  0.0647
16432W        W31563   8.462  15.493   0.205 -0.0524  0.0329  0.2243
16433W        W31564   3.632  15.082   5.512  0.2523 -0.1355 -0.1559
16434W        W31565  13.362   0.503  10.289 -0.0131 -0.1411 -0.1083
16435W        W31566   6.949  12.012  16.438 -0.0794 -0.2778  0.1433
16436W        W31567   2.294   5.356   0.358  0.0562  0.1245 -0.0533
16437W        W31568   6.369   4.063   3.489  0.1004  0.1801  0.0632
16438W        W31569   0.677  13.351  14.356 -0.1489  0.2037 -0.1143
16439W        W31570  16.535  15.695  13.576 -0.0834  0.2143 -0.0968
16440W        W31571  11.394  12.575   9.608 -0.1416 -0.1828  0.0520
16441W        W31572   4.657  14.568  11.693 -0.2404  0.0711 -0.0307
16442W        W31573   1.976  10.589   4.513  0.2329 -0.0548 -0.0829
16443W        W31574  10.372  17.661  10.962 -0.1729  0.0613 -0.0940
16444W        W31575  13.438  14.038  13.818 -0.0146 -0.1037 -0.3690
16445W        W31576   4.210   3.019  12.540  0.0774 -0.0525  0.1278
16446W        W31577   7.344  13.441  16.714 -0.1151  0.1002  0.2502
16447W        W31578   8.022   3.296  14.052  0.0637 -0.1304  0.1728
16448W        W31579  15.787  15.301  12.423  0.0634 -0.0123 -0.0811
16449W        W31580   3.424  13.081  14.580  0.0469 -0.0772  0.1111
16450W        W31581   7.033  17.463  10.939  0.3404  0.1172  0.0232
16451W        W31582   1.982   8.216   2.618  0.0698 -0.0386  0.3174
16452W        W31583   5.321   6.806   2.220 -0.0239  0.0018  0.3114
16453W        W31584   7.391  16.092  14.687 -0.2054 -0.1615 -0.0854
16454W        W31585   9.486   1.762   3.480  0.1343  0.3578  0.0300
16455W        W31586  12.528   0.189  16.499 -0.2597  0.0275 -0.2731
16456W        W31587   9.435   8.652   0.345 -0.0064 -0.0121  0.1537
16457W        W31588   8.073   0.980   0.854  0.1181  0.5709 -0.1758
16458W        W31589  14.686   4.909  13.222  0.2651 -0.2315 -0.2384
16459W        W31590   6.008  11.720   4.348 -0.0698  0.3503 -0.1980
16460W        W31591   1.936   2.314   5.652 -0.1314  0.1703 -0.0158
16461W        W31592   7.378  16.592  11.021 -0.0542  0.0451  0.4085
16462W        W31593   6.895   4.639  15.642  0.1375  0.1365 -0.1110
16463W        W31594  15.994  11.436  16.502 -0.2590  0.1483 -0.1195
16464W        W31595   7.520   6.835  13.298 -0.1591 -0.1489  0.3054
16465W        W31596   1.843   6.758   4.961  0.1854  0.2830  0.1233
16466W        W31597   8.874   0.327  15.837  0.2257  0.0606  0.0143
16467W        W31598   0.107   7.171   1.896 -0.0696 -0.0449 -0.3744
16468W        W31599   4.059   9.211  13.629 -0.1902  0.1164  0.2020
16469W        W31600   5.888  10.037  11.686 -0.3327 -0.0616 -0.1933
16470W        W31601  16.997  12.661  15.657  0.0479  0.2517 -0.2841
16471W        W31602  11.176   1.364   0.681 -0.0404  0.2822  0.2330
16472W        W31603  11.508   8.994   4.454  0.1771 -0.0744  0.0507
16473W        W31604   4.545  17.052  11.571  0.2571 -0.1642 -0.1304
16474W        W31605   8.487  16.095   2.211 -0.1804  0.1132  0.0952
16475W        W31606   0.371  15.641   1.276 -0.1397  0.2763 -0.3911
16476W        W31607   1.880   6.345  16.201  0.0489 -0.1910 -0.1969
16477W        W31608   8.203   7.734   3.983  0.0994 -0.0780  0.1545
16478W        W31609   1.342  13.384  14.599  0.0151 -0.0539  0.1077
16479W        W31610   1.167  15.862  16.649  0.2085 -0.1879 -0.0378
16480W        W31611  15.255   4.825   5.060  0.2356  0.0907 -0.2604
16481W        W31612   2.677  14.233   4.417 -0.3251  0.2725 -0.0162
16482W        W31613  15.422   0.289  11.229  0.0369 -0.2635 -0.0024
16483W        W31614  13.405   6.688   3.429 -0.2738 -0.4711  0.2839
16484W        W31615  11.140  14.849   1.793  0.2316  0.0813 -0.0934
16485W        W31616   4.006   0.611   1.004 -0.2416  0.2295  0.0520
16486W        W31617   3.432   7.080  11.825 -0.0981  0.1909  0.2635
16487W        W31618   4.269   6.637   1.713 -0.1185 -0.2107  0.1007
16488W        W31619   3.061  15.236  16.545 -0.0065 -0.3222 -0.1796
16489W        W31620  15.800  10.115   4.002  0.0193  0.2878  0.0712
16490W        W31621   9.326   2.684  13.120 -0.4056  0.1249  0.1297
16491W        W31622  13.204   6.888   5.638 -0.2769 -0.0221 -0.0064
16492W        W31623   9.668   1.675   1.066  0.0789 -0.2324  0.0074
16493W        W31624  16.401   9.376  13.481  0.0818  0.0541  0.1723
16494W        W31625   9.532   8.148   2.234 -0.0524 -0.1071  0.1508
16495W        W31626  15.524  16.668  12.030  0.0409 -0.0565  0.0693
16496W        W31627   2.498  13.670   3.411 -0.1926 -0.0870  0.2129
16497W        W31628   7.724  15.605   5.333 -0.0835 -0.0109  0.2188
16498W        W31629  16.039   8.711  12.217 -0.0459  0.1111  0.0708
16499W        W31630   0.833   5.209  10.547 -0.0742  0.2438 -0.5642
16500W        W31631   1.075   3.425   3.351  0.0569 -0.2446  0.2758
16501W        W31632  16.422  12.716   1.650  0.2740  0.2278 -0.2098
16502W        W31633  17.020   8.379   3.173  0.0037  0.1986  0.2276
16503W        W31634  15.628   0.340  15.361  0.1722 -0.1464  0.0594
16504W        W31635  12.694   7.808   5.687  0.0649  0.3125  0.0415
16505W        W31636  16.444   3.907  15.365 -0.1028  0.1564 -0.0581
16506W        W31637  11.854  16.522   0.097 -0.5453  0.0565  0.2734
16507W        W31638   3.648   1.047  15.530 -0.2715 -0.1164 -0.0313
16508W        W31639   3.929   1.721   0.571 -0.4172 -0.0895  0.0578
16509W        W31640   6.891   0.322   1.180  0.1531 -0.0279 -0.0257
16510W        W31641   5.384   0.132  13.483 -0.2005 -0.0116  0.3471
16511W        W31642  14.575  10.167   4.159  0.1230  0.0727  0.1816
16512W        W31643   7.015   1.461   1.581 -0.0965  0.1147 -0.1452
16513W        W31644   6.578  13.844   2.568  0.0009 -0.3862 -0.0630
16514W        W31645   0.895   8.211   5.943  0.0661 -0.1374  0.2743
16515W        W31646   1.245  17.126   0.904  0.4394 -0.2806 -0.0176
16516W        W31647  14.301   9.400  14.688  0.0240  0.1148  0.2641
16517W        W31648   3.711   1.275   3.411  0.0375 -0.0799 -0.0298
16518W        W31649  17.724  11.804   2.197 -0.1305  0.3561  0.2574
16519W        W31650   1.181   2.449   2.997 -0.0954 -0.1358  0.1418
16520W        W31651  11.856  14.011   3.075  0.1917  0.1115 -0.1355
16521W        W31652   0.688   7.095  14.675 -0.1350  0.0025  0.0547
16522W        W31653  14.996   4.511   3.905 -0.2147  0.0636  0.0308
16523W        W31654  10.871   1.475   1.663 -0.2660 -0.1857 -0.3934
16524W        W31655   6.459   8.462   4.076 -0.1449  0.0536 -0.5401
16525W        W31656  10.510   4.046   1.222  0.0907  0.3540  0.1255
16526W        W31657   9.723  10.931  15.759 -0.0351  0.0852 -0.0812
16527W        W31658  15.629  13.603   5.424 -0.1638 -0.0330 -0.1286
16528W        W31659  14.561  14.052  10.593  0.0600  0.1594 -0.0277
16529W        W31660  16.916   3.549  12.012  0.0616  0.1210  0.1403
16530W        W31661   1.436   1.109  13.160 -0.0461 -0.0504 -0.0390
16531W        W31662   0.703   8.200  14.693  0.0755 -0.4216 -0.0327
16532W        W31663   9.545  14.736   4.948 -0.0236 -0.1421 -0.0522
16533W        W31664   2.241   6.439   3.281  0.2401 -0.2134  0.0242
16534W        W31665   1.298   2.948  13.057  0.0728 -0.4641  0.2550
16535W        W31666   9.322   2.967  13.542  0.1743 -0.0866  0.1416
16536W        W31667   9.897  10.346   1.116  0.1060 -0.1469 -0.0149
16537W        W31668   1.310   6.109   4.386 -0.0040 -0.1294  0.0970
16538W        W31669  13.778   6.737  12.599 -0.0335 -0.0442  0.0572
16539W        W31670  16.058  15.048  16.099 -0.1824  0.1667 -0.0691
16540W        W31671   4.970   2.545  10.491  0.1733  0.1150  0.1529
16541W        W31672   9.866   6.555   2.236 -0.0186 -0.2023  0.1033
16542W        W31673   2.765   8.188   1.534 -0.1653  0.0375 -0.0105
16543W        W31674   7.629  13.907  14.803 -0.2154 -0.1443 -0.0574
16544W        W31675  11.359   7.506  11.643 -0.0754  0.0060 -0.3143
16545W        W31676   0.725  14.080   6.463  0.0792  0.2272 -0.1721
16546W        W31677   7.247   8.699   1.167  0.0993 -0.1666  0.1769
16547W        W31678   6.547  17.284  15.000  0.2320 -0.0838 -0.1206
16548W        W31679   1.698   3.140   2.162 -0.0478 -0.1984 -0.1093
16549W        W31680  12.841  11.059   1.011  0.0228 -0.3944 -0.2598
16550W        W31681  12.055  11.244  14.238 -0.1029  0.0037  0.0941
16551W        W31682   2.967   5.824   4.934 -0.2187  0.2963  0.1609
16552W        W31683   3.156  17.378  13.699  0.1421  0.2123 -0.0110
16553W        W31684   5.492  14.593   2.960 -0.1494  0.0596 -0.2681
16554W        W31685   4.425   8.159  14.442 -0.2056  0.1375  0.1507
16555W        W31686   3.931   7.261   0.582 -0.1383 -0.1113  0.2220
16556W        W31687  11.620  11.582   1.136 -0.1970  0.3614 -0.1388
16557W        W31688   9.126  14.474  15.654  0.2396 -0.5788 -0.3065
16558W        W31689   1.610   7.086   3.619 -0.1477 -0.0718 -0.0396
16559W        W31690  10.850   5.568   0.344  0.0071  0.1018 -0.0480
16560W        W31691   6.551   5.277  16.048 -0.2875 -0.0329  0.0371
16561W        W31692   4.807   1.702   5.564 -0.0071  0.1257  0.1227
16562W        W31693   5.585  11.917  11.857 -0.1144 -0.4680 -0.1644
16563W        W31694   3.840   6.854  11.655  0.0461  0.0573  0.1433
16564W        W31695   2.706  17.726   0.641 -0.1377 -0.0649 -0.2375
16565W        W31696  17.300  17.147   6.109 -0.1719 -0.0640  0.1129
16566W        W31697   1.286  15.073   1.691 -0.2766 -0.1163 -0.0363
16567W        W31698   7.089  16.733  12.691 -0.3526 -0.1253  0.2231
16568W        W31699   5.204   5.993  13.121 -0.0766  0.1485 -0.1319
16569W        W31700   7.453   2.796   0.576 -0.1483 -0.2554 -0.3894
16570W        W31701  13.876   6.132  16.197  0.2306  0.0022 -0.0503
16571W        W31702   7.938  12.060   4.095 -0.0214  0.1285 -0.1481
16572W        W31703  17.688   4.632  13.419  0.1255  0.1637 -0.0693
16573W        W31704  12.601  10.478  12.571  0.2420  0.0561  0.2337
16574W        W31705  17.389  13.276  11.876 -0.0262 -0.2330  0.2071
16575W        W31706   5.678  14.275   0.802  0.0862 -0.1348  0.0355
16576W        W31707   6.270  11.891  15.875  0.0201 -0.1041  0.0989
16577W        W31708   4.025  12.748  16.531 -0.1242  0.3614 -0.1342
16578W        W31709   8.834  12.218  12.601  0.0873  0.0571 -0.1868
16579W        W31710   5.438   3.875   1.527 -0.1310 -0.1091 -0.1722
16580W        W31711   9.418   5.624  14.181  0.2064 -0.0855 -0.1531
16581W        W31712   7.195   9.576  12.219 -0.0501  0.0225 -0.2223
16582W        W31713   8.032   6.054  11.689  0.0283  0.2187  0.2363
16583W        W31714  13.123  11.910   6.329 -0.0635 -0.0003 -0.1262
16584W        W31715  14.289   0.424   4.751  0.1526 -0.1092 -0.2718
16585W        W31716  15.074   7.245  16.532  0.0933  0.0378 -0.0492
16586W        W31717   9.438   8.527   1.939  0.0944  0.1929  0.0526
16587W        W31718  13.772  11.992  12.952  0.1239 -0.0092 -0.0913
16588W        W31719   8.533   4.972   0.161 -0.0763 -0.0825 -0.1716
16589W        W31720  12.726   0.601   1.437 -0.2084 -0.0305 -0.1141
16590W        W31721  13.042   6.825   0.387 -0.0353 -0.2187  0.1729
16591W        W31722   9.915   9.279   2.793  0.1315 -0.1693 -0.1231
16592W        W31723   7.191  11.690   3.208  0.0001 -0.0154 -0.0061
16593W        W31724   6.916   1.553   3.735  0.1832 -0.1363  0.0392
16594W        W31725  13.606  12.183  12.340  0.0611  0.0050  0.0218
16595W        W31726   2.003   8.067  15.604 -0.0599  0.0337 -0.0730
16596W        W31727   7.290  17.050  11.094  0.1198 -0.1776  0.0764
16597W        W31728   3.348  17.388  14.225  0.1443  0.0384 -0.0031
16598W        W31729  11.889   7.630  12.043 -0.3425 -0.0227 -0.4690
16599W        W31730  12.139  17.040  15.935 -0.4010 -0.2251 -0.2085
16600W        W31731   9.583   5.753  14.948 -0.1510 -0.2505  0.1225
16601W        W31732  10.470  14.934  12.574 -0.0892  0.2522 -0.0650
16602W        W31733   1.684   5.178   2.112 -0.1746  0.1921 -0.0727
16603W        W31734  17.803   8.876  14.256 -0.2056 -0.3617 -0.1385
16604W        W31735  13.262  10.380  14.435 -0.1372  0.0281 -0.0223
16605W        W31736   3.493  13.682  13.051  0.1310 -0.0502  0.0578
16606W        W31737  14.872  14.649  14.677  0.1542 -0.1697  0.0630
16607W        W31738   0.715  14.055  15.856 -0.0379  0.1435 -0.0003
16608W        W31739   6.205  14.929  13.597  0.2341  0.1113  0.0576
16609W        W31740  16.465   3.340   0.312 -0.1107  0.0245 -0.0534
16610W        W31741  16.852  12.553   1.115 -0.0645  0.0362 -0.1599
16611W        W31742   5.810   7.910   0.595 -0.1779  0.0160  0.2318
16612W        W31743   8.937   7.785  13.382  0.4458  0.0910  0.1247
16613W        W31744   0.466  17.028   1.490 -0.2104  0.1309 -0.0149
16614W        W31745  17.771   6.208  13.277  0.4231  0.0968  0.4543
16615W        W31746  17.122  14.027  16.067  0.2305 -0.3309  0.1432
16616W        W31747  12.424   2.321   2.325  0.1266  0.1002 -0.2322
16617W        W31748  17.259   6.699   1.427  0.0798 -0.0121  0.0035
16618W        W31749  12.255   0.290   3.137  0.0326 -0.2011 -0.1794
16619W        W31750   5.680   0.209  16.367  0.0749 -0.1992  0.0842
16620W        W31751  15.986   4.913  16.639  0.0406  0.2132  0.2280
16621W        W31752   7.371  16.323  13.433  0.0135 -0.0119  0.0224
16622W        W31753   1.376   9.624  15.922 -0.0083  0.0057 -0.1406
16623W        W31754  11.243   2.584  11.417  0.0173  0.0314  0.0718
16624W        W31755  13.847  15.204  12.000 -0.0722  0.0688 -0.1748
16625W        W31756  12.356  17.804  12.884  0.0197  0.2970 -0.0957
16626W        W31757   8.109   5.436  11.467 -0.0255  0.0174 -0.0594
16627W        W31758   0.144   0.388  12.468  0.1023 -0.2083  0.0131
16628W        W31759  15.388   1.223   2.332 -0.0814 -0.1819 -0.2111
16629W        W31760   2.176  10.122  12.517  0.2362 -0.0073  0.0995
16630W        W31761  16.432   8.196  12.334  0.0967  0.0520 -0.0689
16631W        W31762   3.679   2.926   0.441  0.2198  0.0738 -0.0957
16632W        W31763   2.371   4.601   3.905 -0.0415  0.1708  0.0373
16633W        W31764  12.461  10.734   5.002 -0.1112 -0.0864  0.2050
16634W        W31765  17.638   1.740   0.876  0.0679  0.0504 -0.0072
16635W        W31766  11.716  11.828  15.117 -0.2767 -0.3655  0.1752
16636W        W31767   8.922  15.517  15.358  0.0777 -0.1066  0.1189
16637W        W31768  11.937   4.991   1.516  0.1388  0.3388  0.1364
16638W        W31769   4.152   9.291  16.028  0.2848  0.1056  0.0230
16639W        W31770  16.294   0.751   2.126 -0.0927 -0.2046 -0.1458
16640W        W31771  17.168  15.927   2.518 -0.4197 -0.0050  0.1209
16641W        W31772   0.308  11.891   2.110  0.0265  0.1756 -0.1733
16642W        W31773  10.969  15.810   1.810 -0.0291  0.0809  0.0180
16643W        W31774  10.041   9.579  12.180 -0.1306  0.1543  0.0517
16644W        W31775  15.547   0.096   0.866  0.1248 -0.0827  0.1814
16645W        W31776   3.265  14.587  12.719 -0.2667 -0.1838 -0.1758
16646W        W31777   7.897  12.635  13.778 -0.0405  0.1054  0.1466
16647W        W31778  14.341   7.822   1.562  0.4425  0.0414 -0.0707
16648W        W31779   6.210  12.919   2.274 -0.0844 -0.2394  0.1839
16649W        W31780   3.569  14.825  13.763  0.0441 -0.0272  0.5331
16650W        W31781  16.638  15.444   1.934 -0.1305 -0.0674 -0.2994
16651W        W31782   4.245  16.646  11.665  0.1028 -0.0848 -0.1709
16652W        W31783  11.959   4.784  14.218 -0.0462 -0.0429 -0.1785
16653W        W31784  16.767  12.924   2.515  0.0735  0.1882  0.0789
16654W        W31785  15.051   5.324   5.424  0.2734 -0.0827 -0.0241
16655W        W31786   1.751   1.129   5.070  0.0644  0.0731  0.2583
16656W        W31787   7.251   1.915   0.680  0.0849  0.0269 -0.0507
16657W        W31788   3.320  15.482  12.871 -0.0394  0.0641 -0.0283
16658W        W31789  15.318   8.040   4.678  0.0354 -0.0016 -0.2766
16659W        W31790  15.557  15.437   3.951 -0.0954  0.0573  0.2029
16660W        W31791   9.071  15.820   3.939  0.0480  0.2281 -0.0428
16661W        W31792  12.736   0.989   5.679  0.0265  0.0090  0.1260
16662W        W31793  13.873   9.177  14.474  0.0392 -0.1179  0.1207
16663W        W31794  12.004   1.841   4.453  0.0684 -0.3188 -0.3735
16664W        W31795   5.264   6.049   0.410  0.4080  0.1947 -0.0090
16665W        W31796  16.118   2.578   0.713  0.1119  0.0333 -0.4623
16666W        W31797   3.912  10.809   0.642 -0.0507 -0.1063 -0.0559
16667W        W31798  10.286   2.648  15.627  0.0105 -0.1768 -0.1493
16668W        W31799   7.187  11.109  14.203 -0.0457 -0.1545  0.1201
16669W        W31800  15.874   3.601   4.265  0.0915 -0.0695 -0.0031
16670W        W31801  10.753   8.254   0.070  0.1765 -0.1914 -0.2843
16671W        W31802   1.347   1.250   1.794 -0.1738 -0.0179  0.0588
16672W        W31803   9.202   6.032  12.477  0.2720 -0.3075  0.1670
16673W        W31804  16.056  11.778  14.119  0.2582  0.1037  0.3669
16674W        W31805  13.940  13.974  13.553 -0.0114 -0.2308 -0.0541
16675W        W31806  12.681   2.410  10.614  0.3182 -0.1773  0.2146
16676W        W31807  17.395  12.216   2.397  0.1541 -0.2099  0.0648
16677W        W31808   0.977  16.190  13.542 -0.1580 -0.1833 -0.2334
16678W        W31809  12.027   8.635   2.544 -0.2689  0.1425 -0.2155
16679W        W31810   0.371   9.560   1.314 -0.2733 -0.0897 -0.2448
16680W        W31811   6.944  12.955   1.685  0.0051  0.0294  0.0696
16681W        W31812  12.684  15.426   1.271 -0.0820 -0.0431  0.0342
16682W        W31813  15.950   6.500   3.566  0.1230  0.1494 -0.0821
16683W        W31814   4.348  17.329   3.111 -0.1001 -0.3210 -0.0200
16684W        W31815  13.151   8.870   3.477 -0.1416  0.0377  0.2313
16685W        W31816   5.204  11.657  12.683 -0.0089  0.1165 -0.0178
16686W        W31817  15.770  17.008  14.385 -0.2515 -0.0001  0.0071
16687W        W31818  11.817   0.174   0.376 -0.3807 -0.1505  0.3924
16688W        W31819   2.517   4.917   3.473  0.1066  0.2529  0.0469
16689W        W31820   7.264  11.830  13.090  0.0500 -0.1860 -0.2610
16690W        W31821   5.957  16.115  15.515 -0.2360  0.1083 -0.0019
16691W        W31822  13.126   0.229   2.862 -0.1403 -0.2051  0.2547
16692W        W31823   1.678  17.219  11.642  0.0604 -0.1680  0.0530
16693W        W31824   0.277  13.581  12.890 -0.1238  0.0329 -0.3297
16694W        W31825   6.093  13.061   3.730  0.1138 -0.0351 -0.1230
16695W        W31826  17.840   9.928   3.019 -0.0777 -0.2187 -0.0992
16696W        W31827   4.370   1.386  14.508  0.2411 -0.1371 -0.1801
16697W        W31828   4.335   6.790  16.427 -0.1128 -0.1191 -0.0841
16698W        W31829   9.766   4.382  15.567  0.0162  0.0121  0.2463
16699W        W31830  13.625   1.443  13.436  0.0992  0.2338 -0.2195
16700W        W31831   9.620   7.010  13.218  0.0031 -0.0382 -0.1981
16701W        W31832   4.694   4.422   1.916 -0.0477  0.2314 -0.2820
16702W        W31833  11.675   3.956  15.352  0.3649  0.1270 -0.0445
16703W        W31834  11.742   8.074   3.365 -0.0770  0.0710  0.1903
16704W        W31835  14.209   2.477   1.686  0.0469 -0.4962 -0.0285
16705W        W31836   8.516   1.828   5.277 -0.1276  0.3606 -0.6339
16706W        W31837   9.373   0.729   0.686  0.2373 -0.3013  0.2137
16707W        W31838   1.988   5.518   2.805 -0.0878 -0.1213 -0.2744
16708W        W31839   8.942   8.602   5.433  0.2277 -0.0759  0.0213
16709W        W31840  12.975   1.491  15.178 -0.1571  0.0608  0.1968
16710W        W31841   1.157  14.894  16.487  0.0321 -0.1259  0.0775
16711W        W31842   7.514  12.362  14.854  0.2678  0.0073  0.2219
16712W        W31843  14.602  15.705  11.726 -0.0394  0.1016 -0.2274
16713W        W31844   4.452  12.140   1.925  0.0057  0.4087  0.1384
16714W        W31845  14.793  10.807  12.331  0.0929 -0.0486 -0.0624
16715W        W31846   1.859   3.686   2.880  0.0109  0.2165  0.1115
16716W        W31847  15.126   1.162   5.905 -0.2346 -0.2777 -0.1287
16717W        W31848   9.233  16.838   2.197  0.0310 -0.0162 -0.6282
16718W        W31849   4.047  10.702  14.199 -0.1104  0.0069  0.4154
16719W        W31850  12.932  13.917   2.265 -0.3209  0.1260 -0.1670
16720W        W31851   4.726  17.216  14.926 -0.4444  0.2195  0.0578
16721W        W31852   1.143   6.285  11.158 -0.1134  0.0210  0.0483
16722W        W31853   7.346   6.022  13.701  0.0334  0.0957 -0.2257
16723W        W31854   7.010   9.595   0.644 -0.0522  0.1382  0.0273
16724W        W31855  10.905   1.226   1.141  0.1817  0.2376 -0.2583
16725W        W31856  16.259  10.474   2.877  0.1746  0.1362 -0.2107
16726W        W31857   1.543   5.586  13.484  0.1055  0.3435  0.0274
16727W        W31858  13.210   0.885   0.453  0.0066  0.0892 -0.4429
16728W        W31859   5.136  10.824  16.075  0.2177 -0.1203  0.0244
16729W        W31860   7.609   0.369  16.284  0.0554  0.2409  0.3052
16730W        W31861   6.040   9.496   2.665  0.2201 -0.0750  0.0347
16731W        W31862   4.186   7.150  15.258  0.1431 -0.1634  0.0881
16732W        W31863  10.818   0.928  11.431 -0.3103 -0.0702 -0.1039
16733W        W31864   8.894  15.280  14.911 -0.0190 -0.1546 -0.2012
16734W        W31865   5.861   4.301  12.955  0.0025  0.1130  0.0501
16735W        W31866  14.800   6.670   1.712  0.0956  0.0997  0.1778
16736W        W31867   7.700  14.274   0.340 -0.1365  0.0475 -0.1339
16737W        W31868  11.833  12.129  11.650 -0.1885 -0.0539  0.0804
16738W        W31869  12.604  14.103  14.146  0.2385  0.0683  0.0026
16739W        W31870   2.461   5.050   1.174  0.0919  0.1315 -0.0606
16740W        W31871   4.129   1.129   4.204 -0.2302 -0.2354  0.0692
16741W        W31872   1.546  14.254   0.700 -0.0754  0.0090  0.0782
16742W        W31873  14.409  11.236  13.255 -0.0746  0.0915 -0.1998
16743W        W31874  16.760   5.184  13.382 -0.0382  0.1746  0.1698
16744W        W31875   9.080   0.440   0.938 -0.1453  0.0633  0.0280
16745W        W31876  11.141   9.325   2.075 -0.2860 -0.0485 -0.2385
16746W        W31877   3.810  15.800  14.063 -0.0470 -0.1628  0.0438
16747W        W31878   0.771   8.855  13.232  0.0622 -0.0500  0.3219
16748W        W31879  10.520  14.374  11.313  0.0841  0.1616  0.3909
16749W        W31880   2.827  15.992  15.832  0.0772  0.0360  0.0298
16750W        W31881   0.257  10.541  12.694 -0.0664  0.0486  0.3146
16751W        W31882   3.037  13.085  11.975 -0.2307  0.0167 -0.1697
16752W        W31883  13.688   9.251   4.158  0.2075  0.1386 -0.0232
16753W        W31884   3.001   6.875  13.823  0.0854  0.1318  0.1258
16754W        W31885   3.479   3.369   4.918 -0.2023 -0.0296 -0.0784
16755W        W31886   3.858   3.434   3.291 -0.0932  0.2166  0.0690
16756W        W31887  13.867  14.903   5.155 -0.2011 -0.1734 -0.1500
16757W        W31888   0.807  10.412  15.809 -0.1860  0.3334 -0.1360
16758W        W31889   3.613   6.420   2.874 -0.1137  0.1460  0.1405
16759W        W31890   2.640   3.460   4.033 -0.1652  0.0662 -0.0062
16760W        W31891   3.037   4.458   4.188 -0.3125 -0.0495  0.0572
16761W        W31892   5.082   6.942   0.384 -0.1372 -0.3174 -0.0819
16762W        W31893   6.254   7.041   4.935  0.0714 -0.1909 -0.1478
16763W        W31894   7.930  16.353  14.217  0.0248 -0.2252 -0.2431
16764W        W31895   3.215  15.244   3.644  0.1539 -0.0525 -0.0501
16765W        W31896   7.506  11.575   2.691 -0.4713 -0.1170 -0.2816
16766W        W31897  12.658   7.386  12.215  0.0472 -0.0174  0.3355
16767W        W31898   8.297   6.614   0.351  0.1975  0.1491  0.0366
16768W        W31899   5.160   8.692  12.872 -0.1270 -0.1233  0.0752
16769W        W31900   8.025  10.818   1.856 -0.0966 -0.3154  0.0534
16770W        W31901   6.375  14.278   1.826 -0.1013  0.0380 -0.1417
16771W        W31902   3.545  16.934   1.127  0.3750 -0.1234  0.1507
16772W        W31903   9.481   2.243   3.370  0.0226  0.1429  0.1831
16773W        W31904  16.435  10.866  14.071 -0.0210 -0.1571  0.1956
16774W        W31905  17.331   8.532  11.229  0.0596 -0.2165 -0.2341
16775W        W31906  15.803   5.960   1.535 -0.0185 -0.0966  0.1032
16776W        W31907  15.774   2.467   1.028  0.0513  0.2821  0.2013
16777W        W31908  12.516   9.003  10.353  0.0524  0.3242 -0.2120
16778W        W31909  16.822  11.172   3.102 -0.1325  0.2275 -0.0620
16779W        W31910   9.203  14.455   4.686  0.0035  0.3301  0.0572
16780W        W31911  12.527  10.663  14.888  0.0525 -0.1983 -0.0148
16781W        W31912   5.738  14.085   3.351  0.0056  0.2162  0.0975
16782W        W31913   2.509   4.046   3.201  0.1721 -0.3412 -0.0825
16783W        W31914   0.865  10.926   1.174  0.2173  0.1294  0.1391
16784W        W31915   9.880   9.307  15.404 -0.0149  0.1090 -0.1176
16785W        W31916  17.687   1.304   1.351  0.2735  0.0898  0.0837
16786W        W31917   5.096   3.652   3.910  0.1018  0.1673 -0.0626
16787W        W31918   0.587  16.650   0.695  0.0986  0.2988 -0.0439
16788W        W31919  10.131   0.956  16.155  0.3052 -0.2034  0.0840
16789W        W31920  16.476  16.218   4.653  0.2362 -0.1905 -0.3145
16790W        W31921  10.120  10.564  14.814 -0.0642  0.3512  0.3146
16791W        W31922  14.453  15.257   3.003  0.1335  0.1452 -0.0824
16792W        W31923  16.544   0.841  15.212  0.2033 -0.0689 -0.2156
16793W        W31924   7.179   7.049   5.148 -0.3196 -0.0012 -0.2766
16794W        W31925  15.291  15.958  13.857  0.0373 -0.1943 -0.0505
16795W        W31926  11.823   7.118  12.210 -0.2056 -0.0487 -0.0038
16796W        W31927  11.873   9.384  12.977 -0.1128 -0.1639  0.1251
16797W        W31928  13.948   9.037   2.281 -0.0073 -0.0027  0.2610
16798W        W31929   8.123  15.362  12.032 -0.0235 -0.4639  0.0499
16799W        W31930  10.834  16.139  12.147 -0.3855  0.0819 -0.0370
16800W        W31931   1.811   7.411  16.417 -0.3237  0.2083  0.0722
16801W        W31932   4.337  13.817  12.034  0.0176 -0.2711 -0.0099
16802W        W31933  12.509   1.469   5.414 -0.4179  0.2339 -0.2133
16803W        W31934  12.035  10.136   5.114  0.3308 -0.0418 -0.1687
16804W        W31935   5.684  12.377  14.345  0.1008 -0.0992 -0.1122
16805W        W31936   0.810  11.356  14.355 -0.1979 -0.2014 -0.1023
16806W        W31937   3.152  15.410   3.030  0.0638  0.4336 -0.0738
16807W        W31938  16.685   7.723  14.154 -0.3910 -0.1641 -0.1984
16808W        W31939  13.931   1.066   3.346 -0.0196  0.1021 -0.1755
16809W        W31940   9.268   2.261   0.434  0.3593  0.0271  0.0797
16810W        W31941  10.021  17.295   2.245  0.0030 -0.0241  0.0577
16811W        W31942  13.399   6.332  12.607 -0.1343 -0.1448  0.2415
16812W        W31943  13.598  10.996   1.853 -0.0150 -0.1464  0.2536
16813W        W31944  13.884   0.067   3.053  0.1028  0.1911 -0.1379
16814W        W31945  10.166   6.829  12.058 -0.1179 -0.2481  0.3067
16815W        W31946   9.742  17.151  15.216 -0.0611  0.0301 -0.3752
16816W        W31947  10.767  16.281  15.101  0.1025  0.2246  0.3097
16817W        W31948   9.001   1.214   2.565 -0.2529  0.1038  0.2267
16818W        W31949  17.842   7.702   1.970 -0.0674 -0.0468  0.2411
16819W        W31950   1.426  11.613   2.894 -0.1068  0.2214 -0.1016
16820W        W31951  14.376   3.044   3.493 -0.0395 -0.0232  0.0865
16821W        W31952   8.946   4.886   4.414 -0.1714 -0.0200 -0.2150
16822W        W31953   2.210  13.235  16.224  0.1053  0.0590 -0.1190
16823W        W31954   4.590  14.234   6.447  0.3551  0.0087  0.0217
16824W        W31955  14.091   5.537  14.190 -0.4098  0.0562 -0.0830
16825W        W31956   6.289   2.675  15.879  0.4618  0.0848 -0.1186
16826W        W31957   0.523  13.318   0.233 -0.0085  0.0994 -0.0463
16827W        W31958   9.933  12.803   1.113 -0.3079 -0.1041  0.0341
16828W        W31959  16.177   6.556   1.797  0.0061 -0.0646 -0.1227
16829W        W31960   1.963   2.132   6.762  0.0787 -0.1844  0.0519
16830W        W31961  11.553   3.518   0.162 -0.2226 -0.1142 -0.2142
16831W        W31962   5.435  17.442   0.899 -0.0698 -0.1380 -0.0625
16832W        W31963   2.572   4.402  16.442  0.0426 -0.0791  0.0709
16833W        W31964   6.526  11.161  14.857  0.1138 -0.0908  0.1274
16834W        W31965   3.606   7.565  11.027  0.0448  0.0222  0.3286
16835W        W31966   5.760  15.554  14.808 -0.0293 -0.0992  0.1920
16836W        W31967   7.568   9.599  14.341  0.0486 -0.1470  0.0736
16837W        W31968   3.176   6.325   1.062  0.1999 -0.1115 -0.0343
16838W        W31969  14.864  10.643  14.139  0.0531 -0.1063 -0.2635
16839W        W31970   3.994   7.668   5.879 -0.3936  0.0177 -0.1316
16840W        W31971   4.091  12.335  13.462  0.2278  0.0667 -0.0615
16841W        W31972   7.079   8.422  15.544  0.0731  0.0191  0.0797
16842W        W31973   9.505   2.157  10.703 -0.0944  0.1311 -0.0107
16843W        W31974   0.067  15.272   4.042  0.3930  0.0191 -0.1742
16844W        W31975   8.060   0.103  13.830 -0.3207  0.0046 -0.1588
16845W        W31976  14.666   9.216  12.070  0.0223 -0.2640  0.0934
16846W        W31977  15.814  15.992  15.667 -0.0903 -0.2582 -0.2120
16847W        W31978   7.039  10.360  15.009 -0.0708 -0.1732 -0.0114
16848W        W31979   1.379   9.195  14.034  0.0283 -0.0908  0.1795
16849W        W31980   3.829   0.990   1.418  0.1673 -0.1473 -0.0849
16850W        W31981   8.546  17.868   1.614  0.3517  0.0632  0.1023
16851W        W31982  17.730   8.196  11.301 -0.1962  0.1071  0.1942
16852W        W31983   0.764   2.816  16.504  0.1482 -0.2954  0.0609
16853W        W31984   3.986   1.554   3.128 -0.2295  0.2422 -0.0052
16854W        W31985   1.689   9.372   2.198  0.1029 -0.0621 -0.0226
16855W        W31986   1.557  13.511  13.421 -0.0422 -0.3809  0.0406
16856W        W31987  10.473   7.706   2.241  0.1906  0.0472  0.1753
16857W        W31988   1.180   5.540  16.140  0.0938  0.1572 -0.1134
16858W        W31989  13.638   2.263  15.434 -0.0074  0.0381 -0.0091
16859W        W31990  15.976   1.643  14.967 -0.1208 -0.5176 -0.2300
16860W        W31991   4.457  15.893   1.184 -0.0842 -0.0413  0.1106
16861W        W31992   4.150   0.452   4.153 -0.0842  0.3744 -0.0534
16862W        W31993  13.286   6.871   2.411  0.3223 -0.2515 -0.0316
16863W        W31994  12.193  10.524  15.297 -0.1138  0.0944 -0.0115
16864W        W31995  14.625  13.928   4.310 -0.0906 -0.1387 -0.0144
16865W        W31996  11.500  16.217  16.422 -0.2092 -0.1108 -0.2043
16866W        W31997  11.381  17.800   2.662  0.2060 -0.0758 -0.0754
16867W        W31998  17.351   0.727   0.053  0.0377  0.1411  0.0852
16868W        W31999   7.577  17.130  12.123 -0.0526 -0.0652  0.2839
16869W        W32000   7.074   6.164   4.082 -0.2019 -0.1973  0.1891
16870W        W32001   0.154   4.630  11.874 -0.0182 -0.1472 -0.0702
16871W        W32002  16.410  10.227  15.271 -0.0903  0.1300 -0.3146
16872W        W32003  15.452  12.990   1.284 -0.1716  0.1818  0.0633
16873W        W32004   7.747   6.830   5.200  0.0142 -0.3664  0.1013
16874W        W32005   5.786   5.753   3.294 -0.2537 -0.1261 -0.0766
16875W        W32006   4.571   3.299  16.429 -0.0972  0.0877 -0.2220
16876W        W32007  12.777   6.074   4.636 -0.1210  0.0590  0.0596
16877W        W32008  14.961  16.220  11.046  0.0824 -0.0098  0.2308
16878W        W32009   1.753   0.582  11.430  0.2274  0.1747 -0.0296
16879W        W32010   5.240  16.095  15.930  0.0171 -0.3484  0.0287
16880W        W32011  13.113   6.462   3.083  0.1508  0.0979 -0.0058
16881W        W32012   6.475  11.316   1.137  0.0280 -0.2146  0.0004
16882W        W32013   7.615   6.287  11.414  0.1118 -0.1364 -0.2614
16883W        W32014   5.684  12.067   4.225  0.0304  0.1473 -0.1912
16884W        W32015   9.509  17.236   2.335 -0.0440 -0.0016 -0.1859
16885W        W32016  11.207   2.815   3.723 -0.0104  0.0486  0.1740
16886W        W32017   9.860  12.359  12.875 -0.0004 -0.0879 -0.0188
16887W        W32018  13.039   5.101   4.763  0.1019  0.3319  0.0972
16888W        W32019   4.218   5.042  11.884  0.0976  0.0247 -0.3446
16889W        W32020   1.301   0.015   2.493 -0.0003 -0.1410 -0.0554
16890W        W32021   2.771  12.148   0.657  0.1942  0.1412  0.1400
16891W        W32022  12.499   7.508   5.207 -0.1097  0.0743  0.2376
16892W        W32023  11.147   0.833   0.815 -0.1125 -0.1081  0.1239
16893W        W32024   8.344  13.232  14.011  0.0942  0.0967 -0.0078
16894W        W32025  17.228   7.691  12.447  0.1215 -0.1970  0.0661
16895W        W32026  15.888   9.712  14.811 -0.0280  0.0003  0.0325
16896W        W32027   8.900  15.500  13.094  0.0380  0.1362 -0.3545
16897W        W32028  17.603   7.608  11.368  0.2207 -0.0073  0.0949
16898W        W32029   9.625  11.062   3.227 -0.3809  0.0513 -0.2292
16899W        W32030  13.495   1.195   1.369 -0.1109  0.0111 -0.1513
16900W        W32031   0.055  14.721   2.279  0.1789 -0.0501 -0.1710
16901W        W32032   0.282   4.209  12.783  0.1457 -0.1655 -0.0749
16902W        W32033  13.804  14.155   4.768 -0.1166  0.0520  0.1842
16903W        W32034   2.257   8.100   4.361 -0.1778 -0.0259  0.2125
16904W        W32035   0.406  15.984   2.644  0.0649 -0.1303  0.2330
16905W        W32036   4.452   7.631   4.425 -0.2857 -0.2960  0.1407
16906W        W32037   8.307   9.928  10.781  0.0927  0.2656 -0.1251
16907W        W32038   6.205   1.823   3.238  0.1032 -0.2543  0.0684
16908W        W32039   1.671   2.455  16.108  0.2575  0.2556 -0.1842
16909W        W32040   1.818  17.652  11.974  0.2495  0.1448 -0.1052
16910W        W32041  13.709   0.035  13.561  0.2165 -0.0935 -0.1911
16911W        W32042   1.431   4.266   4.766 -0.1386 -0.2150 -0.1314
16912W        W32043   2.690   9.866  12.237  0.4376 -0.0622 -0.1328
16913W        W32044  11.891   0.528  14.857 -0.1258  0.1826 -0.0333
16914W        W32045   6.708  16.470   4.174  0.2037  0.0696 -0.1385
16915W        W32046   6.184   8.109  13.800  0.1770 -0.0131 -0.0100
16916W        W32047   7.126  17.483   2.745  0.4485 -0.0649  0.1722
16917W        W32048   5.565   7.106   0.345 -0.1088  0.2235 -0.1629
16918W        W32049   2.824  10.746   4.369  0.2794 -0.4295 -0.1709
16919W        W32050  17.144  17.135  14.120 -0.2705 -0.0550  0.0256
16920W        W32051  14.009  13.233  10.720  0.1148  0.0320 -0.1441
16921W        W32052   3.971  12.410  14.712 -0.2359  0.1862 -0.0914
16922W        W32053   0.199  17.029  12.988  0.0299 -0.1397  0.1339
16923W        W32054  16.346  11.763   0.538 -0.1415  0.0625 -0.0677
16924W        W32055   0.974   8.252   1.690  0.1678  0.0572 -0.0430
16925W        W32056  12.413   2.395   3.248  0.4483  0.2816  0.1080
16926W        W32057   4.690   7.248   3.216  0.0332  0.1539  0.0438
16927W        W32058   2.675   6.544   1.145  0.2297  0.0605  0.1043
16928W        W32059   9.814   3.539  11.163 -0.1691  0.2418 -0.0076
16929W        W32060   3.715   9.743   0.652 -0.2259  0.3393  0.2501
16930W        W32061   3.093  14.572   2.864 -0.0774  0.0140  0.1191
16931W        W32062   7.457   8.904   1.566  0.2300  0.0954 -0.1385
16932W        W32063   5.655  16.396  14.684 -0.1728 -0.0453  0.0560
16933W        W32064  14.756   7.033  14.979  0.4287  0.1092  0.0247
16934W        W32065  12.112  11.268   2.099 -0.0933 -0.1057 -0.3846
16935W        W32066  16.622  16.577   6.543 -0.0369 -0.0387 -0.0996
16936W        W32067  12.966  15.148  16.395  0.1233  0.3961  0.1805
16937W        W32068   1.146   5.667   5.019  0.1780  0.0909 -0.0032
16938W        W32069   2.794  12.546  13.965 -0.2564 -0.1691  0.1243
16939W        W32070   8.647  12.140   5.355  0.2058  0.0619 -0.4379
16940W        W32071  15.719   1.015   1.102 -0.1594 -0.1721  0.1729
16941W        W32072   1.984   7.787  11.366 -0.1056  0.1571 -0.1195
16942W        W32073  13.404  16.704   3.954  0.0493  0.0075  0.0958
16943W        W32074   8.706   3.113  11.335  0.1849  0.0065 -0.0132
16944W        W32075  15.292  10.122   1.802 -0.0445 -0.0728  0.0360
16945W        W32076  13.131   8.841  15.672 -0.2130 -0.0533  0.2055
16946W        W32077   5.222   3.516   0.081  0.2468  0.0138  0.1331
16947W        W32078  14.996  17.448   1.470  0.0067 -0.0400 -0.1364
16948W        W32079  12.411   1.867  16.522 -0.2667 -0.1965 -0.3219
16949W        W32080   9.865   7.131  15.110 -0.0391 -0.5246  0.1785
16950W        W32081   4.298  17.093   2.618  0.0037  0.2169  0.0107
16951W        W32082  11.582   3.043   1.487 -0.1631 -0.0630 -0.1516
16952W        W32083   8.112   4.878  11.635 -0.1012 -0.2948  0.0972
16953W        W32084  15.705   4.463   4.636  0.0233 -0.2253 -0.0768
16954W        W32085   2.451   8.450   1.240 -0.1468 -0.0249 -0.1094
16955W        W32086   3.983   0.956  12.793  0.1633  0.0393 -0.1909
16956W        W32087  11.301  14.870  14.962  0.2793 -0.1489  0.0203
16957W        W32088  16.755   3.905   0.968 -0.1618  0.1068 -0.0379
16958W        W32089   6.739   3.908   0.427 -0.0017 -0.0196 -0.0843
16959W        W32090   2.571   5.791  12.317  0.2764 -0.1063  0.0916
16960W        W32091  16.381  14.256  15.161 -0.0477 -0.2695 -0.0807
16961W        W32092   4.461   9.454  12.141 -0.1247 -0.0777  0.1118
16962W        W32093   9.928   8.669   0.348  0.1326 -0.1008 -0.2961
16963W        W32094   2.906   2.854  13.143  0.1375  0.0254  0.1379
16964W        W32095  17.305   5.964  11.186  0.0906  0.1864  0.0280
16965W        W32096  15.950   8.230   0.453 -0.6349  0.0484  0.2310
16966W        W32097   5.952   8.913  10.205 -0.0781 -0.0389  0.0507
16967W        W32098  15.072  17.457   2.957 -0.1223 -0.1260 -0.0811
16968W        W32099   7.614  12.103   5.419 -0.2541  0.1123  0.0129
16969W        W32100   3.857   6.502  14.583 -0.0719 -0.2269 -0.0776
16970W        W32101   3.990   8.102   2.285 -0.0818 -0.1266  0.0771
16971W        W32102   0.763  12.516   1.649  0.3000  0.1880  0.3228
16972W        W32103  17.187  14.812   5.539  0.0909 -0.0422  0.0795
16973W        W32104   6.501  13.932   1.289  0.0631  0.3722 -0.1152
16974W        W32105   0.385   5.051   3.437 -0.0407 -0.2506 -0.2136
16975W        W32106  15.792  17.593   4.727  0.1404 -0.0998  0.1578
16976W        W32107   9.088   5.258  12.303 -0.2594  0.1003  0.0822
16977W        W32108   9.445   0.971  13.050 -0.1161 -0.3277 -0.0457
16978W        W32109  16.651  16.522   1.932 -0.1508 -0.0432 -0.2404
16979W        W32110  11.860  16.762  11.180 -0.1126  0.2322 -0.1988
16980W        W32111   9.524   7.849  12.774 -0.4254  0.0912 -0.1889
16981W        W32112  14.329  10.976  12.289 -0.1452  0.3129 -0.0021
16982W        W32113   7.880   3.574   2.750  0.2937 -0.1098  0.0997
16983W        W32114  12.659   5.884  14.142 -0.0682 -0.0455  0.2031
16984W        W32115   4.822  16.508  14.232 -0.1140 -0.0075 -0.2165
16985W        W32116  10.614  17.221   5.185 -0.0177 -0.1088  0.0592
16986W        W32117  11.299   5.580  16.223  0.0070 -0.0531 -0.3004
16987W        W32118  15.336   4.882  12.336  0.1674  0.0774  0.2026
16988W        W32119   4.728   8.223   1.383 -0.3045  0.1247 -0.0262
16989W        W32120   1.409   2.466  10.741 -0.2525  0.0432 -0.1000
16990W        W32121  13.342  17.029   2.080 -0.1288  0.0902 -0.0896
16991W        W32122  12.994  13.765  14.857  0.0194  0.4459 -0.2923
16992W        W32123  11.444   0.256  14.788 -0.1252 -0.1014 -0.0571
16993W        W32124   4.557  12.419   0.269 -0.0467  0.0449 -0.1536
16994W        W32125  15.734   0.373   5.052  0.1389 -0.0963  0.0312
16995W        W32126   5.625  14.841   4.527  0.0898  0.1614 -0.1402
16996W        W32127  10.776   5.694   1.824  0.0308 -0.0645  0.0247
16997W        W32128  16.102   3.704  11.611  0.1940 -0.1742  0.0870
16998W        W32129   8.445  13.740   3.122  0.2011  0.0482  0.1303
16999W        W32130  17.580  10.236   5.323  0.1837 -0.1475  0.3284
17000W        W32131  11.597   1.849   4.686  0.1178 -0.3253 -0.1160
17001W        W32132   1.298  17.000  12.080 -0.1548  0.1523 -0.1333
17002W        W32133  14.074  15.045  12.920  0.2020  0.0299 -0.0278
17003W        W32134   1.231   5.298   2.854  0.0411 -0.2221 -0.1204
17004W        W32135  16.527  10.206  11.375 -0.3045  0.0708  0.1999
17005W        W32136  12.063   6.976   1.239 -0.1967  0.1963  0.1811
17006W        W32137   1.708  17.763   0.828 -0.0073  0.1239  0.0305
17007W        W32138   5.231   5.912  11.485 -0.3336  0.1045  0.2720
17008W        W32139   8.408   1.068   1.306 -0.2841 -0.1168  0.2341
17009W        W32140   1.935  16.812   0.180 -0.0646 -0.0884 -0.0573
17010W        W32141  12.398  16.072   3.054  0.2653 -0.0504  0.0226
17011W        W32142  12.157  13.178   0.960 -0.1875  0.0407 -0.1512
17012W        W32143  10.574  12.413  11.413  0.0442  0.1795  0.1047
17013W        W32144   9.316   8.617  12.427 -0.0984 -0.1333  0.0913
17014W        W32145   3.170   7.395  16.075  0.0272  0.1292  0.2089
17015W        W32146  12.122   7.248   4.976 -0.0411 -0.1766 -0.3189
17016W        W32147  11.841  12.491   1.233  0.2097 -0.1960 -0.2613
17017W        W32148   1.344   4.707   3.681 -0.0957  0.0443 -0.1233
17018W        W32149   5.667  11.551  12.813  0.1092 -0.1235  0.1411
17019W        W32150  16.837   9.909   5.741  0.0849  0.0020 -0.1043
17020W        W32151   9.041  16.575  15.390 -0.1923  0.2657  0.0556
17021W        W32152  16.139   2.035  13.071  0.3077  0.2142 -0.0276
17022W        W32153   5.246   7.564   2.046 -0.0115  0.0670  0.1818
17023W        W32154   8.505   5.572   1.741 -0.0077  0.0661  0.4716
17024W        W32155   0.700  13.849   4.178  0.1626  0.2327  0.1628
17025W        W32156   2.149   1.932  13.291  0.1089  0.0162  0.1368
17026W        W32157  14.587   6.919  16.563  0.0449  0.1564  0.1254
17027W        W32158  10.784   2.430  14.292  0.0577  0.0880 -0.4171
17028W        W32159   3.547  15.376  16.052 -0.1288 -0.1493  0.1504
17029W        W32160   9.085  10.375   5.622 -0.1282  0.3751  0.1203
17030W        W32161   6.915   3.138  16.235  0.3001  0.1524  0.1604
17031W        W32162  17.259  17.005  15.814 -0.2883 -0.3646 -0.2530
17032W        W32163   5.808   5.265   5.106  0.2758  0.0719  0.1248
17033W        W32164  11.929   5.567  15.527  0.0728 -0.3755 -0.1644
17034W        W32165   3.971  12.240   2.242  0.0261 -0.0467 -0.0807
17035W        W32166   0.819  16.110   2.284 -0.0533  0.1619 -0.1706
17036W        W32167  13.338   3.049   4.914  0.2261 -0.2177  0.2257
17037W        W32168   0.922  17.617  12.440  0.0716  0.0860 -0.0442
17038W        W32169  14.820  11.679  14.410 -0.1214  0.0840  0.3069
17039W        W32170   7.536   6.902  12.422  0.0588 -0.0856 -0.4238
17040W        W32171   4.068  10.882   5.265 -0.1553 -0.1149  0.0566
17041W        W32172   2.697  16.818   6.566 -0.0601 -0.2364  0.0755
17042W        W32173  12.497   3.828   3.195 -0.1824  0.3432  0.0919
17043W        W32174   0.050   8.804   0.288  0.2645 -0.1659  0.2830
17044W        W32175   0.496  12.672   3.506  0.2109  0.0976 -0.0894
17045W        W32176  14.641  16.876   5.626 -0.1872  0.0201 -0.0104
17046W        W32177   7.584   7.398  12.480  0.2901 -0.0099 -0.0047
17047W        W32178   0.792  14.291   5.896 -0.0974 -0.1607 -0.1913
17048W        W32179   1.346   5.029  13.234  0.2752  0.0007  0.1286
17049W        W32180   5.401  15.043   3.115 -0.0101  0.0041 -0.0106
17050W        W32181  11.567  15.102   4.182 -0.0283 -0.0063  0.1576
17051W        W32182   1.717  14.582  15.811 -0.1697 -0.0864  0.0570
17052W        W32183  12.629   0.173  14.582 -0.0533  0.0736 -0.4007
17053W        W32184  12.563  12.574   0.644 -0.1127  0.2255  0.1273
17054W        W32185   3.772   8.933   0.921 -0.3055  0.4627 -0.1667
17055W        W32186   8.847  13.837  14.773 -0.2495  0.2094  0.0009
17056W        W32187   2.046   8.253  10.983  0.0184 -0.0194 -0.1853
17057W        W32188   6.649  14.350   6.230 -0.0966 -0.1018 -0.0109
17058W        W32189   0.061   3.834  14.522 -0.0366  0.1137 -0.0623
17059W        W32190   6.100   4.687   3.268 -0.1156  0.1412 -0.1452
17060W        W32191  16.061   2.601   5.653  0.0138 -0.0445 -0.0562
17061W        W32192   7.273   3.377   5.022  0.0943  0.0687  0.0484
17062W        W32193   3.780  17.368   5.082  0.0471  0.2197 -0.0428
17063W        W32194  14.184   6.813  12.181  0.1292  0.0021  0.0696
17064W        W32195   0.475  14.928   1.819  0.2746  0.2785 -0.3298
17065W        W32196   7.266   5.293  13.991  0.1610  0.0628 -0.0922
17066W        W32197  14.617   7.400  14.023 -0.0044  0.0508 -0.1309
17067W        W32198   5.942  11.897  11.522  0.0481  0.1624  0.1685
17068W        W32199   7.456  14.968   0.893 -0.0362 -0.2648  0.2418
17069W        W32200  14.288  13.892  13.968  0.1016  0.0109 -0.2567
17070W        W32201   9.731   9.369  15.887 -0.1597  0.0315 -0.1479
17071W        W32202  12.190  12.448   1.585 -0.1070  0.0572  0.3500
17072W        W32203  10.574   1.475  15.057 -0.1959  0.0665  0.0254
17073W        W32204   9.031  17.035   1.785  0.0347  0.2749 -0.3344
17074W        W32205   3.509   7.469   3.905 -0.2125  0.1981 -0.2211
17075W        W32206   4.300   9.051  16.450 -0.2733  0.0568  0.2887
17076W        W32207   1.466  17.337   6.886  0.1728  0.1003 -0.1842
17077W        W32208   5.044   3.856  15.733 -0.0121 -0.0512 -0.0967
17078W        W32209   0.788  16.889  12.833  0.2042 -0.0440 -0.2487
17079W        W32210   9.432   2.132   3.876 -0.3375  0.0337 -0.0308
17080W        W32211   2.916  15.344  13.374  0.2066  0.1172  0.1669
17081W        W32212  15.135   7.763  16.194  0.0553  0.5321  0.0006
17082W        W32213  11.489   5.066  14.656 -0.0160 -0.2862 -0.1523
17083W        W32214   2.766   6.868  13.348 -0.1846  0.1465 -0.2263
17084W        W32215   1.637  11.288   2.570 -0.0701  0.0464 -0.0750
17085W        W32216  14.084  10.071  12.079  0.1732 -0.1600  0.0722
17086W        W32217   8.758  16.958  16.384  0.0113 -0.0352 -0.0604
17087W        W32218  13.797   6.670   2.435  0.4501  0.2123 -0.0429
17088W        W32219  11.776  12.903   3.320 -0.1516 -0.2650 -0.2464
17089W        W32220   3.111   3.491  13.363 -0.1435 -0.2173 -0.3721
17090W        W32221  10.532   2.977   3.592 -0.1413 -0.3349  0.0088
17091W        W32222  13.695   4.184   2.990  0.1933  0.2517 -0.1465
17092W        W32223  14.814  16.691   5.090  0.2830  0.0509 -0.1245
17093W        W32224   4.567   2.896  12.911 -0.1342 -0.0351 -0.1172
17094W        W32225   4.694   7.745   5.355  0.0462  0.1175 -0.0205
17095W        W32226   8.504  10.403   5.735 -0.1135 -0.1774 -0.0319
17096W        W32227  15.787  12.162  16.495 -0.0531  0.2305  0.0663
17097W        W32228  11.910  11.010  15.541 -0.0393  0.2179  0.0419
17098W        W32229  13.448   0.177  12.283  0.1475  0.0376  0.0546
17099W        W32230   2.642  15.816   1.161 -0.0290  0.0376  0.0548
17100W        W32231   0.808  11.449   3.759 -0.0869  0.0006 -0.1038
17101W        W32232   2.123   3.745   4.933 -0.0357  0.3166  0.0685
17102W        W32233   4.021  15.219  12.987  0.2198  0.3137 -0.0045
17103W        W32234   5.779  16.327   1.352 -0.3786 -0.0121  0.1028
17104W        W32235   0.050   0.723   2.590  0.0712  0.2957 -0.2386
17105W        W32236   7.893  15.711   1.299 -0.1248 -0.2114 -0.3629
17106W        W32237  11.650  17.838  12.366  0.3771 -0.1125 -0.0790
17107W        W32238   0.933   3.293  11.551 -0.0461  0.0288 -0.0738
17108W        W32239  10.214   3.195  15.908  0.0151  0.2437  0.0416
17109W        W32240   5.514   5.000   0.205 -0.0830  0.0358  0.0268
17110W        W32241   3.700   5.216   5.722 -0.3219  0.0540  0.3881
17111W        W32242   1.154  12.130   3.386  0.0404  0.0992  0.0153
17112W        W32243   4.049  17.327   3.625 -0.0830 -0.0041 -0.0218
17113W        W32244  11.123   2.800   0.643  0.1957  0.2683  0.2404
17114W        W32245   9.408  10.672  15.316  0.2584  0.2790 -0.0335
17115W        W32246  12.458   2.482  12.138  0.0259 -0.0133  0.0425
17116W        W32247  13.073   0.791   0.001  0.0215  0.0456 -0.1597
17117W        W32248  17.272  10.423   0.963 -0.3822  0.0713  0.0154
17118W        W32249   2.683   5.294  16.547 -0.2147 -0.0591  0.0746
17119W        W32250  11.600  15.651  11.662 -0.0043  0.1230  0.3503
17120W        W32251   9.488   5.216  11.935 -0.2322  0.0758  0.0798
17121W        W32252  15.509   6.458   3.312 -0.0422  0.1981  0.0111
17122W        W32253   6.258   0.194  15.228  0.0759  0.0919 -0.2273
17123W        W32254  17.485   5.421  11.200 -0.0385  0.3696  0.0700
17124W        W32255  14.636   1.493   4.064 -0.2611 -0.1458  0.1817
17125W        W32256  13.431   6.256  15.389 -0.2478  0.0422  0.3398
17126W        W32257  16.550  17.234  13.356 -0.1220  0.3913 -0.0245
17127W        W32258  16.220   3.349   1.871 -0.0472 -0.3643 -0.0520
17128W        W32259  14.537   6.717  14.512 -0.2409  0.2776  0.2753
17129W        W32260   7.822  16.149  13.732  0.0996 -0.1667 -0.4282
17130W        W32261   9.986   2.768  16.235  0.1208 -0.1628 -0.0536
17131W        W32262   6.477   5.637   5.317 -0.0960  0.0845 -0.1146
17132W        W32263  12.097   2.884  11.898  0.1205  0.1864  0.0636
17133W        W32264  14.895   8.618   1.303 -0.0106  0.2900 -0.0186
17134W        W32265   5.191   6.494   0.654 -0.1558  0.0719 -0.1377
17135W        W32266   2.017  10.377  13.147 -0.2264 -0.1687 -0.0332
17136W        W32267  11.778   4.565  14.609 -0.2922 -0.1649  0.3561
17137W        W32268   0.649  17.829  16.561  0.2099  0.1370  0.1737
17138W        W32269  16.919   9.768   5.114  0.2675  0.0415  0.2942
17139W        W32270  15.758   8.564  13.301 -0.1777  0.0629  0.1531
17140W        W32271   4.957   0.193   2.549  0.2364 -0.2278 -0.0840
17141W        W32272   3.139  16.343   0.781 -0.0205  0.0911  0.0506
17142W        W32273  16.335   2.033  15.097 -0.1807  0.4199  0.0876
17143W        W32274   3.685  13.796  14.354 -0.2323  0.1327  0.1138
17144W        W32275   6.297   9.934  14.829 -0.0946 -0.0564  0.1416
17145W        W32276   4.008   1.193  13.616 -0.1160  0.2232 -0.1870
17146W        W32277  13.306  12.074  16.124  0.0353 -0.5176 -0.4681
17147W        W32278   6.727  15.685  13.687 -0.0800  0.0145  0.3014
17148W        W32279  11.916   7.350   5.965 -0.1852  0.1547 -0.0940
17149W        W32280   3.668  16.586   4.655  0.1739 -0.1913 -0.1312
17150W        W32281   4.100  13.635   4.017  0.2222 -0.2469 -0.1680
17151W        W32282  13.099  12.346   5.429 -0.2780  0.5328 -0.0513
17152W        W32283   7.104  13.924   2.415  0.0685 -0.1693  0.0017
17153W        W32284   7.005  15.301   0.872  0.0504 -0.1474 -0.0028
17154W        W32285   8.389   4.861   4.376  0.0935  0.0409  0.1877
17155W        W32286   4.333   4.351  13.949  0.0959 -0.2299  0.0203
17156W        W32287   1.756  15.268   1.020 -0.2269  0.2788 -0.0600
17157W        W32288   5.860  12.789  15.961  0.0092  0.3299 -0.0315
17158W        W32289  14.874   6.173  15.053  0.2304  0.3377 -0.0733
17159W        W32290   6.872   1.765  13.630  0.0201  0.0934  0.0137
17160W        W32291  14.012   0.175  14.596 -0.2582 -0.0203 -0.0447
17161W        W32292  13.864   9.522  15.915 -0.0396  0.1009 -0.2728
17162W        W32293  14.752  17.427  14.239 -0.1060 -0.1152  0.0787
17163W        W32294   3.919  14.116   3.096 -0.2044 -0.2356  0.2027
17164W        W32295  17.576   8.276   2.417 -0.0628  0.0953 -0.0255
17165W        W32296   3.929   1.270   1.917  0.1595  0.1220 -0.0370
17166W        W32297   0.198   4.659   5.098 -0.1004 -0.0609 -0.1005
17167W        W32298   4.694  14.406  16.098  0.1125  0.2369 -0.1916
17168W        W32299  12.206   2.292  10.766  0.1561  0.0695  0.2291
17169W        W32300   6.299   6.260   0.303 -0.1598 -0.3488 -0.0151
17170W        W32301   1.372   6.741   4.747 -0.0450  0.3862  0.0093
17171W        W32302   4.027  11.572   1.766  0.0077  0.1277 -0.2242
17172W        W32303  12.768   1.805   0.871  0.0251 -0.1325 -0.0985
17173W        W32304  13.416  17.867   1.671  0.3989  0.1595  0.0190
17174W        W32305   2.070   2.934  14.762 -0.0132 -0.1210 -0.1368
17175W        W32306   9.765  15.826   3.897 -0.0476  0.1390 -0.2213
17176W        W32307  13.593   9.232   5.142 -0.0278 -0.0742  0.0251
17177W        W32308  12.699  14.438  10.229 -0.0878  0.0351 -0.0420
17178W        W32309  12.603  11.467  11.620  0.2987  0.4120 -0.0240
17179W        W32310   3.900   7.310  11.749 -0.0785 -0.0124 -0.1343
17180W        W32311   3.547   8.584  15.661 -0.2219 -0.3698  0.1061
17181W        W32312  13.879  16.903   4.100  0.0354  0.2566  0.1043
17182W        W32313  17.117   9.473  10.493 -0.2511  0.0165 -0.0952
17183W        W32314   1.676  14.538  15.314  0.0161  0.1971 -0.2066
17184W        W32315  11.034   5.908  15.197 -0.1401  0.3388  0.2645
17185W        W32316  17.019   8.549   1.762  0.1684  0.4705 -0.2444
17186W        W32317  15.195   6.368   6.216  0.1435  0.1444 -0.1658
17187W        W32318  17.295  13.610   3.190 -0.1359 -0.1196 -0.1139
17188W        W32319   3.111   0.899  12.563 -0.3223 -0.1426 -0.0106
17189W        W32320   3.054   9.836  11.935 -0.1112  0.6345 -0.0589
17190W        W32321  10.687   0.098  11.188 -0.0373 -0.0246 -0.1410
17191W        W32322   3.971   7.520   4.139 -0.1561  0.1141 -0.2108
17192W        W32323   0.521  10.651   0.306 -0.1255  0.0696  0.1910
17193W        W32324  11.883  11.533  15.547  0.0551  0.0199 -0.1089
17194W        W32325   4.960  10.516  14.808  0.1616 -0.0367 -0.0652
17195W        W32326  15.289   8.586  11.866 -0.1562 -0.2519 -0.0039
17196W        W32327  12.040  12.262  12.202  0.0195  0.0416 -0.0827
17197W        W32328  13.452  14.179   2.362  0.2480 -0.0491  0.2796
17198W        W32329   2.143  16.464   0.777  0.0796  0.0883  0.1287
17199W        W32330  15.523   3.919  16.703  0.0910  0.0387  0.0262
17200W        W32331   3.666  13.036  15.972  0.3529  0.0953  0.2529
17201W        W32332  10.334   7.225   3.735 -0.0653  0.0127  0.0738
17202W        W32333   0.680   1.609  15.035 -0.1957  0.2320 -0.1281
17203W        W32334  10.762  17.272  16.248  0.0084 -0.1594  0.1848
17204W        W32335   4.457  15.514   5.971  0.2521 -0.2060  0.1202
17205W        W32336   1.100   9.401   3.395  0.0002 -0.1771 -0.2938
17206W        W32337  14.940  11.866  13.589 -0.0163  0.1025 -0.1005
17207W        W32338   4.354   3.467  14.189 -0.1445 -0.0675 -0.0425
17208W        W32339   4.848  13.677   1.673 -0.2587  0.0545 -0.0240
17209W        W32340  10.938   4.553   4.643 -0.3696 -0.0171 -0.2954
17210W        W32341  10.426   4.324   3.415  0.1038  0.3084  0.1125
17211W        W32342   5.468  10.447   1.407  0.0678  0.0028  0.1000
17212W        W32343   8.024   9.049   2.154 -0.0051  0.0077  0.1548
17213W        W32344  13.396  10.686   3.803  0.1453  0.1547 -0.1017
17214W        W32345  10.038   6.908  11.550 -0.0383  0.0461 -0.3079
17215W        W32346  15.319  11.969   5.408  0.4581 -0.1442  0.0545
17216W        W32347   1.152  17.641   1.606  0.0449 -0.0457  0.2317
17217W        W32348   1.285   3.869   3.323 -0.2118  0.1691  0.0479
17218W        W32349  12.884  16.850   2.883  0.2235  0.1243 -0.0048
17219W        W32350   1.462   2.257   0.790 -0.1019  0.2448 -0.0596
17220W        W32351   2.139   5.045   3.758 -0.1972 -0.2535 -0.0640
17221W        W32352  15.479   9.035  11.480  0.1536  0.2336 -0.0993
17222W        W32353  14.869   6.405   0.163  0.0378  0.0873  0.1763
17223W        W32354   9.204   0.790  14.084 -0.0474  0.2866  0.3043
17224W        W32355  12.040  12.514  14.441 -0.4580  0.1193 -0.1119
17225W        W32356  17.550  13.119   5.308 -0.2299 -0.2251 -0.0669
17226W        W32357  16.298   0.129  14.846  0.3722  0.2297 -0.1326
17227W        W32358   7.860   7.412  15.556  0.3754  0.1419 -0.0861
17228W        W32359   9.014  16.012  15.446  0.2772  0.0889 -0.0558
17229W        W32360   3.435   9.487   3.441 -0.0498  0.1925  0.0742
17230W        W32361   5.755   4.319   5.471  0.1088  0.0388 -0.2284
17231W        W32362   3.714   9.554  11.159  0.0980 -0.1854 -0.0458
17232W        W32363   8.409  12.444  12.875 -0.2485 -0.0258  0.1869
17233W        W32364  14.171   7.263  10.068  0.0518 -0.0453 -0.1117
17234W        W32365  13.333   5.769   5.043  0.1508 -0.3515  0.0794
17235W        W32366   5.161  13.786   0.403  0.1367  0.0514 -0.2705
17236W        W32367   6.750   7.459   4.940  0.1833 -0.0610 -0.0150
17237W        W32368   4.554   8.544   1.915  0.1041  0.2532  0.3214
17238W        W32369   9.420  13.866   4.494  0.2033  0.0390  0.1570
17239W        W32370   7.714   9.053   0.553  0.1963 -0.3019  0.0332
17240W        W32371  16.608   8.704   1.536 -0.0727 -0.0659  0.0470
17241W        W32372   5.570   9.039   1.940 -0.0097  0.0716 -0.2265
17242W        W32373  13.843   6.961  13.275 -0.0698 -0.2171 -0.1088
17243W        W32374   7.925  15.295  16.324 -0.0674 -0.0447  0.0943
17244W        W32375   5.808  13.821  11.903  0.0107 -0.1904  0.2183
17245W        W32376   1.352   8.232   2.512 -0.2467  0.0645  0.0636
17246W        W32377   9.187   4.911  11.056  0.1562  0.0157  0.0849
17247W        W32378   1.663  16.081  13.047  0.2897 -0.0664  0.0605
17248W        W32379  13.104  16.031  11.433 -0.0664  0.2962  0.0958
17249W        W32380  12.372   0.803   0.684  0.0175  0.2363 -0.4501
17250W        W32381  13.110   9.853  12.189  0.0621  0.1577  0.3021
17251W        W32382  13.398   0.377   5.895 -0.2146  0.0749 -0.2745
17252W        W32383  15.492  17.719   4.349 -0.1744 -0.2307 -0.3523
17253W        W32384   5.527   3.755  15.502 -0.0173  0.2902  0.2488
17254W        W32385   3.817   9.069   3.343 -0.0968 -0.1575 -0.2547
17255W        W32386   0.400   5.787  12.646 -0.1755  0.0847  0.0483
17256W        W32387   3.679  13.097  13.854 -0.2630  0.1760 -0.0875
17257W        W32388  10.270   2.311  14.660  0.0410 -0.0001  0.0053
17258W        W32389   3.738   6.294   0.241  0.0524 -0.0119  0.1191
17259W        W32390   5.992  15.777  11.897  0.0936 -0.0952 -0.1100
17260W        W32391   1.893  13.173  12.389 -0.0429 -0.2012  0.3403
17261W        W32392   7.501   6.770   0.844  0.1130  0.2450 -0.3249
17262W        W32393   5.341   3.138  14.625 -0.0978 -0.1282 -0.0547
17263W        W32394   9.480  17.565   3.504  0.1305  0.0922  0.1462
17264W        W32395  17.589  15.958  13.284 -0.0676  0.0946  0.1227
17265W        W32396   1.547   3.754  12.397  0.2590 -0.0618 -0.0069
17266W        W32397   5.485  14.093   4.741 -0.0082 -0.1080 -0.2851
17267W        W32398   7.322   8.457  10.811  0.1619  0.1203  0.0872
17268W        W32399  15.546   9.246  10.556  0.0940  0.0787  0.0493
17269W        W32400  13.915  14.064  11.241 -0.2982 -0.0056 -0.0220
17270W        W32401   0.877   5.143   1.526 -0.2352  0.0070 -0.1335
17271W        W32402  13.421   7.285  15.330  0.0331 -0.1585  0.0725
17272W        W32403   3.168   4.578  13.318  0.0249 -0.1066  0.0051
17273W        W32404   0.141  13.277   5.288  0.4419  0.2522 -0.0691
17274W        W32405   9.516   7.602   1.276 -0.2539  0.0368  0.4225
17275W        W32406   6.137  11.634  16.328  0.1136  0.0270  0.1231
17276W        W32407   5.878   9.346   2.179  0.0642  0.3103 -0.2250
17277W        W32408  10.951   3.570  15.191 -0.1398  0.0128 -0.0328
17278W        W32409   6.358   4.024  16.399 -0.5752  0.3801 -0.1805
17279W        W32410  11.242  17.814  11.574  0.0001 -0.2392 -0.0215
17280W        W32411   3.285   0.744   5.080  0.0588 -0.1842 -0.0467
17281W        W32412   4.626   1.793   2.121 -0.3434 -0.3979  0.0443
17282W        W32413  11.757  14.005  12.024 -0.0992  0.2055  0.0607
17283W        W32414  12.251   2.572  15.487 -0.0959 -0.1937 -0.0503
17284W        W32415   9.287   6.202  14.459  0.2103  0.2100 -0.0508
17285W        W32416  12.702  12.959   1.712  0.1610  0.1497 -0.3336
17286W        W32417   0.996  13.576   6.582 -0.0250  0.1282  0.0976
17287W        W32418   9.262   5.413  13.196  0.4825 -0.0547 -0.1971
17288W        W32419  15.213   5.566  10.173 -0.2376  0.0925 -0.0178
17289W        W32420  11.836   1.117  16.210 -0.2458  0.1642  0.2446
17290W        W32421   4.497  16.263  14.569  0.1702  0.0987 -0.1078
17291W        W32422   8.103   5.624  13.757  0.1069 -0.1675  0.0134
17292W        W32423   2.811   0.328  14.477  0.2089  0.0473 -0.1062
17293W        W32424   2.161   0.772   5.648  0.0121  0.1055 -0.2260
17294W        W32425   4.210  15.888  13.140  0.0643 -0.1312 -0.0824
17295W        W32426   8.836  14.272   4.034 -0.0604 -0.0065  0.1099
17296W        W32427   4.557   6.213   0.944 -0.2778  0.0912 -0.1079
17297W        W32428  13.154  17.611  11.762  0.1774  0.2938  0.1412
17298W        W32429   4.515   0.441   2.397  0.1697 -0.3760  0.0649
17299W        W32430   5.342   3.683   9.955  0.1097  0.2275 -0.2363
17300W        W32431   3.177   3.924  15.094 -0.0716 -0.0236 -0.0621
17301W        W32432   7.985   1.988  11.506 -0.1308 -0.0405  0.1607
17302W        W32433  14.670  14.259   1.333 -0.2281  0.2158  0.0789
17303W        W32434  17.656   2.043  14.629 -0.0095 -0.0712 -0.1399
17304W        W32435   7.427  15.829  13.530 -0.0938  0.0124  0.0080
17305W        W32436   4.789  15.156  14.618 -0.0734  0.1275  0.1984
17306W        W32437   2.004  15.554  12.726  0.0068 -0.0547 -0.2059
17307W        W32438  10.676  13.998   3.887 -0.0532  0.0804  0.1386
17308W        W32439   8.599  14.871  12.461 -0.1713 -0.1366  0.2154
17309W        W32440   1.767   9.947   3.884 -0.1140 -0.2412  0.1609
17310W        W32441  15.332  15.477  14.632  0.0795  0.2600  0.2015
17311W        W32442   6.730  11.730  14.719  0.0205 -0.1918  0.3826
17312W        W32443  10.487   2.461   9.913 -0.1255 -0.2267 -0.1935
17313W        W32444   2.291  16.473  16.695 -0.1891 -0.0187  0.0644
17314W        W32445   1.884  13.219   1.669  0.1632 -0.1483 -0.0480
17315W        W32446  12.467   4.302  15.357 -0.2497 -0.2864  0.3788
17316W        W32447  10.425   0.191   2.754  0.1319  0.0830 -0.0150
17317W        W32448   8.627   5.539  11.375 -0.0790  0.0434  0.2215
17318W        W32449  17.443  13.297   4.472 -0.0048  0.0427  0.3707
17319W        W32450  15.349  12.131  13.720  0.0178  0.1739 -0.0316
17320W        W32451  11.891  11.140   1.313  0.1532 -0.2639  0.1178
17321W        W32452  11.255   0.653  12.783  0.1008 -0.0923  0.1820
17322W        W32453   2.911   3.394   5.522  0.1021  0.3068  0.1109
17323W        W32454   5.696  11.470  11.349 -0.4151  0.2378 -0.0718
17324W        W32455   6.044  10.901  15.832  0.0633 -0.0471 -0.0633
17325W        W32456  10.387   5.904  15.997 -0.0276  0.1502  0.1325
17326W        W32457   2.771  12.580   4.118 -0.3287 -0.1792 -0.1897
17327W        W32458   2.740   3.027   3.116 -0.2903 -0.1176 -0.2474
17328W        W32459   5.684   1.817   4.213 -0.1283  0.0457 -0.1812
17329W        W32460   7.052   9.776  13.157  0.4768 -0.2607  0.0914
17330W        W32461  13.495   2.466   0.592 -0.0759  0.1331 -0.3071
17331W        W32462  15.048  15.267  12.780 -0.0530  0.2285  0.0062
17332W        W32463  10.736   9.184   0.366  0.0206  0.1050  0.0001
17333W        W32464   5.558  14.294  14.633 -0.2315 -0.1150 -0.0563
17334W        W32465  10.488  15.253  16.503  0.1751 -0.0446 -0.2176
17335W        W32466   3.601  14.839  16.081 -0.0641  0.0809  0.0351
17336W        W32467   9.884   4.940   5.028  0.0700 -0.1420  0.1740
17337W        W32468  15.052   3.547   3.770 -0.1901  0.0257 -0.2309
17338W        W32469   3.979  12.737   2.105 -0.1409 -0.1638 -0.0761
17339W        W32470   1.867  13.871  15.135 -0.0339  0.0174  0.0826
17340W        W32471   1.052   0.506   5.253 -0.0450  0.1723  0.2664
17341W        W32472  17.514  13.779  12.702  0.3519  0.0808 -0.1749
17342W        W32473  12.115   4.330  14.960 -0.1181  0.1522  0.0110
17343W        W32474   3.917   3.508  12.642 -0.0591 -0.0582 -0.3132
17344W        W32475  15.828   0.406   1.774  0.0004 -0.1074  0.0353
17345W        W32476   9.730   1.350  12.961  0.1463  0.2593  0.0735
17346W        W32477   7.601  12.117  11.097  0.0134 -0.2943 -0.0956
17347W        W32478  14.736  14.560   3.548  0.1457  0.1547  0.2170
17348W        W32479  10.534  10.205  12.628  0.0571 -0.0062 -0.0016
17349W        W32480  11.128  16.452  16.679 -0.1974  0.1373  0.3338
17350W        W32481  14.342   9.562  16.235 -0.0328 -0.2529 -0.0110
17351W        W32482   7.069   5.517  14.753  0.0507  0.1671 -0.0618
17352W        W32483   9.847   6.722   4.797 -0.3201 -0.1337 -0.0138
17353W        W32484   2.860  17.728  16.764 -0.0294  0.0069 -0.1419
17354W        W32485  15.805   5.726   0.579 -0.1082 -0.2276  0.3136
17355W        W32486   1.543   8.024   0.809 -0.2246 -0.2241 -0.0671
17356W        W32487   4.670   1.493   3.380 -0.1842  0.3250 -0.0996
17357W        W32488   4.324   6.176   4.937 -0.2164  0.1526  0.0590
17358W        W32489   5.084   1.189   1.570 -0.1712 -0.1739  0.3602
17359W        W32490   3.864  10.936  16.428 -0.0909  0.1300 -0.3451
17360W        W32491   4.890   2.609  11.240 -0.3271 -0.0106 -0.2521
17361W        W32492   0.655   2.892   2.613 -0.2183 -0.1400 -0.0853
17362W        W32493  16.523   8.898  12.296  0.2099  0.1485 -0.0853
17363W        W32494  15.896  13.046   5.232 -0.2793 -0.1396 -0.2390
17364W        W32495  15.857  16.782  12.984 -0.0696 -0.1369 -0.2709
17365W        W32496   5.692  12.887   5.607 -0.2633 -0.1370 -0.3555
17366W        W32497   8.485  13.207  11.258  0.0158 -0.0588  0.1300
17367W        W32498   4.928  15.410   0.394  0.1074  0.1241  0.0785
17368W        W32499  16.119   8.218   4.175 -0.1589 -0.3727 -0.3702
17369W        W32500  13.622  16.216   3.036 -0.6265 -0.2214 -0.1174
17370W        W32501  17.349  14.702   3.326  0.1696 -0.3551  0.0776
17371W        W32502   3.847  13.331   4.324  0.1154 -0.1629  0.0415
17372W        W32503   6.950  17.470  16.644 -0.0503 -0.0892 -0.3354
17373W        W32504   0.549  13.648  11.980  0.0052 -0.0561  0.0498
17374W        W32505   2.141   5.782  12.055 -0.1333  0.1203  0.0608
17375W        W32506   5.412  12.992  15.804 -0.0371  0.0978 -0.1535
17376W        W32507   7.857  12.948  11.905 -0.0849  0.0476 -0.2419
17377W        W32508   9.416   1.070  14.417 -0.1825  0.0554  0.0818
17378W        W32509  13.551   4.408   5.343 -0.1293  0.0475 -0.0845
17379W        W32510  12.618   3.076   4.151 -0.2061  0.2827  0.1742
17380W        W32511   9.575   8.857   5.905  0.1521 -0.0488 -0.0312
17381W        W32512  11.322   9.604   4.122 -0.2900  0.1456 -0.0948
17382W        W32513   3.542   8.165   4.542  0.0871 -0.1623 -0.3575
17383W        W32514  13.006   5.249  12.589 -0.0396 -0.2312 -0.2597
17384W        W32515   7.436   8.976  14.329  0.1609  0.1783  0.1802
17385W        W32516  16.062  17.188  16.703 -0.1564  0.1910 -0.0696
17386W        W32517  17.142  11.565   2.954  0.1891  0.1180  0.2794
17387W        W32518   9.208   1.353  12.873  0.1100 -0.0446  0.0224
17388W        W32519   4.164  16.459   4.831 -0.0282 -0.1117 -0.4715
17389W        W32520  11.210   7.906  11.393 -0.1976  0.0591 -0.3199
17390W        W32521  15.014  15.477   1.533 -0.1362 -0.1165  0.3031
17391W        W32522  14.190  13.442   1.370 -0.1608 -0.0147 -0.1312
17392W        W32523  13.045   9.348  14.738 -0.6322  0.2762 -0.3951
17393W        W32524   1.192  14.527   0.903 -0.2828  0.2365 -0.2525
17394W        W32525   0.950  13.431   5.751 -0.2977  0.3580 -0.0097
17395W        W32526   1.131   9.062   3.014 -0.1935  0.1308  0.0733
17396W        W32527   9.039  14.582   5.527 -0.2542 -0.2890  0.0848
17397W        W32528  14.039   6.871   1.950  0.2041  0.1443 -0.3160
17398W        W32529  15.530   7.267   2.008  0.1938 -0.2852 -0.0573
17399W        W32530  14.039   1.136  13.304  0.1215 -0.4210 -0.1530
17400W        W32531  12.913   0.635  14.813 -0.0246  0.0354  0.1744
17401W        W32532   3.410  12.736   5.516  0.3806 -0.0619 -0.2786
17402W        W32533   4.880  11.290   1.874  0.1835 -0.0448 -0.1116
17403W        W32534  15.758   6.071  14.122 -0.2299  0.0431 -0.0861
17404W        W32535   9.683  14.698  16.431  0.0241 -0.2053  0.3868
17405W        W32536   1.023  17.729   4.702 -0.0263  0.2983 -0.1734
17406W        W32537  14.305  17.462  12.023  0.2250  0.3182 -0.2261
17407W        W32538   5.480  15.492  11.241 -0.1620 -0.1953 -0.1115
17408W        W32539   1.019  14.130  14.226  0.2348 -0.0200  0.2544
17409W        W32540  10.668  15.363   5.343  0.1340  0.1895 -0.1212
17410W        W32541   2.425   8.746   3.103  0.0268  0.1587  0.0971
17411W        W32542   9.096   7.573   5.538  0.1452 -0.0490 -0.1395
17412W        W32543  14.962  14.539   1.670 -0.4113  0.0154 -0.1493
17413W        W32544   2.263   8.868  16.632 -0.3000 -0.1034  0.0402
17414W        W32545   4.077  16.912   3.376  0.3151  0.0193 -0.1921
17415W        W32546   1.935   5.871   3.878  0.0770  0.2620 -0.1599
17416W        W32547  10.029   2.158   1.139  0.0718 -0.0934 -0.1371
17417W        W32548   5.506  11.704  16.354 -0.2431 -0.1462  0.3091
17418W        W32549  17.120  17.666   1.637 -0.3631  0.0901 -0.2876
17419W        W32550  16.957   7.182   0.200 -0.3469  0.1132 -0.2041
17420W        W32551  11.434   1.273  12.742  0.0605  0.0767  0.1727
17421W        W32552  11.429  15.714  15.053 -0.1581  0.1006 -0.0513
17422W        W32553  17.821   1.932  15.881 -0.2202 -0.1701 -0.0158
17423W        W32554   7.835  16.326  11.793 -0.1266 -0.0870 -0.0620
17424W        W32555  12.305   3.957  13.687  0.0147 -0.1077  0.1432
17425W        W32556  11.033   3.496   3.106  0.0351 -0.4046 -0.0441
17426W        W32557  15.747  11.484   3.335 -0.0497 -0.1664 -0.0317
17427W        W32558   9.087   8.244  12.801 -0.2131 -0.1246  0.0652
17428W        W32559   7.131   7.456  15.299 -0.0084 -0.2269  0.0411
17429W        W32560  15.530   3.083   5.655  0.3312 -0.0005  0.1444
17430W        W32561   5.390  14.426   2.472 -0.0071 -0.2414  0.0196
17431W        W32562  16.283  13.698   1.285  0.1703 -0.0300 -0.0356
17432W        W32563   9.903   2.312   3.834  0.1018 -0.1514 -0.0104
17433W        W32564   5.210   6.043   1.792  0.2408 -0.0266  0.4234
17434W        W32565  12.610  15.666   5.482 -0.2526  0.2720 -0.0836
17435W        W32566   2.746   8.736  16.612  0.1800  0.1499 -0.0189
17436W        W32567   5.645   9.737  15.256 -0.0694  0.1400  0.1457
17437W        W32568  10.294  10.281   1.583 -0.1389 -0.1990  0.1318
17438W        W32569   4.479  14.505   5.509  0.1168  0.0682  0.0416
17439W        W32570   5.315  14.063  12.200  0.2651  0.0144 -0.1604
17440W        W32571  15.879   1.740   4.037 -0.3721 -0.0737 -0.1126
17441W        W32572   2.006   3.792  12.609  0.1039  0.0025  0.1327
17442W        W32573   9.571  11.170   4.042 -0.1397  0.7135 -0.0519
17443W        W32574   3.045  16.490  11.909 -0.0948  0.1527 -0.0539
17444W        W32575  17.657   2.541  16.670  0.2488  0.3534 -0.1781
17445W        W32576  11.080  10.004  15.621 -0.0196 -0.0913  0.1661
17446W        W32577  12.132   8.974  16.133 -0.1685 -0.0640  0.2475
17447W        W32578  16.309   7.529  15.041  0.2169  0.2111 -0.1749
17448W        W32579  10.212  12.758   4.385 -0.2544 -0.0127  0.1076
17449W        W32580   0.871  10.252   3.278 -0.2198 -0.0573  0.1825
17450W        W32581   2.642  10.281  14.622  0.0215 -0.2280  0.0620
17451W        W32582  12.802   4.145   0.450  0.3348  0.3439 -0.1118
17452W        W32583   5.733  13.683   0.117  0.0873 -0.3430  0.1301
17453W        W32584   6.659  14.607  13.821  0.0082  0.2605 -0.2768
17454W        W32585  12.861  17.242   3.232 -0.2053  0.0404 -0.1441
17455W        W32586  15.550  10.887   0.514 -0.0711 -0.0845  0.2637
17456W        W32587   3.034  17.838  14.916 -0.2294 -0.1861  0.1193
17457W        W32588   6.022   3.118  12.482  0.1474  0.0693  0.2946
17458W        W32589  17.683   1.817   0.337 -0.1445  0.0608  0.0380
17459W        W32590  16.298   8.276  16.257  0.0994 -0.0386  0.0670
17460W        W32591   6.356  17.651   2.940  0.0866 -0.0706  0.1168
17461W        W32592   2.375  13.514  11.923 -0.0901  0.1615 -0.0012
17462W        W32593  12.234  10.154  11.468 -0.0802  0.1890 -0.2696
17463W        W32594   0.804   7.394   4.767  0.0733  0.0213 -0.0812
17464W        W32595   5.595   7.818   3.658  0.1663 -0.1901  0.3559
17465W        W32596  13.234   2.544  10.694  0.2432 -0.0997 -0.0851
17466W        W32597  16.979  14.751   2.659  0.4790 -0.0183 -0.1164
17467W        W32598  11.864   6.103  15.590 -0.1695  0.0743 -0.0436
17468W        W32599  11.161  16.409  15.715  0.0375 -0.0413 -0.0876
17469W        W32600   4.665   8.809  14.973  0.0495 -0.2656  0.0652
17470W        W32601   4.749   9.930  11.749 -0.0981  0.1816  0.1305
17471W        W32602   1.540  13.153  15.668  0.1346 -0.1099  0.1928
17472W        W32603  12.823  14.238  14.822 -0.0060 -0.3791 -0.1297
17473W        W32604  15.464   4.380  12.291 -0.2644  0.1213  0.0324
17474W        W32605   6.618   6.343   5.255 -0.0232  0.1484  0.1475
17475W        W32606   4.843  17.768  14.174  0.0300 -0.0753  0.1380
17476W        W32607   4.687   9.020  15.970  0.1273  0.0681 -0.1808
17477W        W32608  14.270  12.119  14.885  0.0305 -0.0021  0.1700
17478W        W32609  14.008   2.472  14.202 -0.0357 -0.0616  0.0509
17479W        W32610  12.046   7.065   2.443  0.0052  0.0838  0.0833
17480W        W32611  16.444  14.766  15.926  0.0718  0.4479  0.1648
17481W        W32612   7.884   5.314   5.081 -0.4757 -0.1638  0.1447
17482W        W32613  11.717   8.467  16.742 -0.1503  0.0718 -0.0137
17483W        W32614  10.583   8.229  14.762 -0.1044 -0.0085  0.1942
17484W        W32615   6.086   3.954  12.718 -0.0492  0.5664 -0.2103
17485W        W32616  16.020   0.380  13.832 -0.1306 -0.0845 -0.1834
17486W        W32617  16.189   1.214  12.776 -0.0812  0.4548  0.0638
17487W        W32618   9.754   9.646   4.644 -0.0094 -0.0198 -0.0476
17488W        W32619  15.499  12.894   4.615 -0.0394  0.4267  0.0485
17489W        W32620   2.417   8.083   5.119 -0.1548 -0.1923 -0.1919
17490W        W32621   8.094  12.442   0.896 -0.0161 -0.0192  0.1710
17491W        W32622   6.196  16.875  12.178 -0.0983 -0.0154  0.1919
17492W        W32623  12.541  16.821  12.774 -0.0994 -0.1546  0.2404
17493W        W32624   7.391  13.239   2.873 -0.0793 -0.0367  0.2109
17494W        W32625  15.064   4.201   3.494  0.0846  0.1339 -0.1288
17495W        W32626   6.260   6.768   1.479  0.0421 -0.2255 -0.0793
17496W        W32627  13.957   7.872   4.228  0.0253  0.1086  0.2505
17497W        W32628   3.031  16.393   3.077 -0.1676 -0.2278 -0.1597
17498W        W32629   8.797  11.118  13.222  0.1471  0.0674 -0.1993
17499W        W32630  14.098  13.781   0.375  0.0537 -0.0924 -0.2261
17500W        W32631  11.438   4.882   1.416 -0.3148  0.0953  0.0352
17501W        W32632   0.220  14.240  14.781 -0.2135 -0.3325 -0.0470
17502W        W32633  11.413   0.513   0.566 -0.2161 -0.0037  0.1973
17503W        W32634  14.055  15.406  13.403 -0.0170  0.0355 -0.0404
17504W        W32635  11.624  12.799   2.782  0.1875 -0.1614 -0.1950
17505W        W32636   8.584  14.890   5.770 -0.0148  0.1205 -0.1245
17506W        W32637  17.418  16.350   4.687  0.0865  0.0911 -0.0938
17507W        W32638   3.495   1.769  12.437 -0.0218  0.1905  0.3646
17508W        W32639   8.813   7.524   0.872 -0.2575 -0.0256 -0.1385
17509W        W32640   3.789   9.169  16.471  0.1449  0.0408 -0.3819
17510W        W32641   6.427   7.182  11.871 -0.0720 -0.0322 -0.0250
17511W        W32642   6.930  14.965  12.943 -0.0691  0.1932  0.2469
17512W        W32643   3.131  15.561   0.161 -0.2987 -0.3422 -0.2270
17513W        W32644   9.630   7.563   2.635  0.0201  0.3587 -0.0374
17514W        W32645  13.494  10.289   3.519  0.1195 -0.0388 -0.2453
17515W        W32646   6.870  17.178  13.712 -0.0586  0.1322 -0.0432
17516W        W32647  16.061   5.127  14.880 -0.0163 -0.1398 -0.1763
17517W        W32648   3.355  13.388  12.234 -0.0865  0.3264 -0.1152
17518W        W32649   4.637  11.531  11.978  0.1680 -0.0645  0.0325
17519W        W32650  15.101   1.526  11.881  0.1385 -0.0421  0.2345
17520W        W32651   2.859  12.166   1.237  0.0775  0.2189  0.0933
17521W        W32652   2.935  16.938   2.961 -0.3986 -0.0406  0.1202
17522W        W32653   1.838   5.570  16.321  0.1499 -0.2279  0.0489
17523W        W32654  14.179  14.814  13.885  0.1086 -0.0766 -0.1836
17524W        W32655   4.727  17.651  14.719  0.1909 -0.0222  0.0812
17525W        W32656   5.189   1.741   4.350 -0.0923 -0.3447  0.3008
17526W        W32657  15.542   6.341   5.874  0.2693 -0.0586 -0.0951
17527W        W32658   8.197   6.127   2.393 -0.0868 -0.1975  0.0328
17528W        W32659  15.452   7.575  11.812 -0.2058  0.0605 -0.0411
17529W        W32660   3.530  12.675   3.522 -0.0251 -0.1607  0.1408
17530W        W32661   2.155   5.865  16.014 -0.1366  0.0335 -0.0744
17531W        W32662   3.677  16.652   5.281  0.0126  0.0310  0.2004
17532W        W32663  15.304   4.295  16.254  0.0720  0.2140 -0.0483
17533W        W32664  12.510   0.231   3.569 -0.0314  0.0085  0.0585
17534W        W32665  13.742  16.694  11.937  0.0356 -0.0109  0.0842
17535W        W32666  11.846  15.137   4.957  0.0095 -0.1224  0.3304
17536W        W32667   7.889  15.546   4.812  0.0889  0.0145 -0.0955
17537W        W32668  16.933  14.811   5.069 -0.0313 -0.0280 -0.2733
17538W        W32669  16.332   3.964  11.272 -0.0825  0.1856  0.2335
17539W        W32670  13.446   2.256   3.319 -0.0854  0.2755 -0.0400
17540W        W32671  10.457   6.189   4.067  0.0919 -0.0924 -0.1393
17541W        W32672  11.231   7.659  15.384 -0.1301 -0.1564  0.0806
17542W        W32673  15.902   0.428  11.072  0.2910  0.1221  0.0970
17543W        W32674   8.999   6.779   0.798 -0.0424  0.2348 -0.1669
17544W        W32675  11.548  17.628   5.417 -0.3597 -0.2132 -0.0277
17545W        W32676   2.512   9.857   4.972 -0.0184  0.3041 -0.1661
17546W        W32677  12.171   3.812   5.090 -0.0066 -0.3521 -0.1961
17547W        W32678   1.349   5.483  11.710 -0.2277  0.1933 -0.0705
17548W        W32679  12.071   4.245  12.522 -0.0199  0.1389 -0.0865
17549W        W32680  17.061  12.507   5.687  0.1242 -0.2180  0.0475
17550W        W32681   0.172   6.184   4.030 -0.2316 -0.0754 -0.0363
17551W        W32682   3.397   0.005  12.083 -0.0787 -0.1920  0.1009
17552W        W32683   5.797  10.325  15.372 -0.0782  0.1124 -0.3258
17553W        W32684  10.092   3.738   1.493 -0.2669  0.0439 -0.2435
17554W        W32685   0.229   7.887   0.857  0.0163 -0.1048  0.0394
17555W        W32686  13.392   7.951  14.218 -0.2238  0.0948  0.0536
17556W        W32687   8.806   9.456  16.141 -0.0349  0.3478  0.0763
17557W        W32688  15.148  15.625   5.816 -0.0131  0.0613 -0.0455
17558W        W32689   7.506   0.193   3.737 -0.1034 -0.0271  0.0190
17559W        W32690   1.410   9.922  11.721 -0.0245  0.0843  0.0057
17560W        W32691  16.213   9.548  12.996 -0.1751 -0.0270  0.0933
17561W        W32692   2.724  17.300  15.976 -0.0078  0.0437 -0.1862
17562W        W32693  17.283   8.902  13.000 -0.1238  0.1261  0.0246
17563W        W32694  14.512  14.701   1.629  0.0210 -0.2053 -0.1647
17564W        W32695  15.057  11.292   1.651 -0.2570 -0.0844 -0.0708
17565W        W32696   3.664   9.632  14.105 -0.1835  0.3622 -0.2517
17566W        W32697  10.328   3.219   4.314  0.0477 -0.1517 -0.0961
17567W        W32698   4.755  12.656   1.104 -0.3490 -0.3721 -0.0858
17568W        W32699  16.860  10.000   3.943 -0.0553  0.0286 -0.3168
17569W        W32700   0.079   7.675   5.770 -0.1138 -0.0471 -0.1989
17570W        W32701   0.645  17.025   0.132 -0.0859  0.2094 -0.1003
17571W        W32702  14.960  11.789  15.893 -0.0135 -0.6425 -0.0719
17572W        W32703  10.952  12.125   1.371 -0.2862  0.1420  0.4117
17573W        W32704  11.449   5.845   0.021 -0.3508  0.1363 -0.2504
17574W        W32705   4.926  15.390   0.949  0.0660  0.3386 -0.0637
17575W        W32706   2.108  11.585   4.853  0.0526  0.1612  0.2373
17576W        W32707  16.980  16.183  10.872  0.1422 -0.2209 -0.2397
17577W        W32708   5.135  10.840   3.346  0.1514 -0.1087 -0.1517
17578W        W32709   0.879  13.032   6.583  0.2700  0.2843  0.2457
17579W        W32710   4.001   1.935  15.209  0.0987  0.0963 -0.1144
17580W        W32711   8.755   1.051  13.150  0.1745 -0.0670  0.1197
17581W        W32712   8.683   5.876   3.478 -0.0702 -0.2894 -0.0597
17582W        W32713  11.451  12.191   0.067 -0.0528  0.1069  0.0442
17583W        W32714   7.012   9.022  16.679 -0.2213 -0.0523  0.0173
17584W        W32715   6.969  17.087   0.215 -0.1413  0.0259 -0.1101
17585W        W32716  16.385  10.785  10.603 -0.0090  0.2317  0.0976
17586W        W32717  15.095   9.084  16.624  0.3240  0.0901  0.2806
17587W        W32718  17.498   7.953   4.858 -0.1599 -0.3157 -0.1670
17588W        W32719   2.649  10.950   2.272  0.2872  0.1512 -0.2129
17589W        W32720  15.855  15.003  14.958 -0.2950 -0.0191 -0.0224
17590W        W32721   6.043  14.540  12.601 -0.2729  0.0343  0.1933
17591W        W32722  16.380  12.028   2.633  0.2052 -0.1110  0.0699
17592W        W32723   6.553   4.094  15.508  0.0476 -0.0429  0.0159
17593W        W32724  12.177  14.519   2.182 -0.0206 -0.1448 -0.0288
17594W        W32725   6.717   2.602  16.107 -0.1725  0.1095 -0.0102
17595W        W32726   5.727   5.952   1.664  0.3432  0.1749  0.2937
17596W        W32727  12.234   7.869   0.013 -0.1442  0.2173 -0.2454
17597W        W32728   3.998   5.636  13.050 -0.3696 -0.0195  0.3041
17598W        W32729   4.424   2.437   0.634  0.2748  0.2683 -0.2690
17599W        W32730  13.508   1.424   3.502  0.1234 -0.2327  0.0051
17600W        W32731   7.049   3.683   0.111  0.3079 -0.2002 -0.1461
17601W        W32732  10.371  14.508  15.148 -0.0562  0.0175 -0.0907
17602W        W32733  13.552  11.597  11.526 -0.0179  0.0785 -0.2698
17603W        W32734   9.940  12.841  10.452 -0.1483  0.2781  0.1024
17604W        W32735   8.801  11.014   4.103 -0.0151  0.3618 -0.3807
17605W        W32736  14.475  12.529  15.132  0.1283 -0.0106 -0.0744
17606W        W32737   6.427   7.937   1.403  0.0521 -0.0342 -0.2378
17607W        W32738   2.546   8.085   0.892 -0.0332  0.0259  0.3602
17608W        W32739   3.283   3.149   0.194  0.1356 -0.0507 -0.2481
17609W        W32740  13.205   5.725  14.599  0.0083  0.0638 -0.0090
17610W        W32741   3.869  17.068  13.362 -0.1848 -0.0868 -0.1617
17611W        W32742  14.554   3.393  13.145  0.4263 -0.0822 -0.0958
17612W        W32743  11.965  16.492   4.273  0.1447  0.2048  0.2332
17613W        W32744  12.979   6.932  10.737  0.1603  0.0015  0.2281
17614W        W32745  13.016   8.113  12.256  0.1786  0.2160 -0.0767
17615W        W32746   7.117   7.386  11.690 -0.1895 -0.0507 -0.0684
17616W        W32747   5.469   0.835   3.554 -0.0693 -0.0891 -0.1794
17617W        W32748  11.903  15.654   1.577  0.1546 -0.1548  0.1909
17618W        W32749  17.041  16.518   3.967  0.0096 -0.2424 -0.0041
17619W        W32750   7.038   2.941   0.917  0.0315  0.1019 -0.1555
17620W        W32751   5.522  13.364   2.957 -0.2572  0.0293 -0.0285
17621W        W32752  12.626  15.965   2.483  0.0772 -0.1668  0.0803
17622W        W32753   4.662   2.604   5.463  0.3607 -0.1397  0.0198
17623W        W32754  10.517   5.309  12.657 -0.0229 -0.2030 -0.2911
17624W        W32755   1.334   2.134   5.619 -0.0228  0.1916 -0.2971
17625W        W32756   8.549  16.020  16.203  0.1744 -0.0889  0.0740
17626W        W32757  17.043   4.662   2.480 -0.2484 -0.0796 -0.5274
17627W        W32758  14.146   5.521   2.976  0.0691 -0.0664  0.0914
17628W        W32759  14.254  11.173   0.400  0.1471 -0.2015 -0.0238
17629W        W32760   5.055   6.369   2.962  0.1624 -0.0373  0.0520
17630W        W32761  16.815  16.314   0.345 -0.0562  0.0888 -0.1515
17631W        W32762   6.655  17.812  12.979 -0.1395 -0.2644 -0.1068
17632W        W32763   2.081   6.404   1.037 -0.2073 -0.0337 -0.4249
17633W        W32764  11.842   9.635   5.683  0.3398  0.1527  0.0649
17634W        W32765   9.030   9.640   1.004 -0.0238 -0.0745 -0.0216
17635W        W32766   2.923  13.316  14.612  0.2238 -0.3020  0.0913
17636W        W32767  13.307  16.984  15.635 -0.0217  0.2300 -0.1990
17637W        W32768   5.081  11.328  12.281 -0.2470 -0.2024 -0.1344
17638W        W32769  15.577  15.677  13.306 -0.0004 -0.0624 -0.2751
17639W        W32770   4.905  11.035  12.839 -0.1970 -0.3682 -0.0571
17640W        W32771  15.898   6.053   3.246 -0.2537 -0.1170  0.3088
17641W        W32772   5.223   8.752  15.159  0.1367  0.0354  0.0043
17642W        W32773   5.106  11.403  14.724  0.0291 -0.0200  0.0046
17643W        W32774  12.120  16.211  13.329 -0.0715 -0.0680  0.0823
17644W        W32775  13.550  16.117   4.517  0.0703 -0.0444 -0.1223
17645W        W32776   6.129  13.010   5.787  0.2183 -0.0396  0.3791
17646W        W32777  14.239   3.948   1.349 -0.0640  0.0941 -0.2342
17647W        W32778   9.022   1.996  14.361  0.1032  0.2479 -0.0493
17648W        W32779   9.339   2.033  14.773 -0.0212  0.2037 -0.2552
17649W        W32780   5.197  16.307  13.311 -0.0238  0.0851 -0.1063
17650W        W32781   1.001   0.272   1.621 -0.0457  0.1821 -0.1164
17651W        W32782   2.917   2.433   0.423  0.0296  0.0241 -0.0985
17652W        W32783   2.929  15.536   3.932  0.0398  0.1701 -0.2845
17653W        W32784  17.397  10.490   2.446 -0.2878 -0.0825 -0.4106
17654W        W32785  14.953   7.438   2.259 -0.0143  0.3597 -0.4326
17655W        W32786   5.622   1.292   2.677 -0.1016  0.1474  0.2341
17656W        W32787   3.991  10.185   3.607 -0.0793  0.3475  0.0354
17657W        W32788   3.529  12.019  13.189  0.1891  0.1947  0.1068
17658W        W32789  16.611   7.433  15.883 -0.2681 -0.1127  0.1243
17659W        W32790   8.563  10.350   4.694  0.0325  0.0218  0.1027
17660W        W32791   9.909   3.716  16.305  0.0799  0.3945  0.1218
17661W        W32792   1.912  12.174  13.647 -0.3353 -0.0466 -0.2180
17662W        W32793   2.274   1.947   0.346  0.2346 -0.2201  0.0154
17663W        W32794   6.500   2.049   4.659 -0.0819  0.2078  0.1224
17664W        W32795  13.959   2.661   0.719 -0.2090 -0.1423 -0.1247
17665W        W32796   3.817  15.960  16.720  0.0685  0.0003 -0.1504
17666W        W32797   2.613  11.345   0.683 -0.1494  0.0798  0.1952
17667W        W32798  12.307   5.109  13.890 -0.1628 -0.2634 -0.1506
17668W        W32799   5.454   1.614  16.078  0.1385 -0.2250 -0.1015
17669W        W32800  17.627  10.211  13.596 -0.0902  0.0280 -0.0828
17670W        W32801  15.690   9.472   5.237 -0.2096  0.1802 -0.0262
17671W        W32802  13.417   9.213  16.569  0.0247 -0.2707 -0.1501
17672W        W32803   1.146  14.122   3.563 -0.0832 -0.0592  0.3962
17673W        W32804   9.287  10.105  12.795 -0.0715 -0.1105 -0.4405
17674W        W32805  13.091   3.850  12.549  0.0369  0.4300  0.0089
17675W        W32806  17.215   5.997   0.100  0.3327 -0.3352  0.0153
17676W        W32807  14.329  10.969   0.978 -0.2367  0.2372 -0.1020
17677W        W32808   6.284   8.971   4.305 -0.1964  0.3152 -0.3397
17678W        W32809   4.677   6.194   0.402 -0.0499 -0.0463  0.2082
17679W        W32810   5.750  15.219  15.666 -0.0172  0.0022  0.1840
17680W        W32811  15.466   3.763   0.411  0.0501 -0.0505  0.2399
17681W        W32812   7.235   0.479  11.312  0.0904 -0.0111 -0.0960
17682W        W32813  14.351  10.979   4.686 -0.0156  0.1448 -0.0862
17683W        W32814   3.024   2.510   1.722  0.2902  0.0674  0.0177
17684W        W32815   5.772   5.288  13.288  0.1294  0.1487  0.0423
17685W        W32816   8.867  16.384  16.280  0.0514 -0.1951  0.1178
17686W        W32817   2.170  17.512   6.049 -0.2840 -0.2022 -0.0512
17687W        W32818  11.165  11.792  13.114  0.0417 -0.2168 -0.0248
17688W        W32819  10.828   7.790   4.455 -0.0144 -0.0064  0.2096
17689W        W32820   0.048   0.415  14.712 -0.2182  0.0372 -0.2092
17690W        W32821   3.515  15.702  11.778  0.0062  0.1029  0.0917
17691W        W32822  13.299   4.994  13.900 -0.1103  0.0142  0.3346
17692W        W32823  10.876   6.014   1.410 -0.0807  0.0541 -0.1120
17693W        W32824  17.198  12.135   4.259  0.0054  0.2344 -0.0784
17694W        W32825   4.363   7.281   3.891 -0.3745 -0.1839 -0.1984
17695W        W32826   0.443   6.513  14.652  0.3588 -0.0743  0.0443
17696W        W32827   6.843   7.601  14.817  0.0748 -0.3616  0.0402
17697W        W32828   0.571   9.686   0.766 -0.2846 -0.1304 -0.0031
17698W        W32829  10.246   8.967  15.887  0.0458  0.1109 -0.0176
17699W        W32830  14.397   3.488   4.440 -0.0569 -0.2089 -0.0317
17700W        W32831  14.494   8.252  12.354 -0.1921 -0.0567  0.1634
17701W        W32832   2.503   7.745   0.362 -0.0113  0.3824  0.2329
17702W        W32833   5.568  16.772  16.758 -0.2162 -0.0565  0.0635
17703W        W32834  16.830   9.541  15.764  0.0539  0.0009  0.1664
17704W        W32835  11.126   3.324  14.148  0.1163 -0.2112  0.3758
17705W        W32836  10.374   7.266  13.659  0.2834  0.0645 -0.0319
17706W        W32837  10.497   7.850  15.045  0.0845 -0.0570 -0.0646
17707W        W32838   1.121   6.224  14.998 -0.0835 -0.0395  0.2043
17708W        W32839   2.522  14.696   4.224 -0.1746  0.1312 -0.1054
17709W        W32840  11.449  16.687   5.137 -0.2364 -0.1376 -0.1060
17710W        W32841   3.080   8.461   4.370  0.0648  0.0960  0.0266
17711W        W32842  15.419   5.306   4.145 -0.1544  0.3057  0.2271
17712W        W32843  10.435   9.367   0.757 -0.0846  0.1282 -0.0556
17713W        W32844   5.369  12.249  15.165 -0.1489  0.0033 -0.1639
17714W        W32845  10.717   3.190   4.825  0.1565  0.0511 -0.0350
17715W        W32846   4.350  16.293   6.405  0.0986  0.0412  0.0689
17716W        W32847  13.156  12.093  11.723 -0.4611  0.2797  0.0589
17717W        W32848  14.274  15.424  16.635 -0.1005  0.1725 -0.1845
17718W        W32849   0.508  11.285  12.018  0.0281  0.1707 -0.1020
17719W        W32850   7.969   1.990  16.760  0.0588  0.0236 -0.1452
17720W        W32851   8.672  17.120   0.087  0.0790  0.0404  0.2440
17721W        W32852  16.854  17.232  16.168 -0.0263 -0.0159  0.1246
17722W        W32853   2.599  11.166  12.932  0.2786 -0.0022 -0.0313
17723W        W32854   3.846   6.722  12.627  0.0441 -0.3619 -0.0236
17724W        W32855   2.350  12.819   2.303 -0.2751  0.0860  0.1462
17725W        W32856  13.703   8.787  10.795 -0.1212 -0.1463  0.0890
17726W        W32857   1.839   9.979  16.757  0.1191  0.1535  0.1100
17727W        W32858  14.679   6.994   4.788 -0.0303 -0.0694  0.0051
17728W        W32859   0.028   3.476   4.223  0.1342 -0.0976  0.0139
17729W        W32860  16.274  13.742   4.900 -0.2115  0.1116  0.0192
17730W        W32861  10.560  14.254  14.701 -0.3015 -0.1269 -0.1177
17731W        W32862   9.452  15.720   3.147 -0.1328 -0.0974  0.2808
17732W        W32863  14.778   6.861  14.064 -0.1799  0.2474  0.1179
17733W        W32864   0.975   2.357  15.737  0.2354 -0.2032 -0.1279
17734W        W32865   1.285  11.250  13.654  0.0750  0.3934  0.0268
17735W        W32866  16.594  13.102   2.935  0.0661 -0.3781 -0.1471
17736W        W32867   8.439  14.127  12.105  0.0013  0.1852  0.2710
17737W        W32868   7.217  11.636   0.222 -0.3119  0.2465  0.2456
17738W        W32869   5.427   9.788   2.821  0.4804 -0.2691  0.0570
17739W        W32870   8.795   6.574   2.774 -0.0239 -0.1169  0.0013
17740W        W32871  15.459  14.667   1.582 -0.0035  0.2141 -0.1165
17741W        W32872   5.024  15.753  11.306  0.1412 -0.1545 -0.0156
17742W        W32873  16.005  14.311   2.952  0.1471  0.0235  0.0521
17743W        W32874   3.360  13.436  14.120 -0.0001  0.6197 -0.0451
17744W        W32875   2.645  11.548  15.040 -0.2132  0.0468  0.0656
17745W        W32876   1.716   5.994  13.316 -0.1361 -0.0017 -0.1157
17746W        W32877  17.495   2.036  16.644  0.0394 -0.1477 -0.1097
17747W        W32878   6.248  16.268   5.249 -0.0041  0.0460  0.0878
17748W        W32879   7.510   6.376   1.151  0.0138 -0.0665  0.3397
17749W        W32880  15.640   3.928  11.669 -0.1827 -0.0924  0.1204
17750W        W32881   8.872  14.334   1.415  0.0649 -0.2319 -0.3528
17751W        W32882   5.979  13.465  11.598  0.1313  0.2738 -0.0538
17752W        W32883  13.165   4.117  13.784 -0.1569  0.1739  0.3314
17753W        W32884  14.939   9.154   2.153  0.0903  0.0393 -0.0548
17754W        W32885  14.792   2.751   4.779 -0.0423 -0.1142  0.2266
17755W        W32886   4.602   3.803  11.629  0.1975 -0.3257 -0.0353
17756W        W32887  15.294  10.441   0.374 -0.1273 -0.1216 -0.0611
17757W        W32888   8.295  16.791  16.670  0.1431 -0.3515  0.2359
17758W        W32889  13.154  11.527  16.761  0.0551  0.5117  0.0674
17759W        W32890  14.894   0.669   0.915 -0.1215 -0.2839 -0.1618
17760W        W32891  11.200  15.672  13.259 -0.1913  0.1418 -0.0160
17761W        W32892  11.344   3.236  11.207 -0.2730 -0.1104 -0.4045
17762W        W32893   0.235  17.059   0.746 -0.0146 -0.0912  0.1590
17763W        W32894   6.351  16.945  14.688  0.0292 -0.1692  0.2564
17764W        W32895   3.583   2.937   5.489 -0.1335  0.0285 -0.0044
17765W        W32896   8.487   5.201  11.760  0.1808 -0.1702 -0.1643
17766W        W32897   6.471  10.195  16.212 -0.0579  0.1646 -0.1603
17767W        W32898  16.647   0.957   6.263  0.4816  0.1309  0.1878
17768W        W32899   6.518   3.226   2.101 -0.1586  0.0799 -0.3910
17769W        W32900  15.448   6.661  11.778 -0.1337 -0.2760  0.1356
17770W        W32901   6.579   8.714  12.472  0.0132 -0.1685  0.3548
17771W        W32902   9.990   5.585   3.810 -0.0186 -0.0536 -0.4582
17772W        W32903  12.750  13.222  11.118  0.0809  0.1773  0.2088
17773W        W32904  14.752   7.508   0.672  0.3331 -0.1007  0.1476
17774W        W32905  11.179  10.338   1.554  0.0484  0.0001 -0.1357
17775W        W32906  10.302   3.652  12.109  0.0119 -0.0753 -0.2121
17776W        W32907  13.138   5.402  13.034  0.3419  0.0252  0.2298
17777W        W32908   4.104   2.745  15.153  0.0510  0.1548  0.0114
17778W        W32909  15.493  16.237  12.284  0.0288 -0.0230  0.0616
17779W        W32910  15.262   2.791   0.264 -0.2150 -0.1176  0.0921
17780W        W32911   9.014   6.379   2.340  0.1755 -0.1024  0.1150
17781W        W32912   1.011   7.548   0.132  0.0494 -0.1795  0.0618
17782W        W32913   9.135   4.224  15.706 -0.0118 -0.0214  0.0751
17783W        W32914  15.927  17.324   3.300 -0.0918 -0.0445  0.1177
17784W        W32915   6.474  14.338  13.479  0.0276 -0.0360  0.0621
17785W        W32916  13.019  16.093  15.492 -0.0310 -0.2126 -0.0879
17786W        W32917   2.404   7.402   4.787 -0.5174 -0.0531  0.0890
17787W        W32918   5.514   8.135   1.819  0.0865  0.1525 -0.0391
17788W        W32919   4.528  13.261  15.458 -0.0597  0.4286 -0.2610
17789W        W32920   8.764  11.057   4.664 -0.1689  0.2749 -0.0474
17790W        W32921   5.087   2.601   1.495  0.2935  0.3167  0.0607
17791W        W32922   9.685   6.837  11.936 -0.1007 -0.1485 -0.1506
17792W        W32923  13.515  13.917   1.954 -0.0025  0.0530  0.0189
17793W        W32924  12.892  16.738   4.206 -0.3547  0.2577 -0.2820
17794W        W32925  15.338   1.093   3.565  0.2618  0.4055  0.0842
17795W        W32926  12.731   8.259   4.386 -0.1441  0.2318 -0.4231
17796W        W32927  15.358  10.935  15.662  0.1874 -0.1750  0.0927
17797W        W32928   9.437  13.351  16.012 -0.1233 -0.3021  0.2483
17798W        W32929   2.156   4.944   5.201 -0.0058 -0.0050 -0.2190
17799W        W32930   3.025   9.086   5.305  0.1282  0.1180  0.2447
17800W        W32931  12.599   4.234  16.738 -0.2429  0.0970  0.0085
17801W        W32932  10.034  11.441  12.928  0.2078 -0.1532 -0.0229
17802W        W32933  15.846   0.202   4.525  0.1369 -0.2533 -0.0064
17803W        W32934  10.796   7.685  11.700 -0.1465  0.1014  0.2523
17804W        W32935   9.266  17.495   1.917  0.3704  0.0411 -0.2125
17805W        W32936  16.296  16.080   5.133  0.4111 -0.0630 -0.3703
17806W        W32937  12.137  11.958  13.219 -0.0856  0.1318  0.1686
17807W        W32938   9.893   3.382   0.952  0.0173  0.1201  0.0017
17808W        W32939   6.237  10.482   4.316  0.1242 -0.0151 -0.1952
17809W        W32940  17.392  11.719   1.789  0.0639 -0.2528  0.1872
17810W        W32941  16.539  14.179  16.165  0.0922 -0.1593 -0.1243
17811W        W32942   0.761  10.555   4.781  0.2342 -0.1427  0.2398
17812W        W32943   5.798  14.394   5.696 -0.0005  0.0058  0.0904
17813W        W32944  16.661   6.479  12.814  0.2206  0.2126  0.0488
17814W        W32945  12.428  11.444  16.219 -0.1952 -0.0165  0.0132
17815W        W32946  12.675  13.932   0.472  0.1772  0.0842 -0.0669
17816W        W32947  13.881   1.662   5.808  0.2589 -0.0069  0.0182
17817W        W32948  16.300  12.819  11.964 -0.1113 -0.3585  0.1849
17818W        W32949   3.711  12.965   0.093 -0.0956  0.2012 -0.2348
17819W        W32950  15.192   3.350   0.529 -0.1807 -0.0830  0.2216
17820W        W32951  12.445   1.209   2.454  0.0297 -0.1189 -0.2406
17821W        W32952   5.618   5.756  13.303  0.0798 -0.3847  0.2405
17822W        W32953   0.961   8.804   0.173 -0.0698  0.2021 -0.0575
17823W        W32954  17.167   6.654  13.834  0.3337  0.3218 -0.3573
17824W        W32955   4.793  15.064   1.321  0.0716  0.0570 -0.0835
17825W        W32956   7.980  12.871  16.061 -0.2760 -0.2911  0.0120
17826W        W32957  17.101  11.938   4.764  0.1049  0.2565 -0.2509
17827W        W32958   1.136   4.857  11.490 -0.4816  0.0663 -0.1853
17828W        W32959  13.009   6.619  16.176  0.1877 -0.3180 -0.2179
17829W        W32960  13.614  13.248  11.048  0.2487 -0.0658 -0.0362
17830W        W32961  10.162   6.098  15.605  0.0140  0.1424 -0.2713
17831W        W32962   7.152  13.389  14.517 -0.0500  0.1242  0.3461
17832W        W32963  17.230   9.356  12.578 -0.0381 -0.0381 -0.1799
17833W        W32964   5.343   5.740   3.634 -0.0124 -0.1552  0.1619
17834W        W32965  12.149   4.001   4.412 -0.1695  0.0955  0.0421
17835W        W32966  16.263   4.193   3.089 -0.3091  0.0724 -0.0485
17836W        W32967   0.479  17.379   3.542  0.0383  0.0678 -0.0174
17837W        W32968   1.615   4.599  13.477 -0.2805  0.2411 -0.1678
17838W        W32969   2.986  12.310  14.371 -0.1270  0.0543 -0.2661
17839W        W32970  14.471  13.214   0.881  0.1649  0.3929  0.0705
17840W        W32971   5.072  10.062   1.849 -0.1662 -0.2965  0.0078
17841W        W32972  10.325  14.898   3.261 -0.0480  0.1949  0.0866
17842W        W32973  11.323   7.285   4.225  0.1775  0.0795 -0.0494
17843W        W32974   1.074  16.758   0.599 -0.0322  0.4185  0.1894
17844W        W32975   7.717   1.058  15.463 -0.1286 -0.1512  0.0234
17845W        W32976   7.052   0.527   0.397 -0.0577  0.1399 -0.0706
17846W        W32977   1.531   6.981  11.491 -0.0927  0.1644  0.2489
17847W        W32978  16.213   3.955  13.169  0.0870 -0.1928 -0.1008
17848W        W32979   8.889   3.311  11.947 -0.1703  0.0186 -0.1882
17849W        W32980   1.868  10.104  11.709  0.1068  0.0199 -0.0505
17850W        W32981   6.456   0.722   1.843 -0.3204 -0.1715  0.0880
17851W        W32982   6.459   7.037   3.211 -0.2143 -0.1123 -0.1639
17852W        W32983   0.836   9.799  15.197  0.2365 -0.2405 -0.3131
17853W        W32984   6.806   3.193  15.143 -0.0345 -0.0933 -0.1523
17854W        W32985  16.601   3.540  11.336 -0.0472  0.1403 -0.0429
17855W        W32986  12.427   4.644  14.134 -0.1162  0.0132 -0.2986
17856W        W32987   8.265  14.834   4.343  0.0138  0.0698 -0.0714
17857W        W32988   5.573  16.544   0.976 -0.0170  0.1714  0.0875
17858W        W32989   2.253   9.668  12.267 -0.1463 -0.1257 -0.0480
17859W        W32990   4.730  16.571  15.165  0.2134 -0.0138  0.0255
17860W        W32991  12.794  10.318  14.353  0.3200  0.0207  0.2307
17861W        W32992   3.697   2.310  11.340  0.1749 -0.0704 -0.3187
17862W        W32993   9.292   7.744   2.248  0.1520  0.2224 -0.0917
17863W        W32994  17.114   2.251   3.941  0.2337  0.1717 -0.0308
17864W        W32995  12.216   4.630   1.863 -0.1494  0.1401  0.0614
17865W        W32996  11.755  13.215   1.927 -0.1548  0.1180 -0.2159
17866W        W32997  13.596  10.015  14.529 -0.2128 -0.0937  0.1996
17867W        W32998   9.668   7.343   0.729  0.2421  0.1465 -0.0827
17868W        W32999  14.120   5.606   0.791  0.0633 -0.1659 -0.0985
17869W        W33000  11.978   6.103  13.250 -0.2145  0.0633  0.1555
17870W        W33001   6.267   6.353   1.168  0.0797 -0.0044 -0.4488
17871W        W33002  16.807  17.566  14.193  0.1254 -0.0047  0.0823
17872W        W33003   5.822  13.168  12.578 -0.2296 -0.2082  0.0063
17873W        W33004   3.867   1.542   1.026  0.2540 -0.1654 -0.2497
17874W        W33005   0.245   6.931  14.935 -0.0682  0.2053  0.2338
17875W        W33006   9.839   7.658   5.251 -0.2788  0.0496  0.0921
17876W        W33007  15.993   0.961  16.750  0.2492 -0.0531 -0.4413
17877W        W33008   1.915   0.857   1.021 -0.0267  0.0214  0.1929
17878W        W33009  11.052  12.050  12.369 -0.2613 -0.0962 -0.3182
17879W        W33010   1.700   8.152   2.989  0.3088 -0.3483  0.2768
17880W        W33011   3.132   8.768  13.578  0.0492 -0.4038  0.1678
17881W        W33012  11.148  13.348   0.615 -0.1095 -0.3316 -0.1463
17882W        W33013   4.397  11.551  13.339  0.3252  0.0995  0.1440
17883W        W33014   3.081  11.460  15.429  0.0713  0.1153 -0.2245
17884W        W33015  14.954  16.913   2.876  0.2797 -0.0700 -0.0118
17885W        W33016   6.507   0.619  11.807 -0.0324 -0.3118 -0.1549
17886W        W33017  11.439   7.335  16.244 -0.1125  0.0352  0.0680
17887W        W33018   3.089   5.708  14.555 -0.0981  0.1604  0.3069
17888W        W33019  13.661  11.352   1.387 -0.0909  0.0682 -0.2783
17889W        W33020   6.942   4.654  11.225  0.0989  0.1596 -0.2290
17890W        W33021  12.206  10.727  11.402 -0.0291 -0.2050  0.0812
17891W        W33022  13.194   4.162   5.026  0.0771 -0.2303 -0.0164
17892W        W33023  15.178   5.749  15.097 -0.1651 -0.1116  0.0258
17893W        W33024  16.582   3.740  13.457 -0.1323  0.1656  0.2050
17894W        W33025   5.535   4.225   1.863  0.1427  0.0861 -0.0124
17895W        W33026   2.108   5.061   1.507  0.4694  0.0507  0.0176
17896W        W33027   2.388   9.791   0.088  0.0407  0.0841  0.2617
17897W        W33028  16.994   7.242  13.278 -0.1396 -0.2020 -0.0168
17898W        W33029  10.268   3.593   1.948 -0.0683  0.1753 -0.1373
17899W        W33030   0.124  10.618  13.551  0.0835 -0.2499  0.3792
17900W        W33031   8.776   8.294  11.602  0.2949 -0.0576  0.2644
17901W        W33032   2.947   2.659   4.473  0.3541 -0.0375  0.2116
17902W        W33033   8.857  17.679  11.704  0.2353  0.2173  0.2072
17903W        W33034  17.106   2.456   1.983 -0.2176  0.1392  0.2415
17904W        W33035   7.479  10.947   1.060  0.2295  0.0154 -0.0893
17905W        W33036   0.569   6.181  15.104  0.0829  0.1388 -0.1955
17906W        W33037   1.671   7.887  11.766  0.0541  0.1524  0.0060
17907W        W33038  12.620   6.805   4.498  0.2506 -0.1607  0.1182
17908W        W33039   8.833   0.208  13.085 -0.0953 -0.1949 -0.1022
17909W        W33040  15.189  15.997   5.436  0.0108 -0.1408 -0.1665
17910W        W33041   2.513  14.527   0.608 -0.0416  0.0637 -0.0314
17911W        W33042  10.990   7.225   4.735 -0.1013 -0.3216 -0.1236
17912W        W33043  14.211  14.161   0.817  0.1645 -0.2823  0.0048
17913W        W33044   1.564  15.922  15.822  0.0571  0.1384 -0.3449
17914W        W33045   7.318  15.458  11.117 -0.1611  0.0234 -0.2609
17915W        W33046  10.647   6.739  15.674  0.2015 -0.0363 -0.1412
17916W        W33047  14.193  13.895  14.837 -0.1585 -0.3496 -0.0664
17917W        W33048   7.096  15.408   3.424 -0.0017  0.0715  0.1315
17918W        W33049  16.424   7.457   2.206  0.2745  0.2186  0.0339
17919W        W33050   1.873  15.791   5.281  0.1025 -0.1183  0.0032
17920W        W33051  12.762   7.414  15.789  0.0351  0.1552 -0.2036
17921W        W33052   5.985  15.934  12.332  0.0277  0.1075 -0.0885
17922W        W33053   2.245  14.057  13.113 -0.0154  0.1671  0.0014
17923W        W33054  11.319  11.660  11.181  0.0321 -0.1129 -0.3191
17924W        W33055  10.382  16.096  11.384  0.1817 -0.3281  0.2486
17925W        W33056   4.461   8.326  11.384  0.2151  0.2493 -0.2239
17926W        W33057   1.873  17.050   1.521  0.0513  0.1408 -0.0119
17927W        W33058   2.801  14.214   0.389 -0.0280  0.2215  0.0564
17928W        W33059  14.227   4.776  11.569  0.1536 -0.0158  0.1647
17929W        W33060   0.048   4.429  16.257  0.0400  0.4023 -0.0884
17930W        W33061  16.314  13.806  10.703  0.2120  0.1905  0.1509
17931W        W33062  11.313   5.706  13.874  0.1510  0.2849  0.2356
17932W        W33063  15.933  10.468  12.872 -0.2047  0.1949  0.2519
17933W        W33064  10.029   8.947   1.468 -0.1294 -0.3251  0.2271
17934W        W33065  14.866   9.177  13.145 -0.3405  0.0174 -0.1834
17935W        W33066   5.791  17.087  16.379 -0.0156 -0.0098 -0.1504
17936W        W33067  16.032  14.088  16.572  0.1849 -0.1423 -0.1895
17937W        W33068  17.813   9.242   2.987  0.1019  0.0602  0.0837
17938W        W33069  14.288   7.752   0.379  0.4041  0.0777  0.1333
17939W        W33070   9.262  16.409   0.737  0.0313 -0.2060 -0.2113
17940W        W33071   3.406  16.908  11.957  0.0330  0.3658  0.3420
17941W        W33072   0.298  13.387  13.794  0.3902 -0.5192  0.0803
17942W        W33073  12.836  15.269  15.026  0.2055  0.1147 -0.0163
17943W        W33074   1.522   4.540  10.297 -0.2097 -0.0338 -0.4123
17944W        W33075  13.137   1.282   0.154 -0.1376  0.0930  0.2106
17945W        W33076   4.484   3.729  14.715  0.0990 -0.0128  0.0932
17946W        W33077   8.741  11.557  11.247 -0.0321 -0.2247  0.1673
17947W        W33078   3.395   8.529   5.032 -0.2650  0.0905 -0.0623
17948W        W33079  12.867   9.510   4.458  0.1244 -0.0866 -0.0571
17949W        W33080  10.687   1.292  13.252 -0.1493 -0.2575  0.1423
17950W        W33081  14.331   5.705  13.263  0.1279 -0.0319 -0.3646
17951W        W33082  14.691  15.540  14.735  0.0309 -0.0472  0.1610
17952W        W33083   8.650  10.230   5.307  0.0966 -0.0012  0.2855
17953W        W33084  17.453   5.515   1.408 -0.2002  0.2944 -0.1432
17954W        W33085   4.908  14.232   4.451  0.0724  0.2043 -0.0973
17955W        W33086  11.580   2.411   3.746  0.0550 -0.0366  0.2431
17956W        W33087   4.283   5.276  14.489 -0.2427 -0.0806 -0.0071
17957W        W33088  11.033  11.408  14.027 -0.0708 -0.1216 -0.2500
17958W        W33089   2.978   4.887  12.476  0.0375 -0.0495  0.2500
17959W        W33090  14.776   7.405   5.663  0.2244 -0.2739  0.2882
17960W        W33091  16.012   4.408   4.235 -0.2181  0.1388  0.0655
17961W        W33092  15.168   8.978  10.941 -0.0920 -0.1126 -0.0046
17962W        W33093   2.348  12.653  15.074  0.3608 -0.1016  0.0187
17963W        W33094  15.245  12.898  13.498  0.1796  0.1553  0.1348
17964W        W33095  16.704   8.211   5.650 -0.0664  0.0979  0.1088
17965W        W33096   2.654   9.289   3.718  0.0028 -0.1805  0.0563
17966W        W33097  15.875   2.396  13.328  0.1707 -0.2530  0.0779
17967W        W33098   7.068   8.200  13.724  0.0146  0.2616 -0.3152
17968W        W33099  11.133   6.729   4.179  0.1673 -0.0885 -0.1432
17969W        W33100   4.686   0.265   4.306  0.1520 -0.0149 -0.1585
17970W        W33101   9.176  14.680  12.009 -0.2527 -0.2481  0.0759
17971W        W33102  11.425   4.597  11.513 -0.2320 -0.0058  0.1459
17972W        W33103   9.389  16.684   3.194  0.2286  0.2211  0.0430
17973W        W33104   0.931  11.866   0.282  0.2051 -0.1506 -0.2014
17974W        W33105  12.117   8.866  16.681  0.0694 -0.2106  0.0592
17975W        W33106   8.496  17.736  15.280  0.0344 -0.0391 -0.2569
17976W        W33107   4.143  13.690  15.489 -0.1136  0.0478  0.0232
17977W        W33108   5.399   0.260  11.342  0.1015  0.0427 -0.0689
17978W        W33109   5.040  17.448   6.106  0.1846  0.2054  0.0328
17979W        W33110   9.227  16.658   4.258  0.0749  0.2735  0.0517
17980W        W33111  14.729  11.783  13.088  0.1989 -0.1888 -0.0890
17981W        W33112   3.637   8.311   2.609  0.0903  0.1169 -0.0695
17982W        W33113  11.316   5.637  12.841 -0.0430 -0.1051  0.0047
17983W        W33114  13.129   6.814   4.863  0.0452  0.0704 -0.1391
17984W        W33115   9.387   0.775   4.716 -0.1206 -0.3669  0.0260
17985W        W33116   9.478  12.975  14.651 -0.1577  0.0008  0.0416
17986W        W33117   6.669  12.615  12.982 -0.0871 -0.0912  0.0027
17987W        W33118   6.821   5.708   4.213 -0.1370 -0.1997  0.0901
17988W        W33119  16.819   3.671   9.979  0.0371 -0.3613  0.0189
17989W        W33120   5.817   1.853  15.359 -0.2520 -0.0185 -0.1155
17990W        W33121  17.676  12.417  11.803 -0.0234 -0.2544  0.0142
17991W        W33122   4.387   0.513   1.383  0.2259  0.3200 -0.0633
17992W        W33123   9.617  17.446   4.520  0.0532 -0.0406 -0.0899
17993W        W33124   3.442   6.575   2.377 -0.5723 -0.0343 -0.1492
17994W        W33125   4.860   7.470   0.026 -0.0594 -0.1923  0.2175
17995W        W33126   4.958   1.057  16.247 -0.0066  0.2835 -0.3466
17996W        W33127   3.360   6.630  15.318  0.3207 -0.1727 -0.1751
17997W        W33128   0.497  16.502  15.396 -0.1580  0.1238  0.2300
17998W        W33129  17.667   2.652  15.691  0.2574 -0.1248  0.0129
17999W        W33130   9.857   4.156  14.008 -0.4927  0.1407  0.1207
18000W        W33131   1.384  17.135   1.650 -0.2425  0.2759 -0.0689
18001W        W33132  16.931   0.728  12.706 -0.1344  0.1610  0.0532
18002W        W33133  12.061   3.749  10.758 -0.0619  0.0994  0.0893
18003W        W33134   9.286  17.368   0.986  0.0238 -0.2353 -0.0096
18004W        W33135  12.316   1.647  11.516  0.0340 -0.0339  0.0668
18005W        W33136   6.854  16.129   4.580  0.0078  0.1816 -0.0548
18006W        W33137  11.251   2.016   3.704 -0.0172 -0.2037  0.0837
18007W        W33138  15.294   8.766   2.057  0.0243 -0.1205 -0.1894
18008W        W33139  13.270   6.623   3.980  0.1339 -0.0101 -0.1578
18009W        W33140  14.180   2.141  16.616  0.0341 -0.1400 -0.2072
18010W        W33141   0.706  15.242   0.592  0.1567  0.0448 -0.0477
18011W        W33142  15.222   7.772   5.754 -0.0833 -0.1647  0.1827
18012W        W33143  16.722   4.019   1.457 -0.0273  0.0278 -0.1025
18013W        W33144  11.035  12.510  15.076  0.3276  0.0060  0.2421
18014W        W33145  13.032  10.581   1.300 -0.0363 -0.0084  0.0756
18015W        W33146  12.937  13.617   0.736  0.1053  0.0717 -0.2444
18016W        W33147   8.001   5.593   0.770  0.1686 -0.2506  0.0695
18017W        W33148  10.923  14.588  15.244  0.1777  0.3685  0.0612
18018W        W33149  11.941  16.501   6.149 -0.0477  0.0094 -0.1683
18019W        W33150  16.973  14.143   0.596  0.1090 -0.2242  0.0758
18020W        W33151   7.776   2.966  12.948  0.0219 -0.0551 -0.4678
18021W        W33152   0.392   7.148  15.476 -0.2490 -0.3428  0.1066
18022W        W33153   7.422  17.338  16.731  0.3074 -0.2298  0.0403
18023W        W33154  15.443  13.477   1.322 -0.1882 -0.1786 -0.0870
18024W        W33155  10.677   0.890  16.457  0.0655  0.0208  0.1121
18025W        W33156   6.646  16.728  16.738  0.0026  0.1870  0.0208
18026W        W33157   5.093  13.913   5.015 -0.1115 -0.2801 -0.1856
18027W        W33158  14.938  17.816  14.404  0.3973  0.0738  0.0866
18028W        W33159   4.419  16.993   5.623 -0.0479 -0.0805 -0.1198
18029W        W33160   5.513   1.464  11.493 -0.1205  0.2678  0.1080
18030W        W33161   0.682  14.508   3.641  0.0106 -0.1450  0.2869
18031W        W33162   9.335   1.225  13.921  0.1308 -0.1594  0.0254
18032W        W33163   2.709   1.240  15.250  0.0523  0.1332 -0.1774
18033W        W33164  16.576   5.005  14.601  0.1793 -0.0362  0.0832
18034W        W33165   2.998   6.710  11.268 -0.1339 -0.1661  0.4111
18035W        W33166   2.488  10.321   5.081 -0.0334  0.1490 -0.2993
18036W        W33167  15.512  17.123   3.588 -0.2615 -0.2842 -0.0314
18037W        W33168   9.680   6.365  14.805 -0.1322  0.1891 -0.0046
18038W        W33169  13.457   2.902   2.577 -0.1315 -0.2411  0.0729
18039W        W33170  16.132   6.493   3.102  0.1027 -0.0075 -0.1155
18040W        W33171   2.981   5.558   2.371 -0.1496  0.1973  0.0956
18041W        W33172   0.445  12.704  15.264 -0.1399  0.4008  0.1144
18042W        W33173   4.473  13.179   0.924  0.0098 -0.1562 -0.3250
18043W        W33174  16.192   5.981  16.750 -0.0232 -0.0947  0.1798
18044W        W33175   6.309   1.682  10.889  0.0081 -0.1484 -0.1035
18045W        W33176  14.196   6.317   2.417  0.0887 -0.1332 -0.0244
18046W        W33177   7.488   7.775  16.610  0.0143  0.0553  0.3473
18047W        W33178  13.356   6.362   2.623 -0.0307 -0.2852 -0.0168
18048W        W33179  17.632  16.689   2.589 -0.0774  0.1082 -0.2252
18049W        W33180   5.060   8.885  11.946 -0.0532  0.0225  0.0218
18050W        W33181  13.219  13.459  12.456 -0.0964  0.2043  0.4938
18051W        W33182  16.562  15.938  16.322  0.1066  0.0842 -0.0207
18052W        W33183   4.672  10.261   4.305 -0.2306 -0.0699  0.2081
18053W        W33184  11.234   5.993   2.621 -0.0778  0.1508 -0.2265
18054W        W33185   2.838  10.615   4.915  0.0142 -0.1596 -0.2284
18055W        W33186  11.806   4.318  12.933  0.2116 -0.0358  0.3249
18056W        W33187  15.114   7.037   2.445 -0.1748  0.0176 -0.0585
18057W        W33188  17.143   3.361   2.499 -0.0512  0.2163 -0.0683
18058W        W33189  14.025   2.077   6.847 -0.0205  0.1060 -0.1444
18059W        W33190   3.934   9.944  10.675  0.1032 -0.0661  0.0108
18060W        W33191  14.479   4.028   2.510  0.1551 -0.1325 -0.2204
18061W        W33192  16.225  10.061   0.064 -0.1409 -0.0445 -0.2723
18062W        W33193  11.650   7.523   3.439 -0.2156 -0.2021 -0.3359
18063W        W33194   2.945  16.395  13.950  0.2056  0.3426  0.1061
18064W        W33195  13.929   5.155  11.759 -0.0173 -0.0137  0.0711
18065W        W33196  14.879   4.855  14.956  0.1134 -0.0829  0.0593
18066W        W33197  17.014   6.162  12.538  0.2062 -0.0787  0.0742
18067W        W33198   7.229  10.784   0.455 -0.2030 -0.0293  0.0267
18068W        W33199   7.507   8.898  16.681  0.1972  0.0637  0.1973
18069W        W33200   7.281   5.543   2.413 -0.3237 -0.2590 -0.1453
18070W        W33201  16.098  10.211  11.083 -0.0677  0.0295  0.2300
18071W        W33202   4.780  11.581  12.877  0.0558 -0.0201 -0.0756
18072W        W33203  13.488   9.571  15.071 -0.1789  0.0023 -0.0154
18073W        W33204   6.861  16.404   1.141 -0.0542  0.3247  0.1113
18074W        W33205   0.973  11.128   2.135 -0.1732  0.2039  0.0881
18075W        W33206  12.432  15.743  10.031  0.1438 -0.2756  0.1955
18076W        W33207   6.516  10.352  15.080  0.1401 -0.2927  0.1723
18077W        W33208   8.678   2.148   1.779 -0.1439  0.3157  0.1938
18078W        W33209   4.059  12.458   1.719  0.0661 -0.0622  0.0267
18079W        W33210   3.709   3.051  11.822  0.0283 -0.2374  0.2669
18080W        W33211   5.784   1.770  13.530  0.2012  0.1370 -0.3789
18081W        W33212  12.113   1.067   5.268 -0.2501 -0.1175 -0.1986
18082W        W33213   9.733  15.959  13.592  0.2115 -0.0649  0.0150
18083W        W33214   7.642  10.537   2.587 -0.1551  0.2167  0.0447
18084W        W33215   7.366  11.587   1.599  0.3017 -0.1444  0.2536
18085W        W33216  16.068   7.763  16.640 -0.0136 -0.2347 -0.2983
18086W        W33217  14.175  17.225  13.387 -0.0575 -0.0900 -0.0375
18087W        W33218  14.096   6.138  11.452 -0.0363  0.1829  0.0594
18088W        W33219   9.494   1.056   4.176 -0.1988 -0.4147  0.0430
18089W        W33220   6.981  10.820   2.763  0.0114 -0.2906 -0.4557
18090W        W33221  15.960   8.090  15.893  0.2074 -0.3690  0.0668
18091W        W33222   5.529   1.323  15.690 -0.1821  0.0173 -0.0039
18092W        W33223  13.396   5.888  10.342  0.2059  0.1043  0.0654
18093W        W33224  15.335   3.836  14.482  0.1690 -0.2869 -0.1858
18094W        W33225  10.076   2.034   1.652 -0.3060  0.2453 -0.2066
18095W        W33226  16.984   3.637   4.670 -0.2704 -0.2901  0.0092
18096W        W33227  16.117  12.713  13.909  0.4680 -0.0413 -0.0668
18097W        W33228   2.358  13.525   1.704 -0.3545  0.1889  0.0797
18098W        W33229  15.898   1.187   4.086  0.1972  0.1693  0.1429
18099W        W33230  10.626   6.159   0.053  0.2838  0.1562  0.1057
18100W        W33231   0.013   9.839   5.228 -0.0490 -0.0865 -0.1927
18101W        W33232  12.278   1.065  15.412  0.0227  0.1039 -0.0849
18102W        W33233   1.649  15.714  13.531 -0.0194  0.2159 -0.1148
18103W        W33234  14.046   6.657  14.377 -0.0013 -0.1382 -0.4016
18104W        W33235   2.115   9.617   3.972  0.3724 -0.0657 -0.1555
18105W        W33236   3.968  10.721   3.536  0.0417  0.5214  0.0271
18106W        W33237   4.430   4.482   5.799  0.1834 -0.2428 -0.2863
18107W        W33238   6.603  11.191   1.825 -0.1774  0.2801 -0.1883
18108W        W33239   6.240  11.465  12.973  0.5289 -0.1211  0.1252
18109W        W33240   3.098  11.685   4.700 -0.0370  0.0925 -0.3097
18110W        W33241   9.701  10.362  14.351 -0.1618 -0.3933 -0.2654
18111W        W33242   2.360   2.486   0.603  0.2882  0.0737  0.3880
18112W        W33243  15.125  11.067  13.965 -0.0695 -0.3540 -0.2952
18113W        W33244   4.447   5.014   4.269  0.0190 -0.1862 -0.1718
18114W        W33245  15.275  13.836  13.794  0.3880  0.0889 -0.0582
18115W        W33246   8.970   8.575   2.401 -0.2061 -0.1665 -0.2864
18116W        W33247   9.158   5.301   2.588 -0.0472 -0.1884 -0.0101
18117W        W33248   0.648   9.520   1.845  0.1881 -0.0674 -0.0198
18118W        W33249  12.599  11.813  12.470  0.2285  0.0841  0.1503
18119W        W33250  12.758  15.490   2.717 -0.3135  0.1241  0.1394
18120W        W33251  16.156   6.353   1.335  0.0714  0.1500  0.0350
18121W        W33252  15.226   3.090   4.676 -0.1725 -0.2123  0.0646
18122W        W33253   6.028  10.294   5.580 -0.0004  0.3254  0.1794
18123W        W33254  14.551   3.430  15.847  0.0118 -0.2450 -0.0262
18124W        W33255  13.387   6.715  15.232 -0.2329 -0.0321 -0.0309
18125W        W33256  16.470  10.877   3.673 -0.1241  0.1310 -0.0858
18126W        W33257  14.565   9.089  11.633 -0.3627  0.0385  0.1484
18127W        W33258   8.311  17.076  15.344 -0.1335  0.2190 -0.0620
18128W        W33259  17.650  12.161   3.948 -0.0960 -0.0446 -0.0133
18129W        W33260  12.111   0.990  12.273 -0.0554  0.1091  0.2166
18130W        W33261   0.806   8.865   3.341  0.1416 -0.2396 -0.1620
18131W        W33262   3.474  12.416   0.667 -0.0627  0.0736  0.2976
18132W        W33263   1.974  14.584   3.926 -0.0855  0.0740 -0.2293
18133W        W33264   0.044  11.481   2.987  0.4381 -0.1157  0.0641
18134W        W33265  13.301  11.090   0.322 -0.0199 -0.1650  0.0255
18135W        W33266  14.256   0.589  12.757 -0.0725  0.0017 -0.0265
18136W        W33267  13.183  12.968   3.582 -0.1001  0.3213  0.1158
18137W        W33268  17.488   8.356   5.316 -0.0397  0.1944  0.1066
18138W        W33269   7.907   7.119   3.309 -0.0740  0.0138 -0.2139
18139W        W33270  10.292   3.414   0.600 -0.1428  0.1501 -0.4358
18140W        W33271  12.699   6.648  11.027  0.0864 -0.1664 -0.0420
18141W        W33272   0.351   4.599   4.632  0.0350  0.1176  0.0574
18142W        W33273   9.308  12.139   1.046 -0.1640 -0.1106 -0.0131
18143W        W33274   4.758   7.704  16.361  0.0236 -0.2155  0.1525
18144W        W33275   9.404   3.927   4.387  0.0094 -0.0285 -0.0021
18145W        W33276   7.728   2.390  15.614 -0.1229 -0.0765 -0.4162
18146W        W33277  15.096   6.067   2.497  0.1258  0.1166  0.0793
18147W        W33278   8.819   2.621  15.974  0.0662 -0.1830  0.1474
18148W        W33279  16.696   0.844  15.892  0.2879  0.1075  0.1900
18149W        W33280  13.978  10.952   3.115 -0.1124 -0.1197 -0.2268
18150W        W33281   3.346   0.498  13.580 -0.0794  0.1024 -0.5312
18151W        W33282  14.038   2.424  11.163 -0.0245 -0.3172  0.0098
18152W        W33283  12.742   9.953  11.839 -0.0276 -0.0942 -0.0476
18153W        W33284   4.723  13.451   2.090 -0.1282 -0.0226  0.1436
18154W        W33285  11.452   9.622  14.052  0.0919 -0.1927 -0.0638
18155W        W33286  17.833   9.635  15.784 -0.1118 -0.0875 -0.0631
18156W        W33287  13.908   0.654   3.112 -0.1007  0.1164 -0.0149
18157W        W33288  12.786   0.692  11.887  0.0359  0.2310 -0.1603
18158W        W33289   0.174  11.747  16.715 -0.1149  0.1416 -0.0848
18159W        W33290   6.042   9.799  13.464  0.2313  0.0666  0.0333
18160W        W33291   4.289   2.440  14.315  0.3528 -0.1726  0.1849
18161W        W33292   1.801   9.311  12.292  0.0899 -0.1697 -0.0381
18162W        W33293   0.428  10.946   1.378  0.1256  0.0199  0.1195
18163W        W33294  17.172  17.713  14.838  0.2525 -0.0327 -0.1591
18164W        W33295   2.257   4.476  16.007 -0.1470 -0.0033 -0.0888
18165W        W33296  15.305   4.774   6.048  0.1298 -0.1418 -0.1013
18166W        W33297  13.263  10.743   0.944 -0.1627 -0.1372 -0.1693
18167W        W33298   5.534  14.783   1.647  0.2660  0.1307 -0.0877
18168W        W33299  13.205   2.012   1.093  0.0720 -0.1995 -0.0930
18169W        W33300   1.026  13.895   4.542  0.0330  0.1052 -0.3025
18170W        W33301   3.556  12.998   3.049  0.0557 -0.0715  0.3466
18171W        W33302  14.551   7.940   2.898  0.0387  0.2183  0.4456
18172W        W33303   3.384   9.762   4.784 -0.1714  0.2176  0.1070
18173W        W33304  11.197  12.835   1.167 -0.0067  0.1238  0.1206
18174W        W33305  13.747  17.798   1.224 -0.2967 -0.0285  0.0257
18175W        W33306  10.828  17.656   5.037 -0.3066 -0.4111  0.1825
18176W        W33307  14.526  15.048   1.262 -0.0051 -0.3272 -0.3886
18177W        W33308   0.328  14.699   3.283  0.0486 -0.0640 -0.2960
18178W        W33309   6.194   1.362   2.451  0.0847  0.1058 -0.0053
18179W        W33310  16.839  16.401  16.360  0.1385 -0.0692  0.0153
18180W        W33311   1.616  10.235   4.378 -0.2948  0.2616 -0.0040
18181W        W33312   4.799   3.496   5.110 -0.3524 -0.0978 -0.1905
18182W        W33313  15.583  10.769   6.243 -0.2427  0.2150  0.2509
18183W        W33314  15.387  13.562   0.831 -0.3570 -0.2100 -0.0481
18184W        W33315  15.473   0.008  14.437 -0.0012 -0.0436 -0.0822
18185W        W33316  16.884  13.890   2.228  0.0531  0.1099  0.1037
18186W        W33317   9.897   6.877  11.004  0.0786 -0.0719  0.0314
18187W        W33318   7.298   9.952  15.202 -0.0157  0.3252  0.3499
18188W        W33319   4.664   0.191   3.337  0.0167  0.1165  0.2733
18189W        W33320  12.661  14.754  14.907 -0.2230  0.0987  0.0907
18190W        W33321   3.690   7.461   1.007  0.1538 -0.2031 -0.0060
18191W        W33322   5.593  17.817  11.764 -0.1378 -0.0804 -0.0433
18192W        W33323   5.458   5.436  11.437 -0.1278 -0.1462  0.1789
18193W        W33324  10.170  15.952   0.571  0.1705 -0.1240  0.1458
18194W        W33325   3.069  14.605  10.888 -0.2103  0.0709  0.0157
18195W        W33326   5.787  15.470   4.786 -0.1165 -0.0655  0.2453
18196W        W33327   7.904   6.242  14.543 -0.2276  0.2080  0.0478
18197W        W33328   7.066  16.548  15.935 -0.1181  0.0600  0.1044
18198W        W33329   0.354   2.357   4.829  0.0904 -0.1563 -0.1317
18199W        W33330   0.966   4.738   2.851  0.0223 -0.1472 -0.1267
18200W        W33331   6.045  13.959   5.607  0.0482  0.1033 -0.1695
18201W        W33332  14.157   7.587   0.847 -0.0792  0.0202 -0.0629
18202W        W33333   9.877  14.603   4.025 -0.2112 -0.1509 -0.1241
18203W        W33334   5.701  14.823   2.207  0.1592  0.2554 -0.1085
18204W        W33335   0.602  13.896  12.481  0.0387  0.3189  0.0397
18205W        W33336   5.537   0.829   4.342  0.0222  0.1374 -0.0381
18206W        W33337   1.957   6.346   0.238  0.0102  0.4184 -0.1860
18207W        W33338  17.025   2.090   5.426  0.2415  0.1713  0.0687
18208W        W33339   6.346   7.493  15.760 -0.0679 -0.1836  0.0007
18209W        W33340  10.372  16.568  14.560  0.3346  0.2202 -0.1367
18210W        W33341   4.634   3.901   2.736  0.2811  0.1290 -0.0352
18211W        W33342   8.684   8.358  15.254 -0.0073 -0.2315 -0.0826
18212W        W33343  16.588   5.376   3.335  0.2403  0.1585 -0.4358
18213W        W33344  17.739  13.999   0.259  0.2416  0.2508 -0.1855
18214W        W33345  13.260  10.898   2.225  0.2013 -0.0446 -0.2014
18215W        W33346  15.301   2.334  16.175  0.2514 -0.0779  0.3254
18216W        W33347   4.197  17.829   3.101 -0.1784 -0.2595 -0.1692
18217W        W33348   8.938  10.006  13.208 -0.3124  0.1474  0.1182
18218W        W33349   8.002  13.981   4.868 -0.0873  0.1082  0.3058
18219W        W33350   4.520  12.838  12.913  0.1012  0.1764 -0.0115
18220W        W33351   6.918   9.734   3.930  0.2794 -0.0091  0.0267
18221W        W33352   3.136   4.203   2.525 -0.1143 -0.0756 -0.2536
18222W        W33353  11.706   4.797   3.704  0.1496 -0.2918  0.2223
18223W        W33354   8.080   9.674   5.048  0.0883  0.1449  0.1354
18224W        W33355   1.659   5.944   0.309 -0.1644 -0.3466 -0.2677
18225W        W33356   2.632   6.426   2.530 -0.1608  0.1506 -0.0710
18226W        W33357  13.690   5.833  13.787  0.1196 -0.3961 -0.0326
18227W        W33358  16.913  16.066   4.776 -0.0826  0.0287 -0.1414
18228W        W33359   5.254   1.887   5.230  0.0840  0.1502 -0.2535
18229W        W33360  11.282   8.246  14.289 -0.1992  0.0229 -0.2065
18230W        W33361  15.501  16.085  15.234  0.0072  0.2324 -0.0656
18231W        W33362  11.558  10.861   4.851  0.3801 -0.4317  0.2465
18232W        W33363   7.987   5.661  14.855  0.1563  0.1059  0.0925
18233W        W33364  15.868   3.999  14.535  0.1159 -0.2680 -0.2599
18234W        W33365  12.253   0.311  13.161 -0.1195 -0.2279  0.2290
18235W        W33366  13.478   3.418   5.728  0.0714 -0.2433 -0.0989
18236W        W33367   5.646  17.766   3.441  0.0099 -0.0352 -0.1960
18237W        W33368  10.930   1.995  15.833 -0.0879 -0.2378 -0.0382
18238W        W33369  17.002  11.976   1.540  0.0079 -0.1671 -0.0690
18239W        W33370  13.088  15.643  14.707 -0.1485  0.0864 -0.4453
18240W        W33371   7.810  14.984  12.231  0.0727  0.0173  0.0930
18241W        W33372  12.050  10.803   5.656  0.1238  0.1860  0.0418
18242W        W33373   2.239   5.195  15.280 -0.1874 -0.1280  0.0263
18243W        W33374   7.962   4.837   3.370  0.1082 -0.1746  0.0795
18244W        W33375   3.547   1.420   2.333  0.0680 -0.1884  0.1696
18245W        W33376  10.516   5.053  13.686 -0.2734 -0.1630 -0.1012
18246W        W33377   3.912  11.881  12.289 -0.2586 -0.0324  0.2788
18247W        W33378   0.998  13.083   0.353  0.4138 -0.1197 -0.1450
18248W        W33379   2.530  16.772   0.853  0.1196  0.1529  0.0000
18249W        W33380  10.582  13.594  15.302 -0.3135 -0.0504 -0.0980
18250W        W33381   6.978   6.828   3.387  0.2827  0.0982  0.0344
18251W        W33382   7.264   2.464   2.448  0.1159 -0.4903  0.0960
18252W        W33383  12.239  16.968  14.968  0.2379 -0.0954 -0.0342
18253W        W33384   9.906  14.405  15.200  0.0864 -0.0402  0.0323
18254W        W33385   7.599  10.725   4.149  0.1052  0.2147  0.1235
18255W        W33386   7.306   6.116  12.852  0.3045 -0.3150 -0.2513
18256W        W33387   3.760  16.856   0.228  0.1555 -0.2466  0.0860
18257W        W33388   9.922   4.224  16.372 -0.0714  0.1083 -0.0962
18258W        W33389   7.531  15.602  14.822  0.1526 -0.0772  0.1317
18259W        W33390   3.054   9.808   2.530  0.0252  0.1527 -0.2950
18260W        W33391   6.792  11.464   0.697 -0.0923 -0.0949 -0.1943
18261W        W33392   9.027   7.956  11.903  0.2753 -0.2980  0.1381
18262W        W33393   6.968   2.794  11.100 -0.2613  0.1370  0.1630
18263W        W33394   9.616   9.683   5.650  0.1321  0.0507  0.2692
18264W        W33395  11.251   9.061  16.741  0.2863 -0.3813  0.2972
18265W        W33396   6.733   0.724  11.367  0.1840 -0.1828  0.0869
18266W        W33397   0.875  13.490   3.766  0.1088  0.5014 -0.1710
18267W        W33398   6.513  12.999   5.401 -0.0360 -0.0030  0.0673
18268W        W33399  13.546  14.616   9.948  0.1595 -0.1753 -0.3229
18269W        W33400  14.132   0.492   1.184  0.1953 -0.1027  0.4037
18270W        W33401  13.276   9.513  16.064 -0.2246  0.1854  0.1930
18271W        W33402   7.912  12.474  16.404 -0.0885 -0.1941  0.3002
18272W        W33403   8.293   9.325   1.486  0.1750  0.0414 -0.0550
18273W        W33404   2.132   2.871   2.560  0.1576 -0.0386  0.1959
18274W        W33405  12.917  11.089  11.992 -0.0656 -0.0999 -0.1592
18275W        W33406  10.165   2.910   1.886 -0.1308  0.0491 -0.1495
18276W        W33407  12.627   7.121   4.871 -0.0017 -0.0570  0.0282
18277W        W33408   5.905  10.878   0.443  0.1545  0.2422 -0.3212
18278W        W33409   9.416  14.390  15.076 -0.1588  0.2354 -0.0219
18279W        W33410  13.805  13.583  13.867 -0.1410 -0.1757  0.1100
18280W        W33411   2.847   8.761  11.375 -0.2093 -0.1331  0.0350
18281W        W33412   8.480  14.156  14.755 -0.2115  0.2384  0.0006
18282W        W33413   0.594  17.652   5.241  0.2557  0.0279  0.0534
18283W        W33414  12.287  11.471   4.045 -0.0306  0.1124  0.1489
18284W        W33415   4.674  15.399   5.488 -0.0537 -0.0185 -0.1338
18285W        W33416  13.517   9.063  15.319  0.1887 -0.3071 -0.0951
18286W        W33417   0.814  11.423  11.538 -0.2650  0.0131 -0.1283
18287W        W33418  16.735  14.384   4.853 -0.3427 -0.0367  0.0477
18288W        W33419   6.476   5.831  16.770  0.0782  0.1617  0.1062
18289W        W33420   9.326  13.837  12.472  0.0602 -0.0185 -0.0693
18290W        W33421   4.331  17.222   5.216 -0.3490 -0.1742  0.1916
18291W        W33422  10.010  12.277   4.480 -0.0346  0.0839 -0.0685
18292W        W33423   7.889  17.248   3.774  0.0092  0.0387 -0.0910
18293W        W33424   0.720   1.022  11.840 -0.0495  0.0732  0.2066
18294W        W33425  16.385   4.137   0.518  0.0438  0.0884  0.2670
18295W        W33426   0.712  17.729  14.456  0.2603  0.3505  0.0406
18296W        W33427   0.591   0.528  12.577 -0.1730 -0.0635  0.1396
18297W        W33428   7.874   7.472   0.072  0.1230 -0.3073 -0.0735
18298W        W33429   2.698   3.804  13.259 -0.0275 -0.1908 -0.3942
18299W        W33430  16.410  13.843   6.109  0.0484 -0.1932 -0.0081
18300W        W33431   5.743  17.038   0.826  0.0371 -0.0551  0.2136
18301W        W33432   0.381   1.545  13.573 -0.0867 -0.0556  0.2980
18302W        W33433   2.326  11.952   5.937  0.1487 -0.0678 -0.3104
18303W        W33434   9.860  11.515  16.540  0.1608  0.0369 -0.1130
18304W        W33435  17.506  17.302   4.748 -0.2221 -0.2663 -0.0678
18305W        W33436   4.236   9.126   0.706 -0.0197 -0.0233 -0.3837
18306W        W33437   8.375  10.382  16.071 -0.0753 -0.0435  0.5825
18307W        W33438   9.512   3.598  13.381  0.0486  0.0001  0.1097
18308W        W33439   6.851  11.262   5.425 -0.0023  0.0133 -0.1441
18309W        W33440  14.606   7.864  11.647  0.0246  0.0343 -0.0666
18310W        W33441   0.889   4.619   2.380  0.0150  0.0909 -0.1530
18311W        W33442  17.536   2.642   2.357  0.2254  0.0710  0.1906
18312W        W33443   1.197   1.940  15.397 -0.2236 -0.2402 -0.0919
18313W        W33444  16.555  10.771  13.465 -0.2387  0.0432  0.0978
18314W        W33445  10.962  10.845   3.190 -0.0479  0.1107  0.0761
18315W        W33446   8.096  11.202   2.127 -0.4691  0.1462  0.0263
18316W        W33447  17.234   6.668  12.052 -0.2594  0.0971  0.0821
18317W        W33448  12.926  11.500  12.317  0.1754  0.2518  0.2247
18318W        W33449   1.716   0.846  16.487 -0.4346  0.0819 -0.0946
18319W        W33450   3.091  17.530  16.267 -0.1197  0.0838  0.0239
18320W        W33451  14.641  12.808  14.662 -0.2385  0.3675  0.1402
18321W        W33452   4.141   5.699  14.276  0.3475  0.5272 -0.0125
18322W        W33453   0.310  15.199  16.126  0.0006  0.0412 -0.0511
18323W        W33454  11.917   0.827  15.824  0.0807  0.3189  0.0591
18324W        W33455   4.576  14.190  11.277  0.0881 -0.3337 -0.0525
18325W        W33456   3.740   1.189   2.776 -0.4633 -0.0839  0.0526
18326W        W33457   6.090  10.311   1.868 -0.2630  0.2048 -0.0466
18327W        W33458  12.145   0.118  14.835 -0.0168  0.1729  0.2531
18328W        W33459   9.795  15.890   5.813 -0.5880  0.0480  0.0416
18329W        W33460  16.284   8.465  13.088  0.0179 -0.0481 -0.3354
18330W        W33461  13.519   5.249  16.372  0.2001  0.1195  0.4797
18331W        W33462   6.837   7.881   1.748 -0.1090 -0.2007  0.1284
18332W        W33463  11.941   3.920   0.084  0.1610  0.0098 -0.1288
18333W        W33464   4.458   4.606  11.290 -0.2142 -0.3121  0.0571
18334W        W33465   1.445  13.422  12.461 -0.1770  0.0759 -0.0718
18335W        W33466  14.884   5.083  13.647  0.0143  0.1943 -0.1313
18336W        W33467   7.118  16.993  12.231  0.0545 -0.0561  0.3645
18337W        W33468   1.111  14.752  13.006 -0.1571 -0.2251 -0.1141
18338W        W33469  14.341   5.261  13.611  0.3192  0.0819  0.1321
18339W        W33470   0.014   9.415  13.140  0.0140  0.0716  0.1728
18340W        W33471   2.116  15.398  13.565 -0.1813  0.0995 -0.0107
18341W        W33472   4.920   5.300  14.948  0.0973  0.1978  0.0963
18342W        W33473  14.430   2.922   1.498  0.2283  0.3068 -0.0516
18343W        W33474  16.874  17.788   1.175  0.3477 -0.0226 -0.0196
18344W        W33475  12.750   2.243   3.581 -0.3695  0.2741  0.0077
18345W        W33476  14.689   5.720  15.136 -0.2938 -0.0222  0.2119
18346W        W33477   3.874   8.540   6.272 -0.2709 -0.4076 -0.1728
18347W        W33478  11.294   8.920   4.960  0.0651 -0.0051  0.0871
18348W        W33479   1.794  11.958  14.936 -0.0386 -0.0257  0.2469
18349W        W33480  15.341   1.949  13.560  0.0822 -0.3227  0.1179
18350W        W33481   5.289  12.229   4.888  0.1360 -0.0803 -0.2449
18351W        W33482   3.164   1.617  11.718 -0.0752  0.1100 -0.0541
18352W        W33483   8.558   9.552  15.628 -0.0844 -0.0590  0.0868
18353W        W33484  16.586  15.231  16.249 -0.0021  0.1360  0.2833
18354W        W33485  11.003   2.475   5.690  0.0863  0.0964 -0.1475
18355W        W33486  14.837   5.232   2.089 -0.1594  0.2009 -0.0280
18356W        W33487  12.334   9.609   5.846 -0.1140  0.0512 -0.0766
18357W        W33488   1.521   1.748   4.237 -0.1370  0.1958 -0.2559
18358W        W33489   2.945   4.367   1.918 -0.3834  0.0045  0.2882
18359W        W33490   8.713  14.820  14.667 -0.0099  0.0730  0.1939
18360W        W33491  11.209  16.120   3.504  0.0736  0.0413  0.1542
18361W        W33492  11.600  12.908  13.371  0.0849 -0.2267  0.1861
18362W        W33493  13.762   4.470  14.280 -0.2180  0.1522  0.1671
18363W        W33494   5.378  10.472  12.274 -0.1075  0.0082 -0.0302
18364W        W33495   0.561   9.181   4.099  0.0098 -0.4210  0.1154
18365W        W33496  12.137   3.510   4.703 -0.1524 -0.0030  0.0161
18366W        W33497  16.197   4.219   2.084 -0.0960 -0.2521  0.0001
18367W        W33498  17.645  17.821  15.378  0.1655 -0.1113 -0.0551
18368W        W33499   0.904  17.022  16.245 -0.1112  0.1082 -0.0115
18369W        W33500   3.466  15.454  14.267 -0.2443  0.1199 -0.2139
18370W        W33501  13.510  15.280  11.506 -0.0189 -0.0040 -0.0548
18371W        W33502  16.097   9.327   5.005 -0.0129  0.1309  0.2256
18372W        W33503  15.785   7.433   1.136  0.0724  0.0170  0.0498
18373W        W33504   9.908   5.781  10.862 -0.2597 -0.1987  0.0130
18374W        W33505   4.844   7.835  15.271 -0.2977 -0.0409  0.1047
18375W        W33506  13.937  12.339   3.629 -0.1803  0.0883 -0.0711
18376W        W33507   9.309  16.745  13.224 -0.0914  0.1970 -0.0742
18377W        W33508   8.130  11.272  10.903 -0.2730  0.0863  0.0380
18378W        W33509  10.746  13.244  14.291 -0.0552  0.2803  0.0527
18379W        W33510   4.212   7.528   0.254  0.1275 -0.0501 -0.0068
18380W        W33511   4.696  16.291   1.344 -0.0349 -0.1975  0.1040
18381W        W33512  17.429  14.959  13.525 -0.1267  0.1753  0.0519
18382W        W33513  15.904   3.803   2.318  0.2217  0.1009  0.1869
18383W        W33514   0.609   6.513   1.959 -0.1876  0.1842  0.0079
18384W        W33515  16.690  17.183   1.126  0.1438  0.3098  0.2454
18385W        W33516  11.698   9.468   4.430  0.1474 -0.0641  0.0344
18386W        W33517   3.178   6.836   5.224  0.0446 -0.0314 -0.1157
18387W        W33518   5.917   7.949   5.238 -0.3960 -0.1729 -0.1246
18388W        W33519   7.931   8.310   3.172 -0.1801 -0.3408 -0.1461
18389W        W33520   5.440  10.361   3.477 -0.3538  0.0558  0.0458
18390W        W33521  10.117   9.869   5.521 -0.0592 -0.1867 -0.1633
18391W        W33522  12.070  14.526   4.076 -0.1325 -0.0605  0.1942
18392W        W33523  10.216   7.165  15.723  0.2797  0.0294  0.3159
18393W        W33524   9.179  11.409   5.012 -0.0757 -0.0748 -0.0091
18394W        W33525   3.188  10.650  12.416  0.2890  0.0008  0.2632
18395W        W33526  17.184  15.190   2.058  0.2837 -0.0435 -0.1414
18396W        W33527   9.759   5.982  11.843 -0.1307 -0.0033  0.0654
18397W        W33528   3.295  12.067   0.327  0.1843 -0.1678  0.0591
18398W        W33529  14.666   5.050  15.684  0.1170 -0.2613  0.0767
18399W        W33530   2.337   9.965   3.704  0.0902 -0.1250  0.2042
18400W        W33531   3.505   6.741  13.796  0.0979 -0.2226 -0.0733
18401W        W33532   8.017   2.582  12.808  0.1150 -0.1494  0.1459
18402W        W33533   6.633   0.942  14.647  0.0771  0.0420  0.4362
18403W        W33534   0.785  12.192  10.784  0.0590  0.2499  0.2314
18404W        W33535   7.207  15.322  14.613  0.2575  0.1458 -0.0910
18405W        W33536  17.197   3.669   2.891 -0.0410  0.1804 -0.3204
18406W        W33537  16.382   5.563   5.761 -0.1188  0.0363  0.0127
18407W        W33538   0.035   4.052  12.326  0.1875  0.3580  0.4583
18408W        W33539   5.048   6.333  12.362  0.0173  0.0260  0.2457
18409W        W33540   7.338  16.136  16.374  0.0554  0.1836 -0.0202
18410W        W33541   8.302   5.539  11.025  0.1539  0.0021  0.1023
18411W        W33542  10.623   7.799   1.773  0.0229  0.1182 -0.0130
18412W        W33543   6.084  17.029  15.987 -0.1486  0.2759  0.0238
18413W        W33544   6.816   5.818   2.405  0.2919 -0.0135  0.0810
18414W        W33545   3.795  13.828   4.363 -0.1619 -0.1223  0.0025
18415W        W33546  14.185   2.348   5.364  0.0757  0.2208 -0.0245
18416W        W33547  16.453  11.417  12.886  0.0497  0.2173  0.3448
18417W        W33548   3.072   0.668   0.503 -0.0444 -0.2014 -0.2913
18418W        W33549  17.214  15.424  12.243 -0.1369  0.1809 -0.0882
18419W        W33550  15.107  12.736   4.061  0.1461 -0.0351  0.1411
18420W        W33551  14.085   7.663   3.752  0.2570 -0.0749  0.2600
18421W        W33552  13.567  12.311   1.834  0.2097  0.0563  0.1357
18422W        W33553   8.235  17.227   4.745 -0.2137  0.0516  0.2890
18423W        W33554  16.046   4.885  16.122 -0.0828  0.0587 -0.2265
18424W        W33555   5.404  16.901   5.376 -0.1078 -0.0704  0.2410
18425W        W33556  13.641   5.928  14.356 -0.0017  0.0934  0.1835
18426W        W33557   9.623  13.675  13.936  0.2184 -0.0425 -0.0363
18427W        W33558   0.193   6.665   2.660  0.1985 -0.0831  0.6423
18428W        W33559  10.221   4.434   0.928 -0.2960 -0.0279  0.0918
18429W        W33560   2.120   1.868   5.565  0.0930  0.1740 -0.0863
18430W        W33561  14.522   0.953   4.159  0.1813  0.0334 -0.0312
18431W        W33562   7.023   8.052  16.489 -0.0525 -0.1755  0.1911
18432W        W33563   7.852   4.159  13.706  0.0747 -0.0717 -0.0422
18433W        W33564  17.174  13.444  13.446 -0.2541  0.4556  0.0685
18434W        W33565   0.318  16.688   4.258 -0.0053  0.1714  0.3189
18435W        W33566  13.515  10.802  16.295 -0.0202  0.0177  0.0148
18436W        W33567   2.441   3.590  12.714 -0.0737 -0.1506  0.4037
18437W        W33568   6.678  14.733   2.056 -0.0622 -0.3346 -0.0005
18438W        W33569  10.711   1.162   0.104  0.0008 -0.1135 -0.0412
18439W        W33570  11.097   7.851   5.536 -0.3081 -0.0983  0.1949
18440W        W33571   9.222   2.271   1.695  0.0971  0.1628  0.0599
18441W        W33572   2.203   8.255  11.614  0.2107  0.0493  0.0118
18442W        W33573  13.638   4.623  16.020 -0.2119  0.2375  0.1119
18443W        W33574  16.204  11.633  11.506 -0.3399 -0.2303  0.2160
18444W        W33575  16.870  13.236  11.634 -0.2345 -0.1995  0.0657
18445W        W33576   0.495   9.077   1.325 -0.3913  0.0221 -0.2145
18446W        W33577   4.421  11.911  14.421 -0.0543  0.2656 -0.1120
18447W        W33578  16.126   0.102   4.908  0.2044 -0.1748  0.1512
18448W        W33579  11.440   9.153   5.427 -0.0398  0.1714 -0.1600
18449W        W33580  13.828  11.143  15.462 -0.1023 -0.2510 -0.0438
18450W        W33581   4.422  10.792  15.378  0.1662  0.2730  0.1192
18451W        W33582  13.289  12.681  12.677 -0.2659 -0.1128 -0.1055
18452W        W33583   7.637   1.144   1.751 -0.0789 -0.2483 -0.0222
18453W        W33584   3.083  13.837   0.230  0.3049  0.1368  0.2660
18454W        W33585   0.198   6.617  13.282  0.1012  0.0240  0.1841
18455W        W33586   7.475  12.579   5.281 -0.2858  0.0336  0.0227
18456W        W33587  12.228  13.123   1.777  0.0853 -0.2450  0.1366
18457W        W33588  16.704  13.039   0.870 -0.0388 -0.1034 -0.2067
18458W        W33589  14.330  12.600   6.258  0.0502  0.4102 -0.0379
18459W        W33590   0.166   2.557   3.957 -0.1837  0.0036  0.2081
18460W        W33591  17.773   8.117  14.702  0.1394  0.4883 -0.2200
18461W        W33592   9.854  13.013   6.368  0.1483 -0.2090  0.0223
18462W        W33593   9.891  15.820   3.417 -0.1587  0.0485  0.0543
18463W        W33594  16.963   7.337  14.556 -0.0662 -0.3164 -0.0065
18464W        W33595   6.554   6.744   4.162 -0.0073 -0.2111 -0.3299
18465W        W33596  16.000   3.200   3.887 -0.1115 -0.0116  0.0118
18466W        W33597  17.744   8.464  13.526 -0.3087  0.1276 -0.1306
18467W        W33598   3.228   8.882  13.114  0.1741 -0.1916  0.1511
18468W        W33599   6.708  12.221  13.856 -0.0076 -0.1729 -0.1630
18469W        W33600  13.250   0.922  11.189 -0.2275  0.1034 -0.0331
18470W        W33601   2.720  11.663  15.887  0.2165  0.0884  0.4336
18471W        W33602  13.059   9.145   5.378 -0.1340 -0.0545 -0.1491
18472W        W33603   3.878   1.256  14.572  0.0645 -0.0700 -0.1093
18473W        W33604   1.173  10.749   0.183 -0.0198  0.0990 -0.0168
18474W        W33605   6.804  10.233   3.658  0.0802  0.0813 -0.3439
18475W        W33606  15.085   5.644  16.464 -0.0866 -0.2201 -0.1238
18476W        W33607  13.525  16.634  11.459 -0.0138 -0.2541  0.1242
18477W        W33608   9.930  12.474   3.548  0.1465 -0.1220 -0.1809
18478W        W33609  12.245   9.137  10.783  0.0697 -0.0871  0.0546
18479W        W33610  13.117  17.809  16.660 -0.1896  0.0497 -0.1247
18480W        W33611   4.895   2.040  15.807 -0.0638  0.2107 -0.2433
18481W        W33612  13.708  16.242  16.520  0.0016  0.2835  0.2237
18482W        W33613  14.107  10.672  16.687 -0.0018 -0.0087 -0.2327
18483W        W33614   6.063   5.169   0.389  0.2758 -0.0367 -0.0345
18484W        W33615  17.715   6.059  11.621 -0.1868 -0.2179 -0.1849
18485W        W33616  17.420  16.912   1.157  0.1756  0.0829 -0.0041
18486W        W33617   5.451   9.877  11.481 -0.0555 -0.1313 -0.0691
18487W        W33618   1.866   9.776   4.336  0.3027  0.1384 -0.2167
18488W        W33619   3.334   9.966   3.354 -0.0430 -0.0303  0.2415
18489W        W33620   9.631   9.642   0.217 -0.1739  0.2257  0.0268
18490W        W33621   0.760   6.324   0.446  0.1338  0.1102 -0.2860
18491W        W33622  15.639   3.396   0.709  0.0347 -0.0023  0.0351
18492W        W33623   6.803   9.536   5.571 -0.0820  0.0576  0.0145
18493W        W33624  16.726   1.342  15.886  0.0541 -0.0813 -0.2007
18494W        W33625   3.225  12.475  13.090  0.1051 -0.0681  0.1198
18495W        W33626   9.225   8.984   5.454 -0.0380 -0.1360 -0.2596
18496W        W33627   6.220   1.927  14.903 -0.0347 -0.1580  0.0677
18497W        W33628   4.580   9.749   6.161 -0.2371  0.2751  0.3041
18498W        W33629   6.078   5.540   2.883  0.1177  0.0418  0.1469
18499W        W33630   5.182   3.018  11.404  0.0681 -0.0028  0.1867
18500W        W33631  16.176  14.235   4.695 -0.1866  0.2507 -0.0505
18501W        W33632  10.949   9.435  13.885  0.2897 -0.4080 -0.2608
18502W        W33633   5.071  13.065   5.071 -0.0183  0.1644  0.3758
18503W        W33634   3.256   6.826   0.064 -0.3286  0.1599 -0.2550
18504W        W33635   0.164   9.710   1.724  0.4747 -0.1180  0.0620
18505W        W33636   5.152  12.145  11.661  0.2278 -0.2278 -0.2117
18506W        W33637   1.281   7.763   2.657  0.1838  0.0730 -0.2807
18507W        W33638   5.816  14.741   5.281 -0.1858 -0.1262 -0.1694
18508W        W33639   4.416  13.598  12.520 -0.0991  0.1611 -0.0297
18509W        W33640   5.476  16.571  11.512 -0.1131 -0.0647 -0.3448
18510W        W33641   1.822  15.355  15.236  0.0698  0.3198 -0.1663
18511W        W33642  16.938   9.199  12.232  0.1198  0.3047  0.2054
18512W        W33643   7.250  14.801  11.911  0.0808 -0.2438 -0.2095
18513W        W33644  12.637  12.089   4.544 -0.1150  0.0611 -0.1490
18514W        W33645  17.379  14.727  11.856  0.0092  0.1156  0.2442
18515W        W33646   8.580   4.704  11.631 -0.0677 -0.1224 -0.0466
18516W        W33647  16.022  16.558   3.930 -0.1751 -0.1320  0.0359
18517W        W33648   4.885  12.016   5.116 -0.1324 -0.0311  0.0689
18518W        W33649   5.933   3.720  11.020 -0.1129 -0.3033  0.2696
18519W        W33650  13.169  14.073   0.531  0.3392  0.1386 -0.1930
18520W        W33651  16.940  13.452   2.891  0.0110 -0.1107  0.1142
18521W        W33652   2.739   2.386  14.995  0.1514  0.0314  0.1068
18522W        W33653  16.218   4.902   4.261  0.1469 -0.1789 -0.0944
18523W        W33654   2.689   2.746  14.103  0.1206  0.1418 -0.0504
18524W        W33655   5.307   2.707  12.960 -0.1132  0.1518 -0.2003
18525W        W33656   6.440   7.860   3.752  0.0208 -0.0296 -0.1053
18526W        W33657  15.542   9.497  11.328  0.2255 -0.2053  0.1615
18527W        W33658  12.183   5.768   2.835  0.0941 -0.2214  0.2213
18528W        W33659   0.892   2.349  16.683 -0.1470 -0.1478 -0.0072
18529W        W33660  13.696  14.967   0.498 -0.3578  0.1104 -0.1783
18530W        W33661   8.488   2.986  11.855  0.0454  0.2762  0.3382
18531W        W33662   6.829   5.846  11.553 -0.2886 -0.0181  0.0952
18532W        W33663   8.882   6.998  12.278 -0.2533  0.1094 -0.2636
18533W        W33664  14.569  12.217  13.351  0.0973 -0.1531 -0.2581
18534W        W33665  16.340   3.623   3.379  0.1377 -0.0331  0.0724
18535W        W33666  15.718  14.040   3.355 -0.2224 -0.0208  0.3309
18536W        W33667  12.267  14.302  15.703 -0.0380 -0.0605  0.1099
18537W        W33668   1.528   5.749   4.758  0.3832  0.2164 -0.0171
18538W        W33669  16.495   8.491  13.647 -0.1857  0.2129 -0.0139
18539W        W33670   8.805  12.214  12.059  0.2136  0.0377 -0.3141
18540W        W33671   6.721  17.301   1.179 -0.1330 -0.0341 -0.0966
18541W        W33672   1.290  11.151   0.952 -0.0593  0.2921  0.1188
18542W        W33673   6.544   7.277  14.518 -0.0503  0.1567  0.1258
18543W        W33674  11.369  14.343  12.280  0.0325  0.0826  0.0086
18544W        W33675  11.997   7.086  14.004 -0.2048  0.2084 -0.1549
18545W        W33676  17.000  15.619   1.594  0.2388  0.0169 -0.0580
18546W        W33677   9.274  16.927   5.007  0.0871  0.1452 -0.0708
18547W        W33678  13.582   6.825  11.241 -0.0118 -0.0778 -0.3499
18548W        W33679  11.746   6.743   2.767  0.0115 -0.0224  0.0252
18549W        W33680   7.704  16.315  15.030  0.1378 -0.0454 -0.1867
18550W        W33681   1.227  16.380   4.651  0.1665  0.0391 -0.1883
18551W        W33682  17.432   1.285  14.177  0.2679 -0.0106  0.0348
18552W        W33683   1.376  11.108  16.646  0.0682 -0.0513 -0.1024
18553W        W33684   7.558  16.381   5.266 -0.2895  0.4005 -0.2704
18554W        W33685   3.726   5.756  15.087 -0.0233  0.2502 -0.0764
18555W        W33686   5.163   4.309  10.756 -0.0624  0.2469  0.2517
18556W        W33687   1.104  13.694   0.926 -0.0117  0.0319  0.0860
18557W        W33688   5.477   2.683   0.083  0.0956 -0.2207 -0.2551
18558W        W33689   6.660  16.280  11.929 -0.0930  0.1588 -0.2184
18559W        W33690   7.837  11.731   1.989  0.0940 -0.2126 -0.1969
18560W        W33691   2.021  11.024   0.123 -0.1989 -0.2302  0.0419
18561W        W33692   3.969  11.381  16.638 -0.1559  0.0143  0.2705
18562W        W33693  14.676   4.188   0.493  0.0535  0.0235 -0.1843
18563W        W33694  10.102   7.293   4.484  0.0758 -0.3247 -0.0151
18564W        W33695   3.148   9.950   1.709 -0.1206  0.1288 -0.1231
18565W        W33696  15.542  17.546   2.736 -0.1212  0.2429  0.2380
18566W        W33697   2.268  14.857   2.520 -0.1009  0.0396  0.1550
18567W        W33698  13.533  15.635  15.553 -0.0135  0.0201 -0.2623
18568W        W33699  12.848  12.008   3.548 -0.0565  0.2772 -0.0930
18569W        W33700  11.556  12.017  15.558  0.1379  0.1471  0.1371
18570W        W33701  16.620   4.684   5.054 -0.0492  0.2472 -0.1476
18571W        W33702   7.455   1.498   3.890  0.2157 -0.2786 -0.3849
18572W        W33703   5.017   9.329   0.825 -0.0871  0.2180 -0.0257
18573W        W33704  10.207  14.172  13.473  0.5257  0.3433  0.1018
18574W        W33705  17.846  10.259   2.615 -0.0121  0.1611  0.0178
18575W        W33706   6.193  11.720  12.548  0.1352 -0.3482 -0.1093
18576W        W33707  11.711   3.673   3.190  0.1541  0.3133  0.0826
18577W        W33708  15.753  14.707  13.138 -0.2362 -0.2544  0.0323
18578W        W33709   7.555   2.050  11.708  0.2338 -0.2707 -0.3124
18579W        W33710  15.137  13.596  14.200 -0.1709  0.1485 -0.0601
18580W        W33711  17.659   9.559   5.591  0.0469  0.0134 -0.0522
18581W        W33712   9.572  13.696  12.886 -0.7112  0.1771 -0.3985
18582W        W33713  10.373   9.669   2.324 -0.0156 -0.1550  0.5123
18583W        W33714  12.047  13.650   1.851 -0.0215  0.3713  0.1961
18584W        W33715   0.625   3.294   3.001 -0.0415  0.0582  0.0408
18585W        W33716  11.891   4.590  11.286 -0.1299  0.1133  0.1749
18586W        W33717   1.325   9.012   4.177  0.2475  0.1632 -0.1530
18587W        W33718   1.217   8.211  11.643 -0.1200 -0.0379 -0.1835
18588W        W33719   1.163   7.978  14.108  0.0433  0.2949 -0.0458
18589W        W33720  16.556  15.231   1.411 -0.0694 -0.0930  0.0121
18590W        W33721   9.376   8.353   5.212  0.3235  0.1700  0.2690
18591W        W33722  12.980   2.450   0.908 -0.0878 -0.2545 -0.2702
18592W        W33723   3.046  12.504   0.407  0.0416  0.1455 -0.1289
18593W        W33724   0.424  17.136  13.427  0.2977 -0.0404 -0.2209
18594W        W33725  14.948  12.106  15.053 -0.0522 -0.0715 -0.0102
18595W        W33726  16.634  13.288  13.402 -0.1074 -0.3575 -0.0352
18596W        W33727   7.303   0.090  10.945 -0.0806 -0.0766 -0.0594
18597W        W33728   9.620   2.131  16.049  0.1736 -0.0159 -0.1169
18598W        W33729   1.848   0.701  14.530  0.2357  0.2882  0.2918
18599W        W33730   0.058  11.139  11.880 -0.2177 -0.0227  0.3685
18600W        W33731   9.300  12.121  14.055 -0.1113  0.3206  0.0931
18601W        W33732  11.125  13.387  15.554  0.1182  0.1001  0.0596
18602W        W33733  10.571   9.626   5.791 -0.1382 -0.1388 -0.2457
18603W        W33734  14.651  10.297  13.167  0.0361 -0.0850 -0.1303
18604W        W33735  11.686   7.580  15.095  0.0490 -0.2879  0.2553
18605W        W33736   2.705  17.524   3.048 -0.0300  0.0357 -0.2659
18606W        W33737   8.210  16.645  13.240 -0.0360 -0.0534 -0.0403
18607W        W33738  11.271  14.567   3.407  0.0228 -0.0687 -0.0137
18608W        W33739   4.476  10.769   1.324 -0.3459  0.1579  0.0805
18609W        W33740   5.692   2.922   0.507 -0.0157 -0.0848  0.1334
18610W        W33741  14.098   0.952   1.542 -0.1560 -0.0143  0.0002
18611W        W33742  13.251  11.367   2.540 -0.3131 -0.0384 -0.0210
18612W        W33743   1.436   0.730   4.912  0.1306  0.0901 -0.1306
18613W        W33744   3.016   7.402  11.852  0.0625  0.0119 -0.0461
18614W        W33745  17.011   7.187   4.285  0.2946 -0.0391 -0.1693
18615W        W33746   4.611  10.365   1.711 -0.1653 -0.0728 -0.0533
18616W        W33747   2.958  13.610  13.757 -0.0673  0.1426  0.1050
18617W        W33748  12.686   5.827   2.884  0.0429  0.1170 -0.0428
18618W        W33749   4.385   3.089  13.793 -0.0026  0.0014  0.0803
18619W        W33750   5.427  17.826  15.936  0.0506  0.1778 -0.0279
18620W        W33751   6.094   1.149  14.588 -0.0382 -0.1389 -0.1819
18621W        W33752  15.663   1.380   4.991 -0.0777 -0.1579  0.0877
18622W        W33753  13.761   7.259   5.486 -0.2745 -0.3715  0.1658
18623W        W33754   4.579  12.885   0.518 -0.4665  0.1130 -0.0084
18624W        W33755  10.976  13.328  11.790  0.1735 -0.0095 -0.1196
18625W        W33756   4.344  16.903  15.197  0.4759 -0.1276  0.0241
18626W        W33757   5.437   6.354   2.542  0.1781 -0.0724  0.0640
18627W        W33758   3.108   1.568   1.536  0.0746 -0.0817  0.1750
18628W        W33759  13.943  15.325  15.360  0.0278 -0.4271  0.2933
18629W        W33760   0.358   5.666  12.121  0.1196 -0.3210 -0.3761
18630W        W33761  17.233  10.591   3.656 -0.3403 -0.3419 -0.0868
18631W        W33762   2.872   4.969  16.122 -0.1100 -0.0658 -0.0943
18632W        W33763  15.635  13.260   1.746 -0.2170 -0.3222  0.0779
18633W        W33764   4.824   2.088  12.333 -0.0648 -0.0265 -0.1057
18634W        W33765  16.764  15.124   2.299 -0.1569  0.1164 -0.0549
18635W        W33766  11.423   7.959   1.649  0.1765  0.1054  0.2936
18636W        W33767  10.745  10.386   1.832  0.1371  0.0346 -0.1378
18637W        W33768   0.556   4.499   2.887  0.0727 -0.2833 -0.0700
18638W        W33769   3.260   0.300   4.845 -0.0829 -0.2466  0.2314
18639W        W33770   3.648  14.477   4.959 -0.0571  0.2411  0.0152
18640W        W33771  14.567   7.495   3.109  0.2048  0.1908 -0.0253
18641W        W33772   8.814   2.825   1.158  0.1166  0.1838 -0.1612
18642W        W33773  15.162  16.888  13.619  0.2054  0.4443 -0.2404
18643W        W33774   4.682   8.167   5.080  0.1950 -0.0693 -0.1172
18644W        W33775  16.282   4.092   4.654 -0.2202 -0.1989  0.2191
18645W        W33776   3.435   7.736   3.452 -0.1584 -0.1152 -0.1382
18646W        W33777  17.229  14.272   4.742 -0.1964 -0.0806  0.2922
18647W        W33778   8.807  13.989   3.594  0.1045 -0.3569 -0.0742
18648W        W33779  14.466  13.194   3.756  0.0260 -0.1772 -0.2326
18649W        W33780  16.743   0.933   2.419  0.0259  0.0784 -0.1072
18650W        W33781  10.348   5.479   1.641  0.1918  0.0295  0.3380
18651W        W33782   9.557  17.745  12.174  0.1390  0.1961 -0.0332
18652W        W33783  12.063  17.309  14.644 -0.0724 -0.0930  0.0077
18653W        W33784   3.138   1.321   2.033 -0.0910  0.1039  0.1926
18654W        W33785  17.094  10.163   5.353 -0.1621 -0.0917 -0.1174
18655W        W33786   0.138  16.256   0.950 -0.2891  0.2429  0.2126
18656W        W33787  13.705  11.703  16.170 -0.1015 -0.1451 -0.0762
18657W        W33788   2.011  13.682   5.193 -0.0363 -0.0188  0.0821
18658W        W33789  14.889   3.980  14.657  0.0835 -0.0214 -0.3256
18659W        W33790  13.691   3.105  11.962  0.1035  0.0659  0.1976
18660W        W33791   6.518  17.286   0.729  0.4808  0.4035  0.4175
18661W        W33792  10.983  10.760   1.042 -0.0737 -0.0775 -0.1094
18662W        W33793  17.809  13.473   2.916  0.1929  0.3052  0.1239
18663W        W33794   4.112   5.525  15.335  0.3523 -0.2934  0.0277
18664W        W33795   8.823  12.724  11.855  0.0669 -0.0994  0.2569
18665W        W33796   9.439  13.671  13.421 -0.0338 -0.1482  0.1090
18666W        W33797   9.919  13.449   5.102  0.1304  0.0716 -0.0940
18667W        W33798   1.065  15.381  16.507 -0.0107 -0.0703  0.0554
18668W        W33799   1.958   6.624  16.657  0.4078 -0.0925  0.0421
18669W        W33800  10.088   7.571   4.044 -0.3429 -0.1416  0.1408
18670W        W33801   8.923   0.236   1.439 -0.2858  0.2344  0.2833
18671W        W33802   3.363   3.429   5.407  0.0067 -0.1878 -0.4022
18672W        W33803   5.193   8.872  16.659 -0.1242 -0.0010  0.0466
18673W        W33804  17.070  17.828  13.848 -0.0592  0.3196  0.0645
18674W        W33805  15.909  15.889   3.122  0.5537  0.0920  0.2219
18675W        W33806   7.128   0.733   4.557 -0.0863  0.0176  0.1125
18676W        W33807  12.484  15.039   2.635  0.1374  0.1981 -0.1475
18677W        W33808   6.713   4.234   3.886  0.1616  0.2653  0.0741
18678W        W33809   7.374   0.497   1.440  0.1530 -0.2099  0.0793
18679W        W33810  16.865  12.207  15.326 -0.3551 -0.0346 -0.0140
18680W        W33811   1.866  11.654  13.590 -0.4600 -0.1297  0.2686
18681W        W33812  17.672  17.336   1.420 -0.1254  0.0483  0.1386
18682W        W33813   0.407  16.172   4.440 -0.2189 -0.1060  0.0451
18683W        W33814  11.722   7.952   0.685 -0.0306  0.0687 -0.4289
18684W        W33815  14.438  10.467  14.050 -0.1434 -0.2548 -0.0560
18685W        W33816  12.191   9.468   2.379  0.0131  0.2155  0.1169
18686W        W33817   3.207   7.698   5.534  0.1409 -0.2177  0.2862
18687W        W33818   3.812  10.921  14.537 -0.3798  0.2696  0.2097
18688W        W33819   4.952  12.875  15.000 -0.3058  0.1240  0.3751
18689W        W33820  15.149  10.604   6.674 -0.1890  0.0571 -0.0317
18690W        W33821   1.250  12.341  16.737 -0.2425  0.0834  0.0860
18691W        W33822  16.775   5.898   0.332  0.0257 -0.0747  0.0199
18692W        W33823   0.531   4.073  11.111 -0.4609 -0.0998 -0.1826
18693W        W33824   4.283   3.594   2.406  0.0813  0.2551 -0.2768
18694W        W33825   0.726  11.850   2.430 -0.0681  0.0381 -0.0575
18695W        W33826   5.962   5.334  11.465  0.1141 -0.1320  0.2660
18696W        W33827   0.186  14.779   5.608 -0.1535  0.2893  0.2348
18697W        W33828   2.064   7.304   2.011  0.2251  0.3936 -0.0663
18698W        W33829   9.952  16.903  12.045 -0.0300  0.1499  0.2162
18699W        W33830  10.897  12.094  16.100  0.2382 -0.5203  0.1252
18700W        W33831  10.195   9.413   4.418 -0.1025  0.5992  0.0962
18701W        W33832  13.557  10.164  12.738 -0.0641 -0.0000 -0.1734
18702W        W33833  16.274   1.794   3.672 -0.1785 -0.0424 -0.0891
18703W        W33834  12.117   2.983   5.435  0.0776 -0.2239  0.0038
18704W        W33835  14.732  12.252  12.106  0.0115  0.1360 -0.1794
18705W        W33836   3.827  11.031  15.886  0.2934  0.0193 -0.0500
18706W        W33837   7.081   2.184   2.117 -0.0099  0.0834  0.1276
18707W        W33838  17.729  14.490   0.046 -0.3179 -0.2558  0.0428
18708W        W33839   4.733  15.207  13.722  0.0377  0.1576 -0.0866
18709W        W33840   3.692   7.165  15.274 -0.2450 -0.2378  0.0321
18710W        W33841  17.473  15.824  12.417  0.0169 -0.0931  0.0045
18711W        W33842   9.734  16.503   3.731 -0.0859  0.3252 -0.1536
18712W        W33843   8.735   8.642   2.880  0.0478 -0.1448 -0.2310
18713W        W33844  14.032  10.293  14.372 -0.1411  0.0794 -0.1793
18714W        W33845   5.802  17.587   3.020 -0.1248  0.3178 -0.0827
18715W        W33846   9.439   6.806  12.807  0.1889  0.1495 -0.0115
18716W        W33847  17.859  11.107   1.639  0.1046 -0.0149  0.2379
18717W        W33848  13.694   2.339  14.949  0.0637  0.4215 -0.0796
18718W        W33849   2.543   2.973  15.915 -0.0822 -0.1458 -0.1522
18719W        W33850   9.851   3.463  15.658 -0.1385 -0.0956 -0.1973
18720W        W33851  14.740  15.964   3.911  0.1265  0.1526  0.0676
18721W        W33852   6.853   3.096   4.046 -0.1896  0.1659  0.1391
18722W        W33853  13.253  12.306   4.530 -0.2461  0.0260  0.2842
18723W        W33854   9.020  13.362  12.559  0.0077  0.1099 -0.1756
18724W        W33855   2.430   8.223   2.817  0.2750  0.1660 -0.0753
18725W        W33856   1.984  17.564  15.273  0.1201 -0.0337  0.1532
18726W        W33857   1.298   1.792   4.730 -0.1319 -0.1843  0.0889
18727W        W33858  12.545  11.609   4.470  0.0851  0.1523  0.0495
18728W        W33859  15.836   7.413   4.477  0.0769 -0.2999 -0.0524
18729W        W33860   0.717  17.810   3.891 -0.0302  0.1719  0.0369
18730W        W33861  13.962   5.821  11.058 -0.0306  0.3352  0.0303
18731W        W33862  13.378  13.553   4.387  0.0639 -0.1276  0.0690
18732W        W33863  17.826   1.306   3.479  0.0176 -0.1783  0.2062
18733W        W33864  14.461  10.624  15.947  0.1945 -0.0313 -0.2211
18734W        W33865  11.097  15.490  16.252  0.0554 -0.1070  0.1352
18735W        W33866   4.444   3.219   4.704  0.0083  0.0041  0.0214
18736W        W33867  15.809   3.183  14.930  0.3209  0.1098 -0.2444
18737W        W33868  16.928   1.320   4.828  0.0259  0.4388  0.0199
18738W        W33869  13.998   1.377  14.727  0.2247  0.0928  0.0884
18739W        W33870   2.798  13.350  15.159 -0.0884  0.1715  0.2544
18740W        W33871  11.258   3.455   1.401  0.0828 -0.0539  0.0688
18741W        W33872   1.060   6.267   6.087  0.1325 -0.2533 -0.2261
18742W        W33873   4.612  15.643   2.574 -0.2062 -0.0864 -0.2624
18743W        W33874   3.546  16.452   2.099  0.1072 -0.1920  0.2021
18744W        W33875  10.788   5.246   1.682  0.0805 -0.0747  0.1443
18745W        W33876   6.860  11.251  11.667  0.1550  0.0252  0.0889
18746W        W33877   3.890   2.781  16.183 -0.3484 -0.0252  0.0184
18747W        W33878  16.983  11.639  14.779 -0.1750 -0.5000 -0.1270
18748W        W33879   2.327  16.935  15.945  0.0500  0.1831 -0.4705
18749W        W33880   6.808  12.023   2.322 -0.1675 -0.3110 -0.1784
18750W        W33881   1.343  13.087   5.782 -0.0412  0.3033  0.0753
18751W        W33882   4.078  14.669  13.179 -0.6186 -0.0047 -0.1409
18752W        W33883  14.882  11.700  15.367 -0.2057 -0.1336 -0.3125
18753W        W33884  11.987   6.822  13.051 -0.2546 -0.0015  0.1301
18754W        W33885   5.577   7.231  11.712 -0.0587 -0.0437 -0.0790
18755W        W33886   7.798   9.306   4.008  0.1058  0.0568 -0.1998
18756W        W33887   9.181   7.072   3.286 -0.0024  0.0916 -0.1948
18757W        W33888  17.353  10.470  13.186  0.1294  0.1474  0.0785
18758W        W33889  14.673   4.111  12.557  0.1029  0.1233  0.0419
18759W        W33890   4.836   7.906  11.356 -0.1396 -0.0101  0.4275
18760W        W33891   3.545  15.155  11.912 -0.0493  0.0570  0.0027
18761W        W33892   1.530   3.455   3.725 -0.1929 -0.4024  0.0278
18762W        W33893  15.003  13.558  12.766  0.0082 -0.0164 -0.0794
18763W        W33894  13.869  12.463   1.007  0.0690 -0.0637 -0.2148
18764W        W33895   4.580   7.129  14.916 -0.0867  0.0638 -0.1376
18765W        W33896  10.826   8.326   2.744 -0.0147 -0.0639 -0.0107
18766W        W33897  10.063   2.655   1.436  0.2525  0.0368 -0.0810
18767W        W33898   8.936   1.922   3.523 -0.2053  0.0181 -0.2547
18768W        W33899  11.590  15.372  13.235 -0.1655  0.0616 -0.0281
18769W        W33900   9.246  12.803   4.790 -0.2501 -0.0772  0.1813
18770W        W33901  10.487  13.364  16.350 -0.0463 -0.2011 -0.2131
18771W        W33902  12.366   5.943  12.920 -0.1766 -0.0536  0.0662
18772W        W33903  15.373   9.229  13.108 -0.0508  0.3117 -0.0093
18773W        W33904  11.569   3.234   3.940 -0.1728  0.3439 -0.3332
18774W        W33905   1.303   9.175  15.786  0.3345 -0.0011  0.0126
18775W        W33906   5.286   3.369  11.733 -0.2002 -0.1609 -0.1464
18776W        W33907  17.406   8.858  12.507  0.1663  0.1435  0.2985
18777W        W33908  15.845   9.698   4.796 -0.3792 -0.3887  0.2910
18778W        W33909  15.527   0.120   3.541  0.0261 -0.5341  0.1166
18779W        W33910   4.046  15.863   0.410  0.3487  0.2953  0.0175
18780W        W33911   1.015   7.432   5.486 -0.0442 -0.0199 -0.1454
18781W        W33912   4.950   3.875   4.738  0.2160 -0.0772  0.1191
18782W        W33913  13.526   2.809   3.268 -0.2061  0.2854  0.2768
18783W        W33914   6.304  14.527  16.687 -0.2366 -0.0078 -0.0131
18784W        W33915  10.904  13.332   5.012  0.1875  0.1892  0.0587
18785W        W33916  13.290   8.250   2.754 -0.2178 -0.2150 -0.1470
18786W        W33917  17.142   8.306  15.229 -0.1782 -0.0399 -0.1732
18787W        W33918   8.835   5.408   4.787 -0.3560 -0.1598  0.3240
18788W        W33919   2.509   8.391   5.738  0.0845 -0.1969  0.0613
18789W        W33920   1.728  10.748   4.956 -0.1182  0.1795  0.1361
18790W        W33921   6.612   1.449  13.176 -0.0664 -0.0862  0.0007
18791W        W33922   3.817   2.025   1.895 -0.2356 -0.1349 -0.1546
18792W        W33923  12.961   0.474  13.786 -0.2468 -0.1523 -0.2278
18793W        W33924  13.873  16.663   5.193 -0.1012 -0.2081 -0.1109
18794W        W33925  12.935   3.665   0.793 -0.3721  0.3575 -0.0024
18795W        W33926   7.195   4.152  16.132  0.1361  0.1480 -0.1118
18796W        W33927  14.144   6.057   2.932 -0.3375 -0.0936 -0.0036
18797W        W33928  16.513  13.196  16.040  0.0823  0.3354 -0.1392
18798W        W33929  12.654   7.333  14.934  0.3008 -0.0663 -0.2026
18799W        W33930  16.362  12.540   2.166  0.0289  0.0321 -0.0010
18800W        W33931   1.651  12.736  11.421  0.0065  0.1319  0.0494
18801W        W33932  10.849   4.076  13.413  0.1155  0.0235 -0.1317
18802W        W33933  12.874   4.209   0.936  0.2705  0.0925 -0.0511
18803W        W33934  12.564   9.236  16.041 -0.0694 -0.2322 -0.0622
18804W        W33935   0.938   9.920   1.050  0.2282 -0.0978  0.0264
18805W        W33936   7.666   0.241  15.727  0.0957  0.2709  0.0627
18806W        W33937   6.436   2.379   3.561 -0.0771 -0.0226 -0.0172
18807W        W33938  14.958   3.963   2.017  0.1957 -0.0445 -0.0288
18808W        W33939  15.613  11.593  12.149  0.0329 -0.1546 -0.1017
18809W        W33940  15.472  12.464   0.210  0.1395 -0.1056 -0.0880
18810W        W33941  14.909  13.884   4.721 -0.1063  0.0955 -0.2422
18811W        W33942   9.814   3.474   1.871  0.1860 -0.0757  0.2381
18812W        W33943  13.790   5.618   3.704  0.0299  0.3429 -0.1570
18813W        W33944  16.486   0.211  11.708 -0.1550  0.4781 -0.1543
18814W        W33945   2.390   0.870  12.397 -0.0892 -0.0899  0.5239
18815W        W33946   1.133  11.450   0.112  0.2953  0.0219 -0.1515
18816W        W33947   3.011  10.095  11.518  0.2362 -0.0293  0.0220
18817W        W33948   9.146  15.348  11.866  0.1919  0.0355  0.0558
18818W        W33949  15.501  13.565  12.979  0.3197 -0.0262  0.1578
18819W        W33950   4.600   6.970  13.240 -0.1248 -0.2555  0.0710
18820W        W33951   6.283   3.221   2.980  0.0085 -0.0659  0.0682
18821W        W33952   6.757  16.470   2.624 -0.1387  0.2608 -0.1365
18822W        W33953  14.937   1.114  15.724 -0.1668  0.1201  0.2317
18823W        W33954  12.838   4.852  14.519 -0.2293 -0.1130 -0.0797
18824W        W33955   2.775   4.454  15.960 -0.2254  0.2026  0.1025
18825W        W33956   2.388  11.476   5.995  0.0255  0.0801 -0.0200
18826W        W33957  11.656   4.948   5.431  0.0421 -0.1709 -0.0983
18827W        W33958   0.869  13.185   2.960 -0.1883  0.2250 -0.2236
18828W        W33959   9.459  14.749   1.303 -0.0811 -0.0991 -0.0096
18829W        W33960  16.030   3.842  13.696  0.1752  0.0902  0.0186
18830W        W33961  17.835   3.680  11.907 -0.2129  0.1713  0.2483
18831W        W33962   6.117   5.702  14.368 -0.1908 -0.0238 -0.3330
18832W        W33963   2.496  16.456   5.099 -0.2112 -0.0974 -0.2055
18833W        W33964  16.350   6.585  14.633 -0.1607  0.0624 -0.0650
18834W        W33965  16.968   2.140  16.415  0.4196 -0.0540 -0.1023
18835W        W33966  10.455   0.263  13.288 -0.2142 -0.1553  0.0941
18836W        W33967  17.293   1.387  13.011 -0.1019 -0.2086 -0.2560
18837W        W33968  11.131  13.631   3.187  0.1146  0.4559 -0.2054
18838W        W33969  14.304   8.399  14.682  0.0936 -0.0569  0.2040
18839W        W33970  12.730  12.040   5.368  0.2954 -0.2540 -0.1278
18840W        W33971  14.942   0.314  13.713  0.1424 -0.2285  0.0608
18841W        W33972  15.240  16.834  12.443 -0.0223 -0.2429 -0.0652
18842W        W33973   4.260   2.410   4.370 -0.0678 -0.2975 -0.0220
18843W        W33974  16.499  15.210  15.674  0.0016 -0.0414 -0.3651
18844W        W33975   4.858   6.902   0.918 -0.1126  0.2157  0.4328
18845W        W33976   0.219   4.309   4.165  0.2357  0.1181 -0.0772
18846W        W33977   2.912   4.974  14.173 -0.1706 -0.0255 -0.1139
18847W        W33978  12.637  16.788  12.244  0.1625 -0.3225 -0.2330
18848W        W33979   2.072  16.575   2.819 -0.0201 -0.0621 -0.1099
18849W        W33980   1.452  17.434   4.615  0.2341 -0.0684 -0.2952
18850W        W33981   3.311   9.073   3.183  0.0421 -0.0351 -0.1588
18851W        W33982   5.019   6.040   0.866  0.0251 -0.0009 -0.1367
18852W        W33983   5.410   5.394  12.962  0.0324  0.1403  0.2461
18853W        W33984   7.758   0.207  12.986  0.1982 -0.3237  0.2428
18854W        W33985   4.955   9.809   5.140 -0.0359 -0.0001 -0.2298
18855W        W33986   0.488  12.204   4.982  0.0687  0.1973 -0.1000
18856W        W33987   8.018  11.415   5.351  0.2106  0.1206  0.0687
18857W        W33988   1.374   2.721  14.510 -0.1307  0.2257 -0.4289
18858W        W33989  16.248   2.434  16.725  0.0843  0.0498  0.2404
18859W        W33990  14.574  10.277   1.307  0.2083 -0.2927 -0.2488
18860W        W33991  11.094   7.145  13.786  0.0886  0.1949  0.2338
18861W        W33992   5.342   6.229  11.992  0.2765 -0.2276 -0.1068
18862W        W33993   3.904  14.591   2.201 -0.1504 -0.1731  0.2074
18863W        W33994   6.472  15.974   4.262  0.2271 -0.0168  0.1340
18864W        W33995   3.807   8.408   4.170  0.1028 -0.1259  0.0431
18865W        W33996   4.227   7.512   5.410  0.1153 -0.1115  0.2041
18866W        W33997   4.864  12.428  15.217 -0.3013  0.0412 -0.1125
18867W        W33998   5.814   8.774   4.555 -0.0828  0.0570 -0.0563
18868W        W33999   2.152   0.546   1.857 -0.0928 -0.0366  0.0307
18869W        W34000   6.350  11.871  13.364 -0.1377 -0.1789 -0.0825
18870W        W34001  11.652   1.408   4.423  0.0941 -0.1417  0.1129
18871W        W34002   9.307   6.408   3.804  0.0242  0.1371  0.2484
18872W        W34003   0.717   0.242   4.939  0.1562 -0.3781  0.0710
18873W        W34004   5.235   9.331   5.792  0.0859 -0.2362 -0.2096
18874W        W34005   2.007  12.646   5.213 -0.3826  0.0319 -0.0577
18875W        W34006   5.745   7.217   6.365 -0.1345 -0.1258 -0.1625
18876W        W34007  13.435   8.140  14.906  0.1849 -0.0312 -0.3986
18877W        W34008  13.306   3.902   0.565  0.1627 -0.0065 -0.0405
18878W        W34009   7.682   1.528   4.341  0.5246 -0.1240 -0.2018
18879W        W34010   6.896   0.696   1.478 -0.3000 -0.1471 -0.0026
18880W        W34011  12.247  17.019  10.968 -0.1712  0.0540 -0.2073
18881W        W34012   3.537   5.325  15.304 -0.0844 -0.1723 -0.1678
18882W        W34013  16.807  16.816  16.736  0.2022  0.1944  0.1514
18883W        W34014   5.347  13.433   4.873 -0.3741 -0.1363 -0.2192
18884W        W34015   7.306   6.546   5.161  0.0942  0.2063 -0.1828
18885W        W34016  14.298  16.006  12.879  0.1979  0.0747 -0.0260
18886W        W34017   8.100   7.483  12.663  0.0352 -0.0754  0.0529
18887W        W34018  11.040   9.034   2.525  0.4743 -0.0569  0.1808
18888W        W34019   6.734   9.895  15.180  0.0302 -0.0592  0.2347
18889W        W34020   6.224   5.163  10.658  0.0351 -0.1274  0.4265
18890W        W34021   6.758   9.553   2.933 -0.0019 -0.0314 -0.1947
18891W        W34022   1.169   8.435   0.472  0.2511 -0.1432  0.0125
18892W        W34023  17.243  13.303  14.807 -0.0407 -0.1779  0.2576
18893W        W34024  10.959  15.572   0.463  0.0853  0.2603 -0.3213
18894W        W34025  15.521   1.450   0.917 -0.1956  0.0606 -0.0871
18895W        W34026  12.356   8.270  14.053  0.0888 -0.0061 -0.2760
18896W        W34027  12.688  16.570  11.671  0.0631 -0.3275  0.0586
18897W        W34028   0.268   4.403  10.750 -0.1295  0.0259  0.0593
18898W        W34029   7.880   3.863   3.564  0.1398 -0.0073  0.4791
18899W        W34030  15.774   5.270   0.744 -0.2886 -0.1428 -0.1829
18900W        W34031   5.961   6.365   2.473  0.0153 -0.2016 -0.0699
18901W        W34032   9.025  16.695  14.291 -0.1622  0.1255  0.2925
18902W        W34033   6.585   9.497  15.444  0.1845 -0.1033  0.0023
18903W        W34034   6.128  10.995  14.525  0.0238  0.2480  0.1166
18904W        W34035   8.788  12.428  13.683 -0.2759  0.3879  0.1149
18905W        W34036   7.146  13.285   4.263 -0.0692 -0.0746 -0.0238
18906W        W34037  14.795  12.231  15.791 -0.4934  0.0553 -0.0559
18907W        W34038   8.285  10.232   3.197 -0.1988 -0.2115  0.0158
18908W        W34039  14.365  15.571  15.581  0.1398  0.0800 -0.0018
18909W        W34040   9.610   6.616   1.638 -0.2022 -0.0639 -0.2053
18910W        W34041   8.368   3.176   5.016  0.0024  0.1927 -0.1072
18911W        W34042  10.893  11.265  15.667  0.0506  0.4216  0.3614
18912W        W34043  15.197   9.652  15.260  0.0604  0.0604 -0.1043
18913W        W34044   0.335  16.439   6.131 -0.1154 -0.1057  0.1408
18914W        W34045   0.709  12.822  12.363 -0.1309  0.1981 -0.0348
18915W        W34046  13.009  14.662   3.614 -0.0995  0.2515  0.0541
18916W        W34047   2.964  15.790   2.333  0.0062 -0.1809  0.0075
18917W        W34048  10.077  11.910   1.321 -0.2872  0.1731  0.1736
18918W        W34049   9.815   5.836  11.357 -0.1784 -0.1104 -0.1182
18919W        W34050  12.340   8.946   2.088  0.2008  0.2966 -0.0876
18920W        W34051  10.191   8.843  14.000  0.2241  0.1362 -0.1700
18921W        W34052   9.401  14.487   5.892  0.0389 -0.0582  0.0178
18922W        W34053   9.172  10.260   4.091  0.3423 -0.0206  0.3736
18923W        W34054   4.869   1.643  11.663  0.0218 -0.2398 -0.1659
18924W        W34055  15.649   8.393   4.523 -0.0470  0.1622 -0.0561
18925W        W34056  12.403  13.280   2.677 -0.3452 -0.2832 -0.2158
18926W        W34057  11.492   0.367  11.718 -0.0823  0.1110 -0.1234
18927W        W34058   0.570   3.124  12.218 -0.1224 -0.0649  0.3295
18928W        W34059  15.051  16.352  12.146 -0.3487 -0.2494 -0.1388
18929W        W34060   0.014   2.393  14.903  0.1490  0.2501  0.0277
18930W        W34061   0.333  16.512   1.850 -0.1479 -0.2031  0.2244
18931W        W34062   8.111   3.219  11.186 -0.1107 -0.1730  0.0012
18932W        W34063   4.049   6.706   0.758 -0.0520  0.1092 -0.3140
18933W        W34064  13.797  12.616   4.196 -0.1156  0.3130  0.0876
18934W        W34065  15.875   3.383   3.388  0.1020  0.0651 -0.0626
18935W        W34066  10.564   5.556   4.930 -0.0908 -0.0041 -0.2065
18936W        W34067   6.490  13.928   3.088  0.0526 -0.0016 -0.1049
18937W        W34068   2.023   2.416  15.156  0.1306 -0.2466  0.2762
18938W        W34069  12.389   3.220   2.597 -0.1373 -0.0466  0.1167
18939W        W34070   9.759  15.862  15.305 -0.2521  0.2058 -0.0756
18940W        W34071  11.660  16.116   4.424  0.1423  0.0207 -0.0144
18941W        W34072   5.431   7.102  13.369 -0.3291 -0.0919 -0.0514
18942W        W34073  15.840   2.726   3.946 -0.5230 -0.3462 -0.0527
18943W        W34074  17.240   7.704  13.118 -0.1714 -0.1119 -0.1594
18944W        W34075   8.267  13.996  11.169 -0.0649  0.2617  0.1487
18945W        W34076   9.355  11.219  13.586 -0.0320  0.0106 -0.4244
18946W        W34077  13.825  15.599  12.430  0.0604 -0.0771  0.2470
18947W        W34078   6.651   1.896  10.562  0.0037 -0.1678  0.1381
18948W        W34079   8.644   2.101  10.924 -0.2328 -0.0928  0.1949
18949W        W34080   5.025   4.923  13.728  0.4594  0.1233 -0.1634
18950W        W34081   9.464   0.033   1.666  0.0294 -0.0571  0.1760
18951W        W34082  10.069   6.362  12.659  0.1780 -0.1309  0.0200
18952W        W34083   3.861   5.309  14.923  0.1816 -0.2749 -0.1453
18953W        W34084  11.036   6.379   2.317  0.0191  0.1022 -0.0097
18954W        W34085   5.745  15.962   1.804  0.0718 -0.1205 -0.2910
18955W        W34086  16.104   3.066   2.604  0.3761 -0.2001 -0.0403
18956W        W34087  11.441   6.152  13.975  0.2445  0.0629  0.1558
18957W        W34088   0.838   2.406   3.948 -0.2653 -0.0741  0.0751
18958W        W34089   7.870  16.239   0.244 -0.3662 -0.1651  0.0361
18959W        W34090   6.493  14.813   6.288  0.2803  0.0688  0.0100
18960W        W34091   2.399   8.413  13.538  0.0947  0.1927  0.1782
18961W        W34092   0.804   9.482  11.967  0.1407  0.1585 -0.1473
18962W        W34093  17.212   9.524   4.438  0.0302 -0.1802 -0.1176
18963W        W34094  11.924  14.306  15.072 -0.0987  0.0566 -0.2138
18964W        W34095   3.882  14.450  13.628  0.0844 -0.2275  0.0094
18965W        W34096   8.883   1.745  12.506  0.0607  0.1627  0.3098
18966W        W34097  12.669  14.403  13.763 -0.0998 -0.1272  0.2202
18967W        W34098   3.352   7.317   3.031  0.1474  0.1958 -0.3541
18968W        W34099   1.391  15.419   2.772  0.1084  0.0761  0.0097
18969W        W34100   4.986  17.663  13.649  0.1231 -0.1082 -0.3148
18970W        W34101  13.776   1.601   4.891 -0.3085 -0.1213  0.1339
18971W        W34102  15.909   5.651   5.981 -0.2020  0.0070 -0.3845
18972W        W34103   8.905   5.104  16.656  0.0306  0.3481  0.0272
18973W        W34104   7.155  14.086  11.852  0.0965 -0.0951  0.0336
18974W        W34105  16.936  10.973   5.049  0.3815 -0.2534 -0.0798
18975W        W34106   7.988   9.560   2.664 -0.2380  0.2134 -0.0410
18976W        W34107   9.186   9.014   2.558  0.3364  0.2379 -0.1250
18977W        W34108   8.795  13.919  14.250 -0.2376 -0.1693 -0.1737
18978W        W34109  13.718  15.359  10.785 -0.2972  0.2051  0.3518
18979W        W34110   7.634   1.174  11.321 -0.0461 -0.4271  0.0468
18980W        W34111   2.081  15.728   6.722  0.0350 -0.0785  0.1381
18981W        W34112   0.451  16.436   3.775  0.2145  0.1208 -0.3753
18982W        W34113   8.293   6.704  16.257 -0.2383  0.0141  0.2433
18983W        W34114   4.478  15.608  15.567  0.1081 -0.1545 -0.0127
18984W        W34115  17.601   7.947   1.482 -0.0899 -0.1040 -0.2048
18985W        W34116   6.324   4.049  12.317  0.1370 -0.1952 -0.0847
18986W        W34117   2.966  10.563  15.155 -0.1078 -0.3501  0.1651
18987W        W34118   9.178  11.425   1.959  0.0757 -0.3351 -0.2682
18988W        W34119   1.191   3.720   2.843 -0.0121  0.3610 -0.0956
18989W        W34120  15.976   2.484  15.354  0.1093  0.2291 -0.0764
18990W        W34121  13.475   8.342   1.761 -0.1758  0.1585 -0.3530
18991W        W34122  13.971  14.403  11.742 -0.0499  0.1433  0.1732
18992W        W34123   5.772   3.187  14.894  0.3170 -0.1419 -0.1281
18993W        W34124   3.417  10.052  12.679  0.0738  0.1948 -0.0664
18994W        W34125  14.490  17.719   0.817 -0.4001 -0.4096 -0.0769
18995W        W34126  12.844  15.486   5.932  0.1182  0.2505  0.3162
18996W        W34127   1.082   8.532   4.709  0.0192 -0.2449 -0.1494
18997W        W34128  17.726  13.077  14.047  0.1126 -0.1343 -0.0990
18998W        W34129  16.275  17.584   1.169  0.0939 -0.2647 -0.0062
18999W        W34130  17.203  17.383   6.610  0.0078 -0.0826  0.2248
19000W        W34131  13.816   5.846  15.268  0.0257 -0.0728 -0.1032
19001W        W34132   0.026  16.072  14.357  0.0006 -0.0469 -0.0556
19002W        W34133  15.193   6.815   0.600  0.0702  0.0010 -0.0284
19003W        W34134  13.853  15.831  14.301 -0.1606  0.0326 -0.1304
19004W        W34135   1.516   1.226   5.808 -0.0551 -0.0422 -0.0846
19005W        W34136  14.170   0.177  14.055  0.1578  0.0442  0.1030
19006W        W34137  10.617   6.938   6.495  0.0098 -0.0461 -0.2152
19007W        W34138  13.724  17.822  14.140 -0.0411  0.0695  0.2482
19008W        W34139  16.159  14.694   1.785  0.0460  0.4347  0.1903
19009W        W34140   1.303  14.012   4.916  0.0394 -0.0269  0.1427
19010W        W34141   7.865   7.253  13.341 -0.2059  0.0761 -0.2523
19011W        W34142   1.740   1.715   0.259  0.0161  0.1412 -0.4098
19012W        W34143  13.618   6.652   5.131  0.1026  0.0568 -0.1921
19013W        W34144  12.043  13.389   3.435 -0.0245 -0.1164  0.1262
19014W        W34145   3.831  16.773  14.150  0.0142 -0.0432 -0.4255
19015W        W34146   3.717   2.461   3.274 -0.2551 -0.0763  0.1786
19016W        W34147   0.951  11.453   0.665 -0.0072  0.0673  0.0040
19017W        W34148  12.104   4.533   2.940 -0.1872  0.0127 -0.0742
19018W        W34149   3.370   8.134   5.586  0.1323 -0.1972  0.1541
19019W        W34150  11.973  17.168   4.992  0.1265  0.1917 -0.1116
19020W        W34151   2.458   4.755   2.538  0.2217 -0.1845  0.2719
19021W        W34152  10.962  10.516  12.629  0.0857 -0.2972  0.2033
19022W        W34153  14.889   3.812   0.293 -0.0466  0.2527 -0.2258
19023W        W34154  12.595   5.034  11.812 -0.0044  0.0895  0.4629
19024W        W34155   4.896  15.648  16.718  0.0104  0.1612 -0.2044
19025W        W34156  11.411   4.731   4.139  0.0631 -0.0776 -0.0882
19026W        W34157   7.199  10.247  14.017  0.0424 -0.1947  0.0609
19027W        W34158   9.707   3.362   2.649 -0.3438  0.1979 -0.1008
19028W        W34159  13.037   5.930  16.545  0.0779  0.1016  0.1127
19029W        W34160  17.659   9.630  16.670 -0.1117 -0.0676  0.4691
19030W        W34161  12.225   4.294   0.351 -0.0526 -0.0029 -0.0310
19031W        W34162  14.974   6.782  15.275 -0.2605 -0.2791  0.0665
19032W        W34163  14.716  17.802   0.406 -0.0807  0.1276  0.0394
19033W        W34164   9.654   0.782   3.763 -0.0320 -0.0304 -0.2405
19034W        W34165   3.116  10.273  14.739  0.0485 -0.2748  0.1202
19035W        W34166   6.063   2.100   4.388  0.2837 -0.1006  0.1187
19036W        W34167   8.230  11.189  16.674 -0.2359 -0.3022 -0.1377
19037W        W34168  11.290   8.482   1.683  0.1462  0.2184  0.1079
19038W        W34169   6.889   1.819   2.793 -0.0726 -0.0585 -0.0677
19039W        W34170  10.103   1.996   0.114  0.1582 -0.2282 -0.0519
19040W        W34171   6.282   4.908   1.278 -0.1919  0.0287  0.1013
19041W        W34172  13.349  12.567  14.985 -0.2031  0.1030 -0.1203
19042W        W34173   2.629   5.998   0.290  0.1852  0.0568 -0.0354
19043W        W34174   2.945   0.794  11.292 -0.0635 -0.0790 -0.1189
19044W        W34175  12.694   8.870   0.432  0.0911 -0.1699 -0.0627
19045W        W34176   6.992   8.232  13.252  0.1215  0.1282  0.2808
19046W        W34177   2.314  10.275  15.490  0.0331 -0.0281 -0.0722
19047W        W34178  12.042  17.411   1.500  0.0684  0.1748  0.0387
19048W        W34179  12.330  13.192   3.788 -0.0310  0.0434 -0.2601
19049W        W34180  11.918   2.275   1.880 -0.0959 -0.2426 -0.1216
19050W        W34181   5.156  11.814  12.116 -0.4504 -0.2972 -0.1234
19051W        W34182  17.822  13.306   3.771  0.0569 -0.1299  0.1030
19052W        W34183   3.012  13.817   3.253  0.1760 -0.1653 -0.2267
19053W        W34184  16.909   5.470   2.917  0.0620 -0.0099 -0.4182
19054W        W34185  13.507   1.996   5.136  0.0747 -0.0205 -0.0491
19055W        W34186   8.113   1.740   0.444  0.3675 -0.2197  0.0662
19056W        W34187  17.855   1.694  14.342 -0.1582 -0.0308  0.0514
19057W        W34188  12.004  13.669   3.823 -0.4216  0.0326 -0.1485
19058W        W34189   4.661   2.831   0.521 -0.0696  0.2179 -0.1124
19059W        W34190  11.380   2.656  12.443  0.0972 -0.0059  0.0160
19060W        W34191   9.652   8.292  13.583  0.0584  0.2051 -0.1148
19061W        W34192   3.633  11.528  13.203 -0.0936  0.1152  0.0700
19062W        W34193  15.106  14.045  12.902  0.2667  0.2279 -0.0895
19063W        W34194  13.536   4.150  13.469  0.0889 -0.1810 -0.2117
19064W        W34195   0.838   1.845   0.033 -0.0551  0.2875  0.0903
19065W        W34196   8.114  16.126   4.906 -0.2074  0.1207  0.0385
19066W        W34197   0.664   2.527   2.942  0.0106 -0.2715  0.1378
19067W        W34198   4.887   1.201  14.428  0.1146 -0.1253  0.0559
19068W        W34199  17.508  15.563   2.352 -0.0814  0.0415 -0.2940
19069W        W34200   2.948   4.284   5.270 -0.2854 -0.1078 -0.0877
19070W        W34201  15.934  13.370   1.348  0.0327  0.1047 -0.2688
19071W        W34202  15.942   4.419   1.245 -0.1516  0.2967  0.1360
19072W        W34203  12.360  14.817  13.562 -0.3600 -0.3012 -0.2477
19073W        W34204  15.533  11.311  16.618 -0.0945 -0.0351 -0.1054
19074W        W34205   9.769   7.176   0.132  0.1713  0.0708  0.0141
19075W        W34206   8.123   5.382   3.039 -0.0533 -0.0990  0.2837
19076W        W34207  11.624   8.425  10.764 -0.1761  0.2542 -0.1748
19077W        W34208   6.948  13.216   5.477 -0.0455 -0.0048  0.1083
19078W        W34209   2.551  12.720  11.980  0.1849  0.1057 -0.2884
19079W        W34210   0.560   2.035  13.574 -0.1620 -0.0382 -0.2730
19080W        W34211   3.927   1.426   6.045 -0.0198  0.1263 -0.0962
19081W        W34212  10.020   4.240   2.386 -0.0673 -0.5187 -0.2428
19082W        W34213   1.433   3.279   1.730  0.1676 -0.1989  0.1370
19083W        W34214   0.476  13.675  15.502  0.0104  0.0937 -0.2498
19084W        W34215   6.779  12.351  11.436  0.1511  0.3521  0.0830
19085W        W34216   7.572   9.356   2.426  0.1178  0.0973 -0.0696
19086W        W34217  14.715   3.124   4.357 -0.2063  0.2150  0.3469
19087W        W34218  15.096   5.316  12.373 -0.1905 -0.1352  0.0706
19088W        W34219  14.887  16.896  16.432 -0.2052 -0.2145  0.1970
19089W        W34220  15.726  12.648   1.010  0.0347 -0.0172  0.0218
19090W        W34221   9.702   5.259  16.224  0.1270  0.0184 -0.0779
19091W        W34222   6.627  12.161   5.609  0.1583  0.0965 -0.4010
19092W        W34223  14.071   6.691   0.669 -0.2331 -0.0220 -0.2020
19093W        W34224   4.646   9.003   2.177  0.1092 -0.0268  0.0709
19094W        W34225   8.164  10.111  13.877 -0.1594  0.0120  0.0321
19095W        W34226   5.522  15.719   3.772  0.1358  0.1793  0.2572
19096W        W34227   2.029  16.333  13.405  0.1281 -0.0376 -0.1775
19097W        W34228   7.243  16.254   3.216 -0.0153 -0.2719  0.1171
19098W        W34229  12.833   5.820   1.092  0.0062  0.0731  0.0560
19099W        W34230   5.547   1.382   4.501  0.0874 -0.1614  0.2227
19100W        W34231  15.983  12.708   3.729 -0.3246 -0.0211  0.0907
19101W        W34232  12.276  17.031  16.560 -0.3861 -0.2553 -0.2330
19102W        W34233  15.128   7.450  14.207 -0.1778  0.3589  0.0354
19103W        W34234   0.340  16.153   1.483 -0.0202  0.1817 -0.3374
19104W        W34235   8.133   4.467  13.437 -0.0212 -0.0596 -0.2258
19105W        W34236  17.680   0.178  12.761 -0.1017  0.2759  0.3499
19106W        W34237   0.659   4.557  11.127 -0.0193  0.0768  0.0433
19107W        W34238   6.759   3.766  15.850 -0.2459  0.1317  0.0277
19108W        W34239   9.532  12.539  15.587 -0.1767  0.0270 -0.0395
19109W        W34240  17.123   5.096  12.999 -0.3187  0.1392  0.1854
19110W        W34241   4.324  12.350  13.044  0.0335 -0.1350  0.0602
19111W        W34242  15.047  15.943   0.294 -0.0057 -0.0048 -0.3337
19112W        W34243   7.587   6.367  16.077  0.5058  0.0853 -0.1222
19113W        W34244   6.502   2.376  14.835 -0.1048  0.2530  0.0322
19114W        W34245   3.315  10.665  12.885  0.0209 -0.3290  0.2376
19115W        W34246   5.183  17.019   2.559  0.2290 -0.1582 -0.0705
19116W        W34247  10.918   8.964  13.064  0.2184  0.2578 -0.0582
19117W        W34248   6.878   2.133   5.069  0.1238 -0.2398  0.1373
19118W        W34249   4.158  13.829   5.197 -0.0344  0.0576  0.5276
19119W        W34250  17.485   9.617   3.982 -0.0140  0.0042  0.0330
19120W        W34251   6.159   1.669  12.444 -0.0020 -0.1528  0.0639
19121W        W34252   5.759  11.301   3.111  0.0457 -0.4639 -0.1338
19122W        W34253  13.973  15.450  11.578  0.0188  0.0670 -0.1808
19123W        W34254   2.680   2.935  13.578  0.0734  0.0159 -0.1405
19124W        W34255  12.425  16.525  14.768  0.4460  0.0749  0.3196
19125W        W34256  10.649  10.910  13.106 -0.0234  0.0718  0.1494
19126W        W34257  17.616  13.727   1.108  0.1775 -0.0013 -0.0934
19127W        W34258  17.711   3.984   4.471 -0.1322 -0.2691  0.0431
19128W        W34259  11.780  12.367   3.003 -0.1351  0.2129  0.1388
19129W        W34260   9.906   0.261   1.713 -0.1033  0.0288 -0.0794
19130W        W34261  15.209  17.707  16.127 -0.1972  0.1714 -0.0397
19131W        W34262   7.933   2.252   5.053 -0.2114 -0.1261  0.4048
19132W        W34263  17.619  11.896   6.022 -0.0257 -0.4121 -0.1727
19133W        W34264  13.199  17.438   2.468 -0.4085 -0.2503 -0.3645
19134W        W34265  13.214  13.683  15.285  0.1952  0.2823  0.1437
19135W        W34266   9.267  12.203   0.125  0.1988 -0.0853 -0.0363
19136W        W34267   6.098   5.296   6.002 -0.0799  0.3196  0.0121
19137W        W34268  11.294  12.075   1.748 -0.1046  0.2663  0.0552
19138W        W34269   3.581  12.463   1.909  0.1895 -0.0494  0.2534
19139W        W34270  10.017   0.613  11.403 -0.2048 -0.1442 -0.0613
19140W        W34271  10.402   3.663   3.310 -0.0872 -0.1090  0.2311
19141W        W34272  13.449   3.644   0.152  0.2012  0.2422 -0.1524
19142W        W34273  12.515  15.611   0.788 -0.1275  0.2329 -0.2096
19143W        W34274  15.269   8.142   1.578 -0.0116 -0.0675 -0.0778
19144W        W34275   5.740  11.498   0.332 -0.0855  0.0008 -0.1444
19145W        W34276   2.501   2.338   0.096  0.0292 -0.3406 -0.0811
19146W        W34277  16.200  15.614   2.754 -0.0651  0.2261  0.1299
19147W        W34278  14.921  12.426   0.765  0.3147 -0.0218  0.0627
19148W        W34279  15.579   8.127  14.678 -0.0865 -0.0797  0.0487
19149W        W34280   3.545   3.261  14.557  0.3151  0.0232  0.0226
19150W        W34281  14.741  14.698  16.122  0.0939  0.3493 -0.1790
19151W        W34282   9.071   5.612  13.648  0.1386  0.3055  0.0401
19152W        W34283   8.034  17.318  11.906  0.5392  0.0457 -0.0952
19153W        W34284  17.285   5.577   2.589 -0.1219  0.1610  0.0000
19154W        W34285  13.529  17.171  11.899  0.1497 -0.1316 -0.0508
19155W        W34286  17.223  12.587  16.176 -0.1183 -0.0543 -0.0150
19156W        W34287   7.163   6.955   3.811 -0.0956 -0.1933 -0.0314
19157W        W34288   6.184   4.514  13.435 -0.2071 -0.2244  0.0650
19158W        W34289  12.262   9.997  11.981  0.2780 -0.0460 -0.1854
19159W        W34290  15.509   1.529   3.806 -0.1219 -0.0236  0.0134
19160W        W34291   3.023   5.931   1.326  0.0358 -0.1404  0.2679
19161W        W34292  17.306  16.162  12.097 -0.2472  0.2046  0.0058
19162W        W34293   4.080   1.465  12.858  0.0998 -0.1209  0.2908
19163W        W34294  14.398   1.484  15.290  0.0927 -0.0198  0.2092
19164W        W34295  17.714  10.084  15.968 -0.1123 -0.2385 -0.0454
19165W        W34296  13.619  12.708  12.251  0.2003  0.0534 -0.0953
19166W        W34297   8.143   3.291  14.989  0.0580  0.0223  0.0622
19167W        W34298   2.141  10.661   0.429  0.1014 -0.3509 -0.0422
19168W        W34299   9.403   3.794  14.900  0.0256  0.2093 -0.1610
19169W        W34300   8.542   3.339  12.292 -0.0987 -0.0384 -0.1000
19170W        W34301   3.065   1.907  15.791  0.1481  0.1282 -0.0670
19171W        W34302  13.417   5.388   4.603 -0.0341 -0.2919  0.2026
19172W        W34303  10.597  10.887  12.569 -0.1951 -0.1024 -0.2486
19173W        W34304   0.339  17.807  14.865 -0.5263  0.0730 -0.2542
19174W        W34305  13.708  11.172  15.961  0.3887 -0.0519 -0.4408
19175W        W34306  11.184   7.429   5.836  0.0956 -0.2121  0.0087
19176W        W34307  13.713  15.794   1.245 -0.0304  0.0355 -0.3037
19177W        W34308  17.368   3.014  14.898  0.0173  0.2165 -0.0180
19178W        W34309   1.434  12.730  12.747  0.1617  0.0402  0.0088
19179W        W34310   0.258  11.188   0.266 -0.0318  0.1776 -0.3017
19180W        W34311  17.288  14.421   5.194 -0.2031 -0.3094 -0.1560
19181W        W34312  11.550   9.195  14.253  0.0088  0.0821 -0.0722
19182W        W34313  13.666  13.967   0.105  0.0769  0.0347  0.1722
19183W        W34314  12.044   9.082   4.301 -0.1257 -0.1524 -0.4197
19184W        W34315   7.025   9.205  14.570 -0.0441 -0.2358  0.1479
19185W        W34316  16.001   2.547  12.906  0.0569  0.0942  0.0596
19186W        W34317  11.967   6.490   2.342 -0.2509 -0.0041  0.0753
19187W        W34318   1.478   9.085   0.335 -0.1542  0.1037  0.0278
19188W        W34319   0.181   4.793   5.603  0.1551  0.1497  0.2322
19189W        W34320   8.403   8.123  13.500  0.2572 -0.3207 -0.0821
19190W        W34321   4.110  13.433  15.098  0.1501  0.1595  0.0807
19191W        W34322  16.166   5.907   5.342  0.3060 -0.1099 -0.0628
19192W        W34323   3.872  13.544  12.130  0.0661  0.0131  0.2870
19193W        W34324  16.961  15.133  15.907  0.0809  0.2787 -0.0588
19194W        W34325   3.905   6.551   3.623 -0.1047  0.0274 -0.2260
19195W        W34326  15.714  11.196  11.225 -0.2104 -0.0300 -0.1727
19196W        W34327   9.141   8.797   3.859 -0.2682  0.3382  0.1442
19197W        W34328   5.971   1.949  16.283  0.0621 -0.2008 -0.0042
19198W        W34329   4.594  17.358  13.980 -0.0836  0.0212 -0.3915
19199W        W34330  11.508   8.579   4.704  0.2175 -0.1999 -0.0081
19200W        W34331  16.595   5.686  16.311  0.0390  0.1043  0.2663
19201W        W34332  15.358  17.748   1.286  0.0159  0.3451 -0.0637
19202W        W34333  17.247   4.535  15.572 -0.2020  0.1893  0.2442
19203W        W34334   5.036  15.699  11.875 -0.1049  0.0934  0.0508
19204W        W34335  17.503   3.519   1.046  0.1142  0.0306 -0.1467
19205W        W34336  17.551  12.597  16.684 -0.4541 -0.0490  0.1685
19206W        W34337  14.382   5.906  11.807  0.0684 -0.0550  0.1129
19207W        W34338   8.226   5.160  16.239 -0.0426  0.1322 -0.2437
19208W        W34339  14.209   7.260   1.648 -0.0980  0.1616  0.0528
19209W        W34340  12.792   1.407  16.103 -0.1837 -0.3009 -0.1138
19210W        W34341   9.737  12.623   5.403 -0.0803  0.1238 -0.1324
19211W        W34342   1.334   1.268  14.175  0.0861 -0.2116 -0.0562
19212W        W34343   9.384  12.322   1.632  0.0823 -0.1669  0.1859
19213W        W34344   0.098   1.062   3.008  0.0549  0.0966  0.0570
19214W        W34345   7.279  11.090   3.887 -0.2264  0.0219  0.0508
19215W        W34346  17.319  11.535  14.400  0.1279  0.0204  0.0852
19216W        W34347   4.766  14.531   1.838 -0.1305 -0.0831 -0.0644
19217W        W34348  12.219  10.893  12.818 -0.1891  0.0294  0.0760
19218W        W34349  15.488   9.309   3.491  0.1727 -0.0267 -0.1985
19219W        W34350   9.839  12.697   4.801  0.1241  0.1467 -0.0375
19220W        W34351   4.498  13.347   3.084  0.1029  0.0864 -0.1177
19221W        W34352  12.057  11.054   4.166  0.0230  0.0629  0.3369
19222W        W34353  11.616  17.774   3.677 -0.1395  0.2892 -0.4091
19223W        W34354   3.819  10.593   1.976 -0.1577 -0.0759  0.4758
19224W        W34355   3.433   2.202  13.746 -0.1608  0.3703 -0.0759
19225W        W34356   5.634  16.796  14.975  0.0687 -0.0014  0.1320
19226W        W34357  17.290  14.731  12.713  0.3502 -0.2038  0.0668
19227W        W34358  11.267  11.516  13.557  0.2848  0.0710  0.0951
19228W        W34359   3.778  13.562  13.876  0.2377  0.4224 -0.0215
19229W        W34360  16.292   6.575   3.956  0.1731  0.1283  0.2106
19230W        W34361  15.218   5.616  13.540  0.1404  0.4199  0.0522
19231W        W34362   7.205  17.325   3.205  0.2529 -0.0162 -0.0655
19232W        W34363   0.789   5.244   3.684  0.1397  0.2847  0.1432
19233W        W34364   2.478  15.716  13.454 -0.1638 -0.0632  0.0104
19234W        W34365  12.462   0.299  15.179 -0.2832  0.2415  0.0093
19235W        W34366   1.348   1.652  13.269 -0.1308  0.0697  0.0391
19236W        W34367  16.126  12.268   5.873  0.0335  0.1399  0.0560
19237W        W34368  12.907  14.422   4.256  0.4325 -0.1034 -0.0769
19238W        W34369   6.417   8.334   1.041 -0.0512 -0.0884  0.0249
19239W        W34370   6.350   1.713  13.459  0.3833  0.0531 -0.1487
19240W        W34371  11.345   2.218  11.808 -0.0473 -0.0202 -0.0079
19241W        W34372  12.499  12.035   0.042  0.3087 -0.2444  0.0959
19242W        W34373  10.324  15.181   2.739  0.1401 -0.0472  0.1584
19243W        W34374   4.646  14.479   0.360  0.0833  0.0928  0.1248
19244W        W34375   0.657  16.264  13.185 -0.3107 -0.2780  0.1023
19245W        W34376  13.009   8.199  13.209  0.1078 -0.0622 -0.0451
19246W        W34377  14.920   7.400  15.948  0.0010  0.0042  0.1651
19247W        W34378   8.040  15.674   5.755 -0.0640  0.0328  0.2261
19248W        W34379   3.351   5.021  12.952  0.0695  0.1002  0.0709
19249W        W34380   3.346   8.666   3.967  0.3089  0.0456 -0.0499
19250W        W34381   0.059   8.232   1.247 -0.2983 -0.2109 -0.0828
19251W        W34382   7.974  14.561   3.045 -0.0184  0.0100 -0.0168
19252W        W34383  14.489  17.024   4.052 -0.0537  0.2139 -0.0447
19253W        W34384  12.424   6.521   4.089 -0.1868 -0.0601 -0.1697
19254W        W34385  16.064   0.941  12.270 -0.1183 -0.1320  0.2943
19255W        W34386  11.752   3.007   0.513 -0.0595 -0.1852 -0.0164
19256W        W34387   4.326  12.464   1.259  0.3475  0.2164  0.0425
19257W        W34388   9.995   0.083   3.618  0.0191  0.0493 -0.2430
19258W        W34389  16.626   8.552   2.919 -0.1151 -0.0544 -0.0482
19259W        W34390  17.867   4.856   2.929  0.3234 -0.0493  0.0966
19260W        W34391   3.835  11.183   3.408 -0.2702  0.4358  0.1588
19261W        W34392   3.712   8.080  13.057  0.2376 -0.0047 -0.2562
19262W        W34393   9.623   2.249  12.934 -0.0578  0.0656  0.0067
19263W        W34394   5.837   5.106   1.930  0.0811 -0.5088 -0.1419
19264W        W34395  10.701   9.520   4.369 -0.2404  0.1218  0.1564
19265W        W34396   1.372   8.866  14.501 -0.2105  0.2375  0.0620
19266W        W34397   7.450   5.582   6.079 -0.0619  0.0318  0.1119
19267W        W34398  15.748   3.684  14.909  0.0336 -0.0540 -0.1585
19268W        W34399  14.146  14.196   5.794  0.3217  0.1817  0.2041
19269W        W34400   3.236   4.034  13.372  0.0467 -0.2816 -0.0460
19270W        W34401  13.005   5.306  14.859 -0.3273 -0.0727  0.0228
19271W        W34402   8.184   6.141   3.276  0.2784 -0.0493  0.0920
19272W        W34403  17.663   6.507  11.862  0.0870  0.1198 -0.1909
19273W        W34404   2.234  14.047   6.035 -0.1245 -0.0060  0.0662
19274W        W34405   3.978   1.897   0.074 -0.1784 -0.0455  0.3170
19275W        W34406  16.645   8.729  15.497 -0.1977  0.1078  0.0468
19276W        W34407  15.809   0.684   4.178  0.4107 -0.1447 -0.3316
19277W        W34408  15.671  13.912  15.972  0.0070  0.0762  0.1826
19278W        W34409   0.845  10.745  15.136 -0.0440 -0.0877  0.1049
19279W        W34410   6.794  16.459   3.165  0.4389  0.0413  0.1254
19280W        W34411  11.052  12.632  15.953  0.1675  0.0334 -0.2146
19281W        W34412  17.366  12.565   3.838  0.0398 -0.2475  0.0839
19282W        W34413   3.014   7.684   1.967 -0.2253  0.3563  0.0680
19283W        W34414  12.598  11.846  11.941  0.1202  0.2098 -0.1048
19284W        W34415   5.273  10.670  11.357  0.1362  0.3339  0.1769
19285W        W34416   3.704  13.942   1.791 -0.0919 -0.1271  0.0060
19286W        W34417  10.815   0.931   1.603  0.0263 -0.3509  0.2687
19287W        W34418   7.046   6.536   1.092 -0.1427  0.2455 -0.0026
19288W        W34419   5.186   5.619  14.531  0.3031 -0.1405  0.0284
19289W        W34420  16.045  14.512  14.934 -0.3716  0.0037  0.1088
19290W        W34421  11.959  13.834  15.974 -0.2669 -0.1437 -0.0309
19291W        W34422  12.103  16.941   4.509  0.0384  0.2494 -0.2015
19292W        W34423  15.206  12.122  15.552 -0.1169 -0.0328 -0.0806
19293W        W34424   5.129   1.291  13.961 -0.2845 -0.3417  0.2007
19294W        W34425   2.269   3.897  14.978  0.5043 -0.0302  0.1715
19295W        W34426   1.459   4.427  11.501  0.1419 -0.2012 -0.1298
19296W        W34427   6.781   3.833  15.018  0.1383  0.1685 -0.0577
19297W        W34428   7.530   5.530   4.772 -0.1610  0.1292  0.2532
19298W        W34429   9.288   9.228  16.156 -0.0011 -0.0066  0.2016
19299W        W34430   7.474   2.348  14.451 -0.1536  0.0472 -0.2290
19300W        W34431   6.695  17.553  11.625 -0.1362  0.2550 -0.3017
19301W        W34432  16.989  10.487  13.582  0.2081  0.0485  0.1456
19302W        W34433   6.272  14.818   3.469 -0.2356 -0.0430  0.0365
19303W        W34434   9.089  11.947   1.871 -0.1056  0.1337 -0.3071
19304W        W34435  13.452  14.996  11.096  0.0347 -0.0222 -0.1917
19305W        W34436  16.632  15.191   4.914 -0.3247 -0.0801 -0.2926
19306W        W34437  12.621  15.943   5.060  0.0209  0.2304 -0.0579
19307W        W34438   5.171   5.104  16.615  0.2781 -0.1871 -0.0189
19308W        W34439   1.478   5.819   1.587 -0.1350  0.0396 -0.0274
19309W        W34440  10.937  14.159   5.500  0.2785 -0.1207 -0.3520
19310W        W34441   6.388   7.825  15.207  0.1789  0.1780  0.1915
19311W        W34442   3.459   0.758   3.480  0.1904 -0.0823 -0.3350
19312W        W34443   1.101   7.991   3.775 -0.0093 -0.1209  0.1671
19313W        W34444  16.633   1.046   5.222 -0.1259 -0.2039 -0.0494
19314W        W34445   2.468   3.285  15.068 -0.2612  0.0136 -0.1262
19315W        W34446   3.069   5.064  15.144 -0.2791 -0.1877  0.1805
19316W        W34447   7.623   4.352   4.577  0.2275 -0.0454 -0.3969
19317W        W34448   0.467   1.268  12.229  0.0286  0.0800  0.0710
19318W        W34449  10.162   8.677  11.750  0.2119  0.1736 -0.0190
19319W        W34450  13.459   1.141  16.015 -0.0802 -0.0610 -0.0609
19320W        W34451  15.907   5.520   1.780 -0.0487  0.1989  0.0463
19321W        W34452   3.748   8.667  16.510  0.2154  0.2048  0.3136
19322W        W34453   2.772   3.743   1.128 -0.1922 -0.3176 -0.2327
19323W        W34454   3.904   5.874   0.472 -0.1097  0.0244 -0.0971
19324W        W34455  11.968   3.421  13.359 -0.1140 -0.0386 -0.0106
19325W        W34456   4.461  16.991   2.069 -0.2892 -0.0224  0.0869
19326W        W34457   0.035   4.362   2.096  0.0810  0.2462 -0.0058
19327W        W34458   4.171   7.299   3.352 -0.1958 -0.0884 -0.1311
19328W        W34459  14.348   7.138  13.114  0.2571  0.3642 -0.0599
19329W        W34460  16.529  15.764   1.485  0.1924 -0.1221  0.2758
19330W        W34461   3.331  15.075   2.663  0.1533 -0.3636  0.0086
19331W        W34462   9.787  15.961  12.055  0.2442 -0.1320  0.0007
19332W        W34463   0.389   4.370  13.341 -0.1278 -0.0291 -0.0793
19333W        W34464  16.117   5.327   1.323  0.0230  0.5220 -0.0069
19334W        W34465  15.596  16.879   0.766 -0.0953 -0.0868  0.0753
19335W        W34466  14.681  14.180  15.936 -0.0998 -0.0366  0.1036
19336W        W34467   4.273   5.257   2.568 -0.2950 -0.0579  0.0489
19337W        W34468   6.589   9.009  14.670  0.0370 -0.0556 -0.1158
19338W        W34469  15.580   0.585  15.932 -0.0776 -0.0998  0.0987
19339W        W34470  17.528   3.805  15.977 -0.1262  0.2125 -0.1554
19340W        W34471  16.901   8.419  14.142  0.0207  0.2667 -0.1598
19341W        W34472   8.133  16.312   5.330 -0.0215 -0.0628  0.0633
19342W        W34473   5.478   9.733  13.457 -0.1669 -0.1960 -0.0825
19343W        W34474  11.001   6.440  13.937 -0.0496  0.1101 -0.2153
19344W        W34475   3.083   8.844  15.722  0.0339 -0.1458 -0.2367
19345W        W34476   5.360  16.373  15.075 -0.2222  0.0040 -0.0567
19346W        W34477   2.666   5.182   0.744  0.0874 -0.0508 -0.1948
19347W        W34478   9.916   4.656   0.512  0.2219  0.0419 -0.0991
19348W        W34479   9.712   5.425  14.644  0.1019  0.0021  0.4438
19349W        W34480   1.185   9.871  13.490  0.3143 -0.1294 -0.1255
19350W        W34481  11.123  11.004  13.521 -0.2815  0.1099  0.0787
19351W        W34482  16.269   0.438   4.433  0.0761  0.0008 -0.1249
19352W        W34483   7.111   6.275   5.525  0.0537  0.0031 -0.0231
19353W        W34484   4.585   9.562  15.082  0.2319 -0.0835  0.1592
19354W        W34485   1.381   6.729  13.982  0.0294 -0.0406 -0.0211
19355W        W34486  14.403   3.409  12.576  0.3958 -0.1882 -0.0146
19356W        W34487  12.530   8.213   5.285  0.0961 -0.1575 -0.0946
19357W        W34488   6.799   2.185  13.848 -0.0722 -0.1383 -0.1761
19358W        W34489   9.000   1.367   0.363  0.0161 -0.0125 -0.0836
19359W        W34490  10.567   6.797  11.569 -0.0177  0.0011  0.1695
19360W        W34491  15.371   8.769   5.747  0.0418 -0.2142 -0.0477
19361W        W34492  12.922  10.337   0.695  0.0320  0.2473 -0.0982
19362W        W34493   5.730  10.461   4.168 -0.1251 -0.1671  0.0220
19363W        W34494  13.673  16.563  15.771 -0.2844 -0.1247 -0.2495
19364W        W34495   9.049  15.271   3.933  0.1134  0.0595 -0.3052
19365W        W34496  11.724  11.337  11.107  0.1503 -0.1949  0.1408
19366W        W34497  12.047  11.239   3.644  0.2864  0.0243  0.1132
19367W        W34498  12.303   6.154   0.458 -0.0927 -0.1284 -0.3676
19368W        W34499   9.504  16.243   2.252 -0.1160  0.1713 -0.2173
19369W        W34500  17.793  14.156  12.215 -0.2274 -0.1352  0.1745
19370W        W34501   6.964  14.546   2.408  0.1101  0.1648  0.0255
19371W        W34502  13.806  16.819   2.183 -0.1058  0.1473 -0.0302
19372W        W34503   9.001   2.015   5.196 -0.4153  0.2217 -0.0159
19373W        W34504   0.931   5.032  15.440 -0.4603  0.1913  0.1859
19374W        W34505  13.644   8.191  15.847  0.0263 -0.0393  0.3388
19375W        W34506  11.309  16.175   4.809 -0.3223  0.0488 -0.2540
19376W        W34507   6.839  10.265  11.780 -0.1833 -0.1527  0.0261
19377W        W34508   1.339  14.360  13.203 -0.1016  0.2512  0.2723
19378W        W34509  12.495  13.748   3.792 -0.1673  0.0718  0.6743
19379W        W34510   2.038  13.925  11.840  0.0184 -0.0490  0.0672
19380W        W34511  17.649  10.086   0.877  0.1741 -0.1670 -0.2586
19381W        W34512  15.717  10.218   0.069 -0.2143 -0.2018 -0.0392
19382W        W34513   9.475  14.619   3.287 -0.1894  0.3224  0.0855
19383W        W34514  11.319   9.543  15.468  0.1511  0.3849  0.2244
19384W        W34515  16.530   9.506   2.021 -0.1292 -0.1004  0.1302
19385W        W34516   7.960  10.970  14.586  0.2530  0.0606 -0.1337
19386W        W34517  14.485   6.551  14.985  0.0056 -0.1482  0.1751
19387W        W34518  14.920  10.088  15.744  0.1978 -0.0146  0.1078
19388W        W34519   0.710   1.663   6.075  0.0123  0.2623  0.0542
19389W        W34520  12.023  13.133   4.720  0.0924  0.0438 -0.0493
19390W        W34521   7.809  15.369   2.720 -0.3300 -0.3040  0.2096
19391W        W34522   1.672   4.253   4.301  0.0813 -0.0764  0.4009
19392W        W34523   1.770   7.996  15.175 -0.1174  0.0482 -0.2094
19393W        W34524  16.263   6.379   0.612  0.1880  0.2144 -0.0876
19394W        W34525   8.054  10.946   1.358  0.0985 -0.0198 -0.1449
19395W        W34526   6.476  14.908   4.939  0.1992  0.0151  0.0162
19396W        W34527   6.341  17.211   5.170 -0.2475 -0.3010  0.1657
19397W        W34528   1.485  17.038  14.574  0.0826 -0.0406  0.0020
19398W        W34529  10.585   4.984  16.381  0.1053  0.0100 -0.4920
19399W        W34530   2.415  11.242   5.117  0.1198 -0.1128 -0.1114
19400W        W34531  16.197  15.675  14.026 -0.0212 -0.0175  0.1139
19401W        W34532  11.257   6.660   1.929  0.2886  0.0126 -0.0264
19402W        W34533   8.373  15.124  15.963 -0.0431  0.0811  0.0079
19403W        W34534  11.210   6.316   3.451  0.2679 -0.3490 -0.0876
19404W        W34535   0.386   8.715   3.740 -0.1206 -0.3143 -0.0108
19405W        W34536   6.273   9.031   2.429  0.2954 -0.0804 -0.3931
19406W        W34537   7.822   5.960  13.532 -0.1949  0.2016 -0.2297
19407W        W34538  13.100   0.455  14.314 -0.1417  0.3078  0.4154
19408W        W34539  11.543   0.632  15.558 -0.0716 -0.1380 -0.1588
19409W        W34540   7.973  13.845   3.502 -0.2861  0.3818 -0.0510
19410W        W34541   9.898  17.813  11.807  0.1574 -0.2584 -0.1612
19411W        W34542  10.890  10.891   2.629 -0.3388 -0.1166 -0.1153
19412W        W34543  10.302  11.892  15.065 -0.0061 -0.4639 -0.1859
19413W        W34544   5.158  15.359   2.857 -0.0815 -0.1519 -0.0258
19414W        W34545  11.946  14.897   4.489 -0.0647 -0.0277  0.3553
19415W        W34546   5.870   6.967   0.731  0.0263  0.0421 -0.0193
19416W        W34547   6.462   2.326   5.176  0.0583  0.2679 -0.1858
19417W        W34548  13.841  11.920  15.056  0.0700 -0.1340 -0.1569
19418W        W34549   0.478  12.709   0.203  0.0397  0.2248  0.1029
19419W        W34550   5.023   6.739   5.575  0.1903  0.1444  0.1882
19420W        W34551  13.154  17.381  12.223 -0.0749  0.3386  0.2139
19421W        W34552   3.187   6.748   3.118 -0.2501  0.0455  0.0200
19422W        W34553  10.221   1.900   2.763 -0.1033 -0.0640 -0.2019
19423W        W34554   1.553  17.493   4.008 -0.0786 -0.1399  0.0722
19424W        W34555   5.707  12.359  16.645  0.0572  0.0710  0.0713
19425W        W34556  15.166   5.698  11.843  0.2033 -0.1934  0.0129
19426W        W34557   7.833   1.873   0.850  0.3080  0.0058  0.1985
19427W        W34558  15.904  12.946  14.299  0.1248  0.2603  0.0566
19428W        W34559   6.262  12.118   2.561 -0.3968 -0.4269  0.0577
19429W        W34560  12.028   5.056  14.719  0.0194 -0.0583  0.1849
19430W        W34561   4.644   8.422  13.265 -0.0285 -0.0122 -0.0099
19431W        W34562   4.044   8.087  12.632 -0.1925 -0.0132  0.2150
19432W        W34563  11.582   7.290   4.912  0.0190  0.0052  0.0082
19433W        W34564   2.069  13.176   5.271 -0.0051 -0.1780 -0.1364
19434W        W34565  13.432  11.824   4.726  0.1874 -0.0240  0.0428
19435W        W34566  11.786  17.766  10.038 -0.3457  0.0198  0.1178
19436W        W34567  10.730   0.531   0.647  0.3359 -0.0511  0.0398
19437W        W34568   3.551  17.178  12.373  0.0185 -0.2391 -0.2035
19438W        W34569  10.178  13.740  16.133 -0.4022  0.0760  0.0151
19439W        W34570  14.625  14.576  13.367 -0.0328  0.0749  0.1172
19440W        W34571  15.845  12.745  15.134 -0.2652 -0.0813  0.1624
19441W        W34572  12.119   8.276  14.589  0.0274  0.1397  0.1897
19442W        W34573  17.331   4.421   5.694  0.1869 -0.3077 -0.2756
19443W        W34574  15.586   0.671   3.668  0.2180 -0.1629 -0.1205
19444W        W34575   3.027   5.462  16.222  0.3117  0.0352  0.1159
19445W        W34576   4.795   5.242   1.805 -0.1822  0.0783 -0.1668
19446W        W34577   1.064  14.716   5.605  0.1889 -0.2917  0.1596
19447W        W34578  15.691   7.857   0.220  0.0701 -0.0944 -0.4377
19448W        W34579   0.754  12.842  11.830  0.0914 -0.2247 -0.1250
19449W        W34580   9.222   2.795   0.369 -0.0895  0.2312  0.2962
19450W        W34581  12.000  15.553   3.911 -0.1445  0.1787  0.3552
19451W        W34582   3.679  17.515  15.765 -0.4596 -0.0420  0.0768
19452W        W34583   4.912   8.330   3.197  0.3750 -0.0196  0.5418
19453W        W34584   4.950   0.207   4.751  0.2294  0.3373  0.1283
19454W        W34585   6.916   7.063  13.449 -0.0315  0.0470 -0.1084
19455W        W34586  14.370  16.176  16.472 -0.0992 -0.0209 -0.2952
19456W        W34587  13.023   0.635   5.191  0.2185  0.2102 -0.4173
19457W        W34588   2.365   8.495   1.746 -0.4294 -0.1583  0.0230
19458W        W34589   7.549   0.500   2.857 -0.1489  0.0549 -0.0759
19459W        W34590  15.607  12.481  15.480  0.3385  0.0321 -0.0496
19460W        W34591   5.716  11.012  12.114 -0.0480 -0.1619  0.1149
19461W        W34592   7.011  10.687  12.278  0.1572 -0.3012  0.0899
19462W        W34593  17.839   0.006   6.166  0.1690 -0.0469  0.2475
19463W        W34594   2.282   8.204   0.424 -0.0367 -0.0871  0.0396
19464W        W34595   4.970  16.560  12.905 -0.0558 -0.1908 -0.3157
19465W        W34596   6.749   4.060   4.978 -0.0758 -0.1136 -0.2922
19466W        W34597   7.427  16.530   1.384  0.2012 -0.1733 -0.1886
19467W        W34598  16.835  11.971  12.113  0.2455 -0.2931  0.0210
19468W        W34599   1.782   1.969   4.724 -0.1963 -0.0853  0.0538
19469W        W34600  10.725   0.656  14.537 -0.0266 -0.0941 -0.0865
19470W        W34601   8.605  12.198   1.003  0.0193 -0.0419  0.1783
19471W        W34602  16.019  10.435  13.388 -0.0646 -0.2030  0.2414
19472W        W34603  10.023  14.640  10.461  0.2784  0.1184  0.3542
19473W        W34604  17.653  15.810   4.139  0.0044  0.1182 -0.1120
19474W        W34605   4.944   7.606  15.734 -0.1502  0.1137 -0.3189
19475W        W34606  13.725   6.614   5.737 -0.1302 -0.1859 -0.1251
19476W        W34607   4.874   6.648  14.957 -0.1881 -0.0785  0.1182
19477W        W34608   9.428   3.308   0.804 -0.1881  0.1013  0.0955
19478W        W34609   0.881   6.258  11.592  0.2256  0.0064 -0.1229
19479W        W34610  12.699  17.797   2.609  0.1191 -0.1514  0.3114
19480W        W34611   5.760  17.672   4.293  0.1279 -0.1198 -0.0676
19481W        W34612   4.971   1.590  15.960 -0.2689 -0.3107  0.2163
19482W        W34613   7.683  10.107   2.858  0.0176  0.1688  0.0354
19483W        W34614   7.817   2.441   0.764 -0.1547  0.1168  0.3504
19484W        W34615  14.012  10.293  15.737  0.0868 -0.0893 -0.0420
19485W        W34616   1.600   4.932  11.580  0.1381 -0.2926 -0.0565
19486W        W34617  11.104  11.191  11.934  0.2103 -0.0858 -0.0715
19487W        W34618   6.092   7.190  12.642 -0.4623 -0.0565  0.3728
19488W        W34619  14.923   0.274   3.321  0.1776  0.1646 -0.2251
19489W        W34620   3.496   1.693   4.004  0.1452 -0.3829  0.1256
19490W        W34621  16.453  12.551   2.677 -0.1196  0.0330  0.3028
19491W        W34622  13.561  17.576   5.357 -0.0367  0.1179 -0.0124
19492W        W34623   9.293   9.338   4.618  0.1159  0.1335  0.0916
19493W        W34624   5.051  11.680   1.267 -0.2316 -0.0928 -0.0332
19494W        W34625  10.334   1.975  12.661  0.1034  0.1637 -0.0525
19495W        W34626   9.632   2.312   4.725  0.2400 -0.0043 -0.0301
19496W        W34627  16.056  17.552  12.455  0.0592 -0.3300 -0.3587
19497W        W34628  10.217   2.745   4.057  0.2967  0.1422 -0.0126
19498W        W34629   3.013  13.020  13.866  0.0464 -0.2284  0.3168
19499W        W34630   3.882   2.762  11.037 -0.2310  0.3938 -0.0706
19500W        W34631   9.102   1.584  11.956 -0.1044  0.1357 -0.0487
19501W        W34632   6.482  12.107   1.249 -0.0913 -0.0470 -0.3465
19502W        W34633  14.530   7.280  12.488  0.0808  0.0481 -0.1882
19503W        W34634  15.476   5.476   3.695 -0.1995 -0.3000  0.0630
19504W        W34635   1.501   2.791   0.978  0.0176  0.0912  0.0222
19505W        W34636   7.971  14.262  16.134 -0.2864  0.1083  0.1835
19506W        W34637  14.086   0.096  16.007  0.0802 -0.1036  0.0066
19507W        W34638  12.722  15.257  10.786 -0.1058 -0.1439 -0.0058
19508W        W34639  12.482   4.630   5.356 -0.0992  0.1195 -0.2024
19509W        W34640  14.081  12.860   4.851  0.0567  0.0282 -0.0020
19510W        W34641  14.920   7.863   5.381 -0.3001 -0.1026  0.0826
19511W        W34642  15.769  12.070  10.495  0.2740 -0.3059 -0.0390
19512W        W34643   8.317  11.888  12.918 -0.3175  0.1237  0.3667
19513W        W34644   2.883  16.180   1.375 -0.1749 -0.2169 -0.0691
19514W        W34645   0.956  16.164  11.807 -0.1710  0.0969 -0.1980
19515W        W34646   6.700   4.757   1.506  0.1462 -0.0525 -0.2070
19516W        W34647  13.033   4.552  13.553  0.0354 -0.2886 -0.0683
19517W        W34648  10.771  12.093   3.724  0.0049  0.0223 -0.1814
19518W        W34649   9.417  15.060   2.806  0.2372 -0.0104 -0.1384
19519W        W34650   7.344   1.938  13.805 -0.3381 -0.0986 -0.0414
19520W        W34651   2.679  14.992  13.135 -0.0825 -0.0059 -0.0936
19521W        W34652   2.953   9.529   3.393  0.1090 -0.2819 -0.2159
19522W        W34653   4.950  15.778  15.529  0.0991  0.3011 -0.0331
19523W        W34654  13.982   6.862   5.356  0.1080 -0.0485  0.0270
19524W        W34655   5.064   9.631  15.226  0.1828 -0.0520 -0.0427
19525W        W34656   8.304   3.480  13.336  0.1384  0.2064  0.0633
19526W        W34657  16.185  15.492   1.127 -0.0547 -0.1537  0.0945
19527W        W34658   8.648  15.367  11.687 -0.1189 -0.1912 -0.1639
19528W        W34659   9.172   4.927   3.891 -0.0951 -0.2017  0.0385
19529W        W34660   8.037  15.466  12.880 -0.0993 -0.0407 -0.3018
19530W        W34661  17.090   8.194   0.123 -0.3488 -0.1435 -0.0297
19531W        W34662  17.348  17.338  16.236 -0.0409 -0.0349  0.0678
19532W        W34663  17.124   3.453   1.730  0.0867 -0.3550  0.0137
19533W        W34664  17.226   7.090  11.778  0.0280 -0.2345 -0.0425
19534W        W34665  15.679  10.156  13.147  0.0042  0.1192  0.3126
19535W        W34666   8.441  13.631  15.615  0.3303 -0.0439 -0.1024
19536W        W34667   6.812   9.682  14.499  0.0774 -0.0348 -0.0467
19537W        W34668   8.185  13.318  11.678 -0.0555  0.2481  0.0846
19538W        W34669  14.361   7.952   4.535 -0.1369  0.0063 -0.2107
19539W        W34670  11.039  17.519  12.910  0.4375  0.0288 -0.2185
19540W        W34671  17.554  12.897  14.984  0.0046  0.0564 -0.0286
19541W        W34672  13.448   9.208  11.044  0.0451 -0.2726  0.3121
19542W        W34673  15.947   5.981   4.768  0.0284 -0.1353  0.0576
19543W        W34674   4.637  11.234  12.430 -0.0803  0.1015 -0.1900
19544W        W34675   0.715   7.910  14.315 -0.1010 -0.0627  0.1287
19545W        W34676  10.936   9.937  12.730  0.2591  0.3737 -0.1620
19546W        W34677   3.165   7.726   2.446  0.0351 -0.0846  0.2525
19547W        W34678  13.531  12.663   1.395 -0.0227 -0.0753 -0.2116
19548W        W34679   9.391   8.045   3.065  0.1830 -0.3011  0.1844
19549W        W34680   6.130   8.012  15.952  0.1358  0.2108 -0.0547
19550W        W34681   7.645   3.079   0.000  0.0516 -0.0806 -0.0177
19551W        W34682  14.857   0.220   5.230 -0.1409  0.0513 -0.1186
19552W        W34683  13.836  10.711  12.852  0.1034 -0.4464 -0.0110
19553W        W34684  12.013   1.583   5.500 -0.2621 -0.0516  0.1231
19554W        W34685  10.069   4.761   4.178 -0.1430 -0.0479 -0.1528
19555W        W34686   9.488   3.700  16.005  0.3573  0.3258 -0.3603
19556W        W34687  11.747   6.572  14.840 -0.4408 -0.3997  0.1568
19557W        W34688  16.547  11.278   4.120  0.0891  0.1025  0.2304
19558W        W34689   1.183  11.486   4.955 -0.0641  0.1352  0.0231
19559W        W34690   0.546  10.119  12.787  0.2134  0.3843 -0.4361
19560W        W34691   4.742   4.951  13.182  0.0820  0.1044  0.1549
19561W        W34692   0.427  17.025  15.112  0.0452  0.2975  0.0446
19562W        W34693  17.702   8.508  12.282  0.0692  0.1188  0.2468
19563W        W34694  13.114   8.922  12.574 -0.2263  0.3677 -0.0108
19564W        W34695   6.005   2.927   0.069 -0.1070 -0.0012 -0.2671
19565W        W34696  12.013  12.331   2.043  0.1159 -0.1227 -0.1473
19566W        W34697  13.782   0.133   5.700 -0.1418 -0.2675  0.1232
19567W        W34698   7.506  12.611   4.772 -0.2907 -0.3912 -0.0302
19568W        W34699  12.764  10.419  11.639  0.2271 -0.0472 -0.0434
19569W        W34700   6.959   7.155   4.208 -0.2541 -0.0288 -0.0855
19570W        W34701   5.321   9.520  14.855  0.2962 -0.2046  0.0171
19571W        W34702  13.241  16.379   2.713  0.0015  0.0374  0.0129
19572W        W34703  14.384   8.756   1.194  0.1371 -0.0407  0.1543
19573W        W34704  14.178  16.460   1.786  0.0842  0.3123 -0.1821
19574W        W34705  16.232  13.189  12.427 -0.3096  0.4908 -0.0507
19575W        W34706   4.649   7.241   0.383 -0.0657 -0.0199  0.0882
19576W        W34707   1.253   5.337   3.422  0.1587  0.1703 -0.0039
19577W        W34708   1.350   9.439  12.036 -0.1243 -0.1312 -0.0524
19578W        W34709  15.031   0.177   0.700 -0.0443 -0.0048 -0.1109
19579W        W34710  10.387  12.332   2.281  0.3866 -0.0685 -0.2785
19580W        W34711   6.619   4.186  12.652 -0.1123  0.4146  0.1117
19581W        W34712   9.936  12.760  13.542 -0.1061 -0.2755 -0.2158
19582W        W34713  13.051  16.943  11.661  0.1116 -0.0536 -0.1181
19583W        W34714  10.586   9.901  15.713 -0.3138  0.3219  0.1101
19584W        W34715  17.636  15.095  12.574  0.0489  0.2522 -0.2845
19585W        W34716  11.663   6.694   0.698 -0.3670  0.0341  0.0763
19586W        W34717   9.911  15.048   2.951 -0.2239  0.0572  0.1072
19587W        W34718  11.674  13.883   2.622 -0.0693 -0.0190 -0.2351
19588W        W34719   8.659  14.499   2.975  0.1303  0.0801  0.0729
19589W        W34720   5.966   4.467  15.676  0.0893  0.0224 -0.2906
19590W        W34721  15.492   8.879  16.371  0.0084  0.1259 -0.2545
19591W        W34722  12.009   6.980   5.669 -0.0283  0.0923  0.1338
19592W        W34723  10.558  16.467  14.058  0.0166 -0.1472 -0.1807
19593W        W34724   8.385   5.256  13.415 -0.2118  0.0993 -0.1135
19594W        W34725   4.386   3.422  15.931 -0.0416  0.0994  0.1272
19595W        W34726  15.036   4.634   0.402 -0.2669 -0.0756 -0.1572
19596W        W34727   1.198   5.938  13.542  0.1069  0.1162 -0.1442
19597W        W34728  13.355  16.887   2.573  0.0749  0.1241  0.0772
19598W        W34729   6.859   0.857  15.704  0.0155  0.0148  0.0343
19599W        W34730   2.660   8.298   2.386 -0.2685 -0.0255 -0.1003
19600W        W34731  12.949   8.238   3.563 -0.4336 -0.3762  0.1922
19601W        W34732   8.958   6.956  14.058  0.1482  0.0599  0.0578
19602W        W34733  11.476  17.426  12.630 -0.1233 -0.2185 -0.0474
19603W        W34734   8.366  12.391   4.636  0.3747 -0.2588  0.1249
19604W        W34735  16.291   5.541   2.035  0.1406 -0.1733  0.0279
19605W        W34736  12.598  17.123   5.671  0.0324 -0.2769 -0.0611
19606W        W34737  13.889   4.193   5.577 -0.0820  0.0048  0.0358
19607W        W34738  16.717   6.993   2.188  0.1527  0.0645 -0.5184
19608W        W34739   6.168   2.570  16.444 -0.0312 -0.0836 -0.1225
19609W        W34740   6.464   7.931  13.190  0.0764  0.1772  0.1096
19610W        W34741  10.320   7.646  15.761  0.0372 -0.2968  0.1189
19611W        W34742   4.216  17.536  15.863 -0.0312  0.0536 -0.1036
19612W        W34743   0.059  11.902   3.232 -0.0169 -0.5246  0.0153
19613W        W34744   0.674  15.960   3.054 -0.0897 -0.0523  0.1447
19614W        W34745   7.515  17.528   1.877 -0.1146 -0.0212  0.0741
19615W        W34746   5.213  17.398  13.270  0.3018 -0.1735  0.2386
19616W        W34747  16.935   2.209  15.798 -0.3286 -0.0122 -0.1784
19617W        W34748   9.059   6.308   5.898 -0.2654  0.1643 -0.3814
19618W        W34749  16.388  13.124  11.609 -0.0581 -0.2912  0.0736
19619W        W34750  10.365  17.687   5.081  0.1432 -0.0104  0.1880
19620W        W34751   0.937   0.161  11.396  0.4025  0.2126  0.1308
19621W        W34752  12.148   1.908  11.103  0.1442  0.0219  0.0073
19622W        W34753   6.435   6.592   4.820 -0.0472  0.1049  0.1311
19623W        W34754   2.166  13.140   4.374  0.1723 -0.0285 -0.0717
19624W        W34755   0.890  15.438   3.056 -0.1338  0.1753 -0.4891
19625W        W34756  13.257  14.936  16.026  0.1381 -0.1208  0.0198
19626W        W34757  17.801  12.955   2.883 -0.0258 -0.0717  0.1484
19627W        W34758  12.949  15.638  12.228  0.1662  0.0986  0.0415
19628W        W34759   1.571   9.816  13.844 -0.1747 -0.0591  0.1879
19629W        W34760  16.470   0.281   3.556  0.2176 -0.1400 -0.4175
19630W        W34761   7.434  16.442   0.322 -0.0546  0.1950  0.0012
19631W        W34762  14.332  16.216   3.988  0.1903  0.1422  0.0512
19632W        W34763   0.129  15.789  11.723 -0.0086  0.0394 -0.3929
19633W        W34764   8.587   5.318   3.255 -0.2757  0.0985 -0.1621
19634W        W34765  12.310   6.007   5.582 -0.0504 -0.4039  0.1684
19635W        W34766   9.149   8.247  15.363 -0.3430  0.0093 -0.1323
19636W        W34767  11.910  16.545   3.778  0.1682  0.1589  0.4094
19637W        W34768   6.007  17.212  15.106 -0.0453  0.0300 -0.0128
19638W        W34769  16.882  17.411   6.214 -0.1724  0.1569  0.1654
19639W        W34770   4.298  16.444  13.458 -0.2856 -0.1285  0.2484
19640W        W34771  14.866   3.475   4.708  0.1167  0.2028  0.1098
19641W        W34772  13.620  14.760  12.047  0.1850 -0.1346  0.0391
19642W        W34773  16.140   7.178   0.854 -0.0001  0.0061 -0.3414
19643W        W34774  15.434   3.500  10.502  0.1359  0.0384 -0.0613
19644W        W34775   8.581   3.819  12.933 -0.0620 -0.1830  0.2380
19645W        W34776   9.895   1.443   0.120 -0.2146 -0.1564 -0.0220
19646W        W34777  13.935   3.911   0.414  0.0363 -0.0795  0.1774
19647W        W34778   4.409   7.712   4.941  0.2185 -0.0135  0.0651
19648W        W34779   9.675   5.506   3.433 -0.1885 -0.1709  0.0407
19649W        W34780  12.166  11.965  10.350 -0.0362  0.1321 -0.0831
19650W        W34781  16.065  13.837   5.705 -0.0153  0.0916  0.2065
19651W        W34782  17.748   1.706   4.408  0.0467  0.0765 -0.1034
19652W        W34783  12.766   5.713   6.067  0.0034 -0.0847  0.1162
19653W        W34784   3.405   9.526  16.451  0.1602  0.0826  0.2624
19654W        W34785  15.030  10.925   2.498  0.0718 -0.0994 -0.0044
19655W        W34786   2.340  15.910  15.743 -0.1111  0.2435  0.0714
19656W        W34787  10.391  17.563   2.329 -0.1647 -0.0627  0.0457
19657W        W34788  17.625   1.035   5.519  0.1552  0.2481  0.1239
19658W        W34789   4.591  13.365  12.100 -0.0468 -0.0420  0.0825
19659W        W34790   0.114   4.931   2.199  0.0212 -0.2742 -0.1727
19660W        W34791  17.353   9.937   5.780 -0.0741  0.0713 -0.0047
19661W        W34792  15.987  15.985   5.554  0.0089 -0.1089 -0.0576
19662W        W34793   9.200   6.546  14.040 -0.2491  0.1555 -0.0173
19663W        W34794  10.866   5.400   3.914  0.1467  0.1241 -0.2295
19664W        W34795   1.368  10.849   1.933  0.0917  0.0813 -0.0424
19665W        W34796  14.648  10.501   6.424  0.3447  0.1994 -0.1491
19666W        W34797  10.424  15.180  11.000 -0.2353  0.1899 -0.1454
19667W        W34798   9.033  11.215   0.208  0.0750 -0.1468  0.0744
19668W        W34799  13.895   7.202  14.481 -0.1625  0.0816 -0.0328
19669W        W34800  14.999   9.996   2.548 -0.0680  0.2105 -0.1461
19670W        W34801   3.734   2.571   1.816 -0.0697  0.2134 -0.0234
19671W        W34802   0.062  13.854  16.468 -0.1056  0.0078 -0.1039
19672W        W34803  15.757  17.477   0.242 -0.0825 -0.2202  0.0402
19673W        W34804   2.028  16.137   3.022 -0.1942 -0.0296 -0.0916
19674W        W34805   8.396   6.934   4.379  0.0229  0.3357  0.2538
19675W        W34806  13.898  11.383  15.055 -0.3900  0.1777 -0.1376
19676W        W34807   2.836  14.071   5.922  0.2154  0.1109  0.3999
19677W        W34808  11.837  10.778  14.654 -0.2598  0.2839  0.1396
19678W        W34809   7.832   8.187   4.005 -0.0008  0.2474 -0.0345
19679W        W34810   4.975  15.251  15.685  0.0046 -0.0992  0.0686
19680W        W34811  15.648  16.877   4.037  0.1409 -0.0541 -0.0352
19681W        W34812  11.868  12.124  15.953 -0.0830  0.2561  0.3486
19682W        W34813   2.618   9.355   5.484  0.2130 -0.1257 -0.0121
19683W        W34814  14.152  13.647   0.907  0.0730  0.0613  0.2220
19684W        W34815   4.701  16.475   3.098  0.0599 -0.2637  0.0717
19685W        W34816  17.592  12.424  14.785 -0.0813  0.0379  0.0155
19686W        W34817   6.443   3.503  13.213  0.1245  0.0235  0.1010
19687W        W34818   9.076  15.382   3.097 -0.2942 -0.0040 -0.2716
19688W        W34819   2.567   8.028   1.974 -0.1186  0.0270  0.0292
19689W        W34820   0.511  12.138  14.502 -0.2612 -0.2990  0.2135
19690W        W34821   4.786   4.351  14.959  0.2646  0.1500 -0.0719
19691W        W34822  13.972  10.512  11.290 -0.1246  0.0723 -0.1305
19692W        W34823  15.082   7.250  12.989  0.1067 -0.3221  0.1996
19693W        W34824  17.411  12.654   2.115  0.1283 -0.2389  0.0070
19694W        W34825  14.405   9.722   5.093 -0.1874  0.2534  0.2934
19695W        W34826  12.923  15.864   0.817  0.1725  0.1066  0.0771
19696W        W34827  14.582  10.038  11.921 -0.0292  0.3543  0.0905
19697W        W34828   5.685   6.883   3.176 -0.0857  0.0673  0.1095
19698W        W34829   8.765  17.345   3.963 -0.0762  0.2365  0.0437
19699W        W34830  15.158   2.252   5.578  0.0901 -0.0256 -0.0410
19700W        W34831   0.285   1.306  15.122  0.1016  0.1020  0.1475
19701W        W34832  10.980   1.898   0.782 -0.3026  0.1708  0.1357
19702W        W34833   7.579  14.628   4.397 -0.0253  0.0011  0.1731
19703W        W34834  16.190   0.705   5.378 -0.0653  0.2316  0.3052
19704W        W34835   9.457  14.486   5.346 -0.4065 -0.2365 -0.1967
19705W        W34836  12.844  13.264   3.807  0.1436 -0.1897 -0.0729
19706W        W34837  10.360   7.235  14.826  0.1396 -0.0546  0.0553
19707W        W34838  17.148  10.832  15.291  0.0383 -0.0881  0.1093
19708W        W34839  13.307   1.109   2.561  0.0297  0.1994 -0.1308
19709W        W34840   8.643   8.038   1.554  0.4021 -0.0776 -0.1547
19710W        W34841   8.462   1.815  12.194 -0.1094  0.1396  0.1872
19711W        W34842   0.519   7.996   2.955  0.0905  0.0445 -0.1980
19712W        W34843   2.995   3.141   3.600 -0.0897 -0.0932  0.1079
19713W        W34844   8.563  17.849   3.295 -0.1320 -0.0421 -0.2010
19714W        W34845   3.368  17.507  14.711  0.2032 -0.0929  0.0789
19715W        W34846  16.906   5.194  16.652 -0.1314 -0.2308 -0.1190
19716W        W34847   0.779  17.865   1.970  0.0078  0.0645  0.0167
19717W        W34848  15.484  11.459   6.133  0.1012  0.1961 -0.1871
19718W        W34849   8.601   1.475   4.258 -0.1503 -0.0357 -0.1054
19719W        W34850   2.471   0.045   5.156  0.3116 -0.0690 -0.4004
19720W        W34851  11.012   6.333  14.868  0.0277  0.0031  0.0149
19721W        W34852   6.774   7.765  12.301  0.0555 -0.1376  0.0506
19722W        W34853  15.188  15.894  12.027 -0.1067 -0.1299 -0.1066
19723W        W34854   8.390  16.895   5.356 -0.0478 -0.1490 -0.0269
19724W        W34855  11.439  11.987  12.653 -0.1771 -0.0427  0.0145
19725W        W34856   0.457   7.699  12.302  0.1644 -0.0210  0.1876
19726W        W34857   5.730   2.640   2.206  0.0429  0.0866 -0.2016
19727W        W34858  17.751  16.008  16.592 -0.2385 -0.0755 -0.1759
19728W        W34859   0.347  11.305  14.105 -0.1606 -0.1189  0.3846
19729W        W34860   4.004  16.700  13.054 -0.0056  0.2297  0.1002
19730W        W34861  12.696  13.062  14.395  0.1615  0.1401  0.0278
19731W        W34862   6.718  12.175  15.338 -0.1015  0.0823  0.2020
19732W        W34863   6.828   8.522   1.562 -0.1477  0.2018  0.0133
19733W        W34864   8.246   4.065   3.794  0.2328 -0.1608 -0.1714
19734W        W34865  12.686   7.436  13.271  0.0203  0.1066  0.0167
19735W        W34866   6.365  11.739   0.859  0.0809 -0.0272  0.1682
19736W        W34867  10.101  10.606  12.542 -0.0776 -0.2484 -0.2266
19737W        W34868   6.353  17.576   5.971 -0.1522  0.1695 -0.1789
19738W        W34869   6.845   3.933  13.149  0.2220 -0.0138 -0.2216
19739W        W34870   5.092  13.230  12.302 -0.1153  0.1185 -0.2752
19740W        W34871   7.319  11.064  15.773 -0.2071 -0.1961  0.1925
19741W        W34872   0.173   2.666   2.096  0.1601  0.0490 -0.2210
19742W        W34873   3.242   2.500   1.066 -0.0680 -0.4911 -0.1574
19743W        W34874  16.185  13.526   3.976  0.1107 -0.1332 -0.1198
19744W        W34875   2.905  13.726   5.177 -0.0475 -0.1389 -0.0862
19745W        W34876  13.152   7.780   3.581  0.1243  0.2603 -0.0576
19746W        W34877   8.750  10.333  14.861 -0.0226  0.3492  0.0619
19747W        W34878   7.733   9.427   3.338 -0.1442  0.1353  0.0501
19748W        W34879  10.722  12.164  14.323 -0.1194 -0.1021  0.1016
19749W        W34880  15.952   8.305  11.458  0.0110  0.2291  0.1852
19750W        W34881  13.231   3.454  12.981 -0.0650 -0.4232 -0.1955
19751W        W34882  11.449  13.347   5.614 -0.4347  0.0544 -0.1743
19752W        W34883   8.282  15.683  13.829 -0.1666 -0.0118  0.2868
19753W        W34884  11.671  13.681   0.302  0.1460  0.0107  0.1989
19754W        W34885   9.116  16.069   3.104 -0.1386  0.0784 -0.1045
19755W        W34886   5.677  10.047  12.162 -0.1708 -0.0232 -0.1144
19756W        W34887   1.580   0.361  16.262  0.1088  0.2109 -0.1207
19757W        W34888   8.964   3.330   0.401 -0.2342 -0.0498  0.1107
19758W        W34889  12.018   9.148   3.478  0.0790 -0.1118 -0.1922
19759W        W34890   3.750   6.780  15.573  0.0443  0.0301  0.1027
19760W        W34891  16.215   5.027   0.634  0.3379 -0.0147 -0.2762
19761W        W34892  11.279  17.100  13.626 -0.1009 -0.3143  0.2642
19762W        W34893   3.837   3.084   1.767 -0.1049 -0.0196  0.1197
19763W        W34894   4.159  17.750   1.050 -0.0424 -0.1928  0.1807
19764W        W34895   2.984  17.840   5.597 -0.2768  0.1284 -0.0252
19765W        W34896  17.322   6.688   3.456  0.0396  0.0466 -0.0776
19766W        W34897  15.078   2.188  13.921  0.0584  0.1448  0.0787
19767W        W34898  13.226  12.704  13.217  0.0020 -0.1418  0.2553
19768W        W34899   8.946   0.932  14.517  0.1908 -0.2173 -0.1634
19769W        W34900  14.236  15.110  15.769 -0.1095 -0.1822  0.0661
19770W        W34901   7.362   6.081   5.066 -0.2068 -0.0908  0.4157
19771W        W34902   8.806   2.369   4.460  0.2492 -0.0724 -0.0255
19772W        W34903  13.992  11.973   4.050  0.0254 -0.0723 -0.0732
19773W        W34904  15.189   5.139  13.208 -0.0384  0.0560 -0.1210
19774W        W34905  16.792  11.132  16.589  0.0192 -0.3798 -0.0015
19775W        W34906   4.250  14.192  11.782  0.1103  0.0052  0.0703
19776W        W34907   6.307   1.652  11.902  0.0066  0.4740 -0.2365
19777W        W34908  10.144  12.673  11.503  0.0451  0.0570  0.2329
19778W        W34909   9.540   7.729  11.903  0.1910 -0.1330 -0.4539
19779W        W34910   1.467   4.849   0.849 -0.0018 -0.2225 -0.1160
19780W        W34911   2.810   1.713   3.494  0.0373  0.1542 -0.0909
19781W        W34912  13.425   3.767  16.435  0.2675 -0.0344  0.3612
19782W        W34913   3.986   1.594  12.366  0.1726 -0.1469 -0.0505
19783W        W34914   8.833   6.990  11.001 -0.1181 -0.1803 -0.3852
19784W        W34915   4.451   1.672  13.118 -0.1187  0.0427  0.3434
19785W        W34916   8.774  16.586  13.183  0.0861 -0.0558  0.1013
19786W        W34917  11.322   6.936  14.666  0.1304  0.0458 -0.1048
19787W        W34918  11.245   2.412   3.353  0.1187 -0.2033  0.3865
19788W        W34919  10.547  11.151  14.311  0.0900 -0.0407 -0.1158
19789W        W34920   1.133   9.830   1.553  0.2160  0.2405  0.1299
19790W        W34921   4.999  17.032   0.255 -0.0148 -0.1595 -0.3395
19791W        W34922  13.889  14.174   2.591  0.2796  0.1338  0.1049
19792W        W34923  16.272  15.334  14.464 -0.2232  0.1891 -0.0478
19793W        W34924   0.795   3.340  16.240  0.1328  0.0727  0.0852
19794W        W34925  16.072   3.023   0.490  0.0576 -0.1375 -0.0355
19795W        W34926  17.857  17.570   3.505 -0.0673 -0.1030  0.2129
19796W        W34927   5.138   7.877  16.671  0.0271  0.0347  0.0894
19797W        W34928   2.045   8.937   0.819  0.0449  0.0683  0.2105
19798W        W34929  15.972   7.741   5.317 -0.0367  0.0649  0.0167
19799W        W34930   3.340   3.682   2.980  0.0185  0.0061 -0.1562
19800W        W34931  14.540   4.152  14.369  0.1341 -0.0178 -0.1801
19801W        W34932  16.331  16.099   2.842  0.1396  0.0631 -0.2533
19802W        W34933  15.851   8.781   4.875  0.1460 -0.0707 -0.1141
19803W        W34934  11.061   4.356  14.080  0.0433  0.1297 -0.1530
19804W        W34935  10.497   0.896  15.804 -0.0383  0.0391  0.1433
19805W        W34936   2.834  12.098   4.522  0.0088 -0.1299 -0.0101
19806W        W34937   6.275   4.808  13.987 -0.0954 -0.0057  0.0969
19807W        W34938  14.891   3.857   5.846  0.1701 -0.1271  0.4544
19808W        W34939  14.504  12.194   2.695 -0.1629  0.3115 -0.1986
19809W        W34940   2.385   5.677  11.139 -0.1526  0.0211 -0.2794
19810W        W34941  17.304   7.964  11.551 -0.1063 -0.0137 -0.1527
19811W        W34942  16.443  17.586  15.579  0.2577  0.2302  0.1504
19812W        W34943   2.430   2.262   5.543  0.0988 -0.0340 -0.0928
19813W        W34944  14.870  11.403   1.110  0.1089  0.2667  0.0698
19814W        W34945  11.722  10.017  12.119  0.0114 -0.1730  0.1149
19815W        W34946  10.531  14.231   0.723  0.0006 -0.0184 -0.1818
19816W        W34947   3.322   9.977   0.966 -0.1841  0.0397  0.1854
19817W        W34948   3.949   9.919   4.016  0.2381  0.0990 -0.1712
19818W        W34949  10.768   5.037   0.619  0.0595  0.0050  0.0486
19819W        W34950  10.730   5.531   5.373  0.0954 -0.1635  0.0617
19820W        W34951   7.928  15.163   1.077  0.0766 -0.0609  0.0926
19821W        W34952   1.924   4.843   0.979 -0.1992  0.0238  0.2912
19822W        W34953  15.971  15.836   2.360  0.1047 -0.0713 -0.1396
19823W        W34954  10.501   0.162   4.295 -0.2904  0.0992 -0.0144
19824W        W34955   8.302   2.574   5.154  0.1077 -0.1034  0.0044
19825W        W34956  15.836   7.205  13.077 -0.1094 -0.0075  0.1857
19826W        W34957   9.929  13.263  16.718 -0.0429 -0.2716  0.1920
19827W        W34958  11.641  11.051   3.882 -0.0306  0.2975 -0.2580
19828W        W34959  13.089   9.953  13.621  0.2325 -0.2968 -0.1855
19829W        W34960  11.407   8.915  15.503 -0.0070 -0.1897 -0.0304
19830W        W34961   2.252   4.919   0.620 -0.0945 -0.1687  0.2040
19831W        W34962   9.865  12.477   2.162  0.2106  0.2953 -0.0293
19832W        W34963   2.817  10.161   0.854  0.2846 -0.0846  0.1369
19833W        W34964  12.823   3.988  16.145 -0.1301 -0.0149 -0.1711
19834W        W34965   8.272   2.616  11.551 -0.0180  0.0194 -0.1239
19835W        W34966   7.034  12.331   5.988  0.0303 -0.0633  0.2486
19836W        W34967   5.854  12.730  11.402  0.0060  0.2285 -0.2141
19837W        W34968   9.073  14.698   4.112  0.2197 -0.0699  0.1594
19838W        W34969  14.166  15.894  11.387 -0.1848  0.0851 -0.0178
19839W        W34970  12.527   7.805   4.364  0.0875 -0.0494 -0.0281
19840W        W34971   7.224   6.336  15.337 -0.2007 -0.3100  0.3266
19841W        W34972  13.280  16.322   0.020 -0.0639  0.0565 -0.0575
19842W        W34973   1.424  13.726   0.495  0.2159  0.2690 -0.3649
19843W        W34974   3.274   8.412  13.147  0.2899  0.0329  0.1496
19844W        W34975  11.498   4.922  11.073  0.1359  0.1581  0.1494
19845W        W34976  14.379   1.948  14.783  0.0509 -0.0578 -0.1213
19846W        W34977   4.160   8.234  11.850 -0.1519  0.0869 -0.1238
19847W        W34978  13.549  10.699   3.131 -0.0079 -0.1102 -0.1415
19848W        W34979   4.812   3.238  12.252 -0.1073  0.2017  0.0495
19849W        W34980   3.259  15.405   5.008 -0.0498  0.1260 -0.2034
19850W        W34981  17.168   9.298   3.144 -0.2376 -0.0016  0.2111
19851W        W34982  14.921   6.347  14.041 -0.0092 -0.4079  0.1477
19852W        W34983  17.657   4.304   6.061  0.2438  0.2290  0.1114
19853W        W34984   8.105   4.058   4.636  0.2265 -0.0929  0.1064
19854W        W34985   2.249   8.477  15.404 -0.1757  0.0075 -0.0019
19855W        W34986  16.322   2.285  12.066 -0.0809 -0.0714  0.2398
19856W        W34987   8.583   5.262  15.890  0.0886 -0.3239  0.0437
19857W        W34988  17.291  10.830  11.631  0.4064 -0.3052  0.0447
19858W        W34989   4.589   9.964  11.303  0.0942  0.2529 -0.1538
19859W        W34990   6.714  11.579  13.185  0.4473 -0.0110 -0.1092
19860W        W34991   5.028  13.708  14.027  0.0431  0.0767 -0.2114
19861W        W34992  16.163   5.015   5.111 -0.0241 -0.0432  0.0647
19862W        W34993  15.270  12.116   1.529  0.1241  0.1374 -0.1906
19863W        W34994  10.298   5.462   0.640  0.4099  0.1457 -0.3445
19864W        W34995  17.625  10.732   0.835 -0.1714 -0.4034 -0.1068
19865W        W34996   3.664   2.575   6.168 -0.0928 -0.2322  0.0033
19866W        W34997   8.559   2.521   3.042  0.1337 -0.1060  0.1132
19867W        W34998   7.814   8.746  15.647 -0.3029  0.1350 -0.2354
19868W        W34999   2.533   9.962  12.821  0.1454  0.3118  0.0155
19869W        W35000  15.907   2.514  12.022 -0.0200 -0.1982  0.0758
19870W        W35001  16.710  17.178  11.695  0.3596 -0.0300  0.1049
19871W        W35002   2.946   5.516   2.887  0.0808  0.0371  0.0983
19872W        W35003   2.971   9.860  16.551 -0.1595  0.0688 -0.2048
19873W        W35004  13.017  14.049  15.587  0.0109 -0.1338 -0.0083
19874W        W35005   7.864   8.801  13.178 -0.3298  0.0247  0.0279
19875W        W35006   4.351  13.832   3.151  0.1626 -0.0294  0.2761
19876W        W35007   5.263  16.179  11.788  0.0289  0.3511 -0.4527
19877W        W35008   8.878   6.904   2.407  0.0895  0.1222  0.0533
19878W        W35009  15.948   6.095   0.915  0.1257 -0.3685  0.1257
19879W        W35010   3.192  14.058  12.930  0.1383 -0.0631 -0.0355
19880W        W35011   6.935   8.183   5.317  0.2316 -0.4434 -0.0641
19881W        W35012  10.891  15.977  15.653  0.0820 -0.2093  0.0616
19882W        W35013  14.954   0.391  14.683  0.0397 -0.0707 -0.0227
19883W        W35014  15.935  11.726  12.555  0.2565 -0.0325  0.0851
19884W        W35015  17.308  11.015   2.387  0.0197 -0.1069  0.0933
19885W        W35016   8.941   4.958   2.273  0.1391  0.0830 -0.0285
19886W        W35017  16.847   3.327   2.106  0.0341  0.0303 -0.0346
19887W        W35018  12.657   7.925   4.804 -0.1117 -0.1613  0.1208
19888W        W35019   1.449  14.846  13.914 -0.1197 -0.2855 -0.3513
19889W        W35020   8.412   3.806   4.195  0.0129  0.0328  0.1265
19890W        W35021   6.092  16.657   0.094 -0.0802 -0.3237 -0.1315
19891W        W35022   5.767  10.048  14.358 -0.0598 -0.0891  0.2797
19892W        W35023  16.526  16.353   4.096 -0.0605 -0.0091 -0.1686
19893W        W35024   0.023  16.242   4.177 -0.1803  0.1637  0.2456
19894W        W35025  13.412  11.016  14.229 -0.1654  0.5500  0.0727
19895W        W35026  15.648   9.124  11.019  0.1531 -0.0035  0.1353
19896W        W35027   3.786  17.320   3.216  0.2761 -0.0571 -0.2467
19897W        W35028  10.979  15.843   3.882  0.0221  0.1748  0.0656
19898W        W35029   6.446   1.219   4.888  0.1380 -0.0802 -0.1388
19899W        W35030  11.034   3.522  15.712 -0.0859  0.1678  0.1066
19900W        W35031  16.411   8.970   2.705  0.1168 -0.1466 -0.2873
19901W        W35032   3.517   9.151  11.400 -0.3065  0.1301 -0.4439
19902W        W35033   0.768   4.817  14.990  0.0757 -0.2758  0.1700
19903W        W35034  10.742  15.186   3.582  0.0466  0.1111  0.0730
19904W        W35035   5.765   2.400  16.109 -0.1561  0.0967  0.1287
19905W        W35036   1.968  17.611  13.374  0.0503  0.4414  0.2147
19906W        W35037   3.040   9.144  15.257  0.0998  0.0880  0.0592
19907W        W35038   3.794   9.483  12.140 -0.0517 -0.0079 -0.0284
19908W        W35039  12.494  12.691   6.052  0.1590  0.1539 -0.0997
19909W        W35040  10.691   5.490  12.140  0.0062  0.0684 -0.0437
19910W        W35041  16.882   4.921   4.068 -0.1400  0.2637  0.3021
19911W        W35042   8.145   8.489   1.654 -0.0088 -0.3684  0.0756
19912W        W35043  13.612   7.923   3.744  0.1134  0.4027  0.0881
19913W        W35044   0.422   4.351  11.523  0.2113 -0.0493  0.0371
19914W        W35045   1.529   5.120  16.044  0.2928 -0.1100  0.2790
19915W        W35046  16.852  16.176   1.435 -0.1816  0.0703 -0.0138
19916W        W35047  14.050  15.297   0.400  0.0674 -0.0292  0.4903
19917W        W35048   4.921  10.353   0.547 -0.0430 -0.2220 -0.0396
19918W        W35049   7.721  14.608   0.716 -0.0265  0.1072  0.0296
19919W        W35050  12.697  15.904   1.962 -0.0471  0.2681  0.0559
19920W        W35051  12.715  12.234  15.785  0.0221 -0.1060 -0.0982
19921W        W35052  17.382   7.622   4.201 -0.1546  0.0185  0.1204
19922W        W35053  17.293   8.724   6.073 -0.1820  0.1108 -0.1445
19923W        W35054  11.911   9.106  13.420 -0.3597 -0.0177  0.0572
19924W        W35055   1.957   8.801  14.623 -0.1543  0.0686 -0.0124
19925W        W35056  16.288   5.195  13.629  0.0467  0.0437  0.0153
19926W        W35057  11.045   4.611  12.264  0.1094  0.3399  0.0957
19927W        W35058  16.405  11.701  16.379 -0.0248  0.1012 -0.1977
19928W        W35059   6.484  13.394   5.102 -0.1084 -0.0978  0.2043
19929W        W35060  12.161   1.585   2.622 -0.1662  0.1353  0.0252
19930W        W35061   7.645   0.766   4.637  0.1008 -0.0128  0.2005
19931W        W35062  14.347  11.918  14.309 -0.4541  0.0435  0.2271
19932W        W35063  13.869  17.114  11.212 -0.2449 -0.0465 -0.0589
19933W        W35064   8.776   9.089  14.821 -0.1785 -0.1023  0.0507
19934W        W35065  13.574   3.296   4.559  0.1058  0.1535 -0.2640
19935W        W35066   5.457   2.084  11.049  0.0389  0.0499 -0.1485
19936W        W35067  17.778  12.817  12.804  0.1043 -0.0545 -0.0796
19937W        W35068   6.519   5.969   4.933 -0.0997 -0.1059 -0.2023
19938W        W35069   5.374   8.463  13.799  0.2723  0.0675 -0.0224
19939W        W35070   5.373   8.911   4.406  0.0452  0.2020  0.2803
19940W        W35071   2.267   9.062  12.566 -0.0343 -0.1735  0.3692
19941W        W35072  12.211   2.755  16.571 -0.1319  0.0727  0.0567
19942W        W35073   8.593   8.869   5.070 -0.2241 -0.1045  0.0933
19943W        W35074  14.158  14.155   4.005 -0.1240  0.1241 -0.2076
19944W        W35075   9.109   7.834  15.048 -0.1709  0.2013  0.2954
19945W        W35076  14.395   6.562   1.017  0.1018 -0.0242 -0.1428
19946W        W35077  10.400  17.299   1.889 -0.1964 -0.2223  0.4987
19947W        W35078   8.901   2.731  10.666 -0.1812 -0.2031  0.2879
19948W        W35079  13.972   1.223  16.164  0.1853  0.0412 -0.1076
19949W        W35080  11.718   2.607  13.850  0.2562 -0.0609  0.1530
19950W        W35081  13.592  14.688   3.862 -0.1593 -0.3340 -0.2664
19951W        W35082   7.918  14.129  12.302  0.1338 -0.2883 -0.0508
19952W        W35083   9.473  15.517   4.212  0.1693  0.0695 -0.1774
19953W        W35084   7.852  13.210   5.537 -0.2222 -0.1109  0.1522
19954W        W35085   2.989  11.242  13.726 -0.0593 -0.0048 -0.1767
19955W        W35086  16.251  16.194   2.067 -0.1772 -0.0651  0.0485
19956W        W35087  15.936  13.740   0.911 -0.3561  0.0829 -0.2986
19957W        W35088   8.943  14.256  16.579  0.1827 -0.1286  0.1053
19958W        W35089  13.611  14.824  14.788  0.1282 -0.3398  0.3255
19959W        W35090   9.747   2.963   5.411 -0.0612  0.1559 -0.0455
19960W        W35091   4.979   9.179  14.945 -0.4226  0.0869  0.1614
19961W        W35092  10.861   5.697  12.640 -0.0557  0.3706 -0.1945
19962W        W35093   5.437   0.317   3.476 -0.1267  0.1950  0.0262
19963W        W35094   4.992   0.597   1.816  0.1769 -0.0062  0.1033
19964W        W35095  16.055  16.888  13.451  0.1790  0.1117  0.0463
19965W        W35096  11.127   1.925   0.231  0.1063  0.0684  0.2356
19966W        W35097   4.754   4.558  12.520  0.1748  0.1208  0.2867
19967W        W35098   4.279   4.143  14.811 -0.2167  0.0843 -0.2137
19968W        W35099   9.306  10.935   2.688  0.0035 -0.0313 -0.0318
19969W        W35100  11.610  15.305   3.699  0.3776  0.2643 -0.2062
19970W        W35101   4.730  10.252   5.149  0.1494 -0.0726  0.2432
19971W        W35102   3.633   0.098  15.008 -0.0407  0.2094 -0.0205
19972W        W35103   6.378   2.271  11.744 -0.2743  0.1232  0.1357
19973W        W35104  15.583  16.885  15.829 -0.2400 -0.1378 -0.2729
19974W        W35105   5.682  10.717   1.785 -0.3639  0.1784  0.0349
19975W        W35106   4.248  14.387   3.586 -0.2337  0.0878  0.2174
19976W        W35107   1.004   6.611  15.803 -0.2115  0.1429  0.0603
19977W        W35108   7.016   3.876   4.115  0.0816 -0.0911  0.0444
19978W        W35109   7.947   2.012  14.502  0.0552 -0.5294 -0.0044
19979W        W35110  10.828  15.791   4.891  0.1197  0.3119 -0.5007
19980W        W35111  14.394  16.364  11.003  0.3850  0.0297 -0.0035
19981W        W35112   5.788   8.260   4.769  0.1322 -0.0070 -0.2038
19982W        W35113   0.875  17.419   6.381 -0.0399  0.1238 -0.0648
19983W        W35114  15.399   1.922  15.888 -0.2313 -0.0008  0.0889
19984W        W35115  11.128  12.928   5.741 -0.2926  0.0795  0.0209
19985W        W35116  15.614   4.939  13.110 -0.1989 -0.2051 -0.0885
19986W        W35117   2.691   5.936  15.293  0.0313 -0.0812  0.0284
19987W        W35118   9.750   4.427   0.087 -0.0049  0.0528 -0.0166
19988W        W35119   1.219   4.555  13.822  0.1111 -0.1195  0.1558
19989W        W35120  15.347   5.086  13.780 -0.2810 -0.1583  0.1841
19990W        W35121  13.934   3.177   2.413 -0.0647  0.0637 -0.1850
19991W        W35122  13.754   5.146   2.752  0.0225 -0.0212  0.0379
19992W        W35123   1.588  10.051  12.918 -0.1548 -0.1561 -0.2288
19993W        W35124   8.365  13.916  16.061 -0.0405  0.0315  0.1526
19994W        W35125  16.834   2.695   5.537 -0.0928  0.0684  0.2444
19995W        W35126  12.002   5.106   1.015 -0.1850 -0.1994  0.1189
19996W        W35127  16.507  12.609   3.265  0.1532  0.0260 -0.0562
19997W        W35128   4.423   4.057  13.433  0.1098  0.1392  0.0082
19998W        W35129   5.581   9.118   0.102 -0.2103  0.3042 -0.3824
19999W        W35130   2.996   7.812  11.593 -0.3560 -0.2447 -0.1157
20000W        W35131  15.697   7.962  11.651 -0.0190  0.1516  0.0706
20001W        W35132  13.403   1.246  15.377 -0.2588  0.1502 -0.3015
20002W        W35133   5.278   3.144  15.112 -0.1612  0.2229  0.2810
20003W        W35134   3.735   0.133   1.009  0.1674  0.2118 -0.1300
20004W        W35135  12.477   9.244  11.245 -0.1456  0.0322 -0.1019
20005W        W35136  15.448  14.923   1.073 -0.0730 -0.2819  0.1715
20006W        W35137   9.015   6.183   0.805  0.0870 -0.0081 -0.1031
20007W        W35138   2.468   1.111  13.592 -0.3478 -0.0941 -0.0722
20008W        W35139  11.305  15.599   1.277  0.3538 -0.0400 -0.0380
20009W        W35140   7.854   3.536  14.462 -0.0476  0.1170 -0.2066
20010W        W35141  15.408   8.672  15.122 -0.0102  0.0402 -0.0171
20011W        W35142   3.972  15.483  16.741 -0.1141  0.0628 -0.1546
20012W        W35143  10.796   6.050   5.586 -0.1531  0.2179  0.0639
20013W        W35144   9.552   2.488  13.613  0.1806 -0.3600 -0.0293
20014W        W35145  10.754   3.993   3.068 -0.0408 -0.0378 -0.1615
20015W        W35146   6.213   3.691  14.048  0.2227  0.1267  0.2148
20016W        W35147   0.891  17.725   0.250 -0.1135  0.2468  0.0118
20017W        W35148   8.413   6.756   1.069 -0.2490 -0.1868 -0.2300
20018W        W35149  10.231  15.147   0.981  0.0575 -0.1926 -0.1731
20019W        W35150   0.248   7.489  15.094 -0.1223 -0.0152 -0.0568
20020W        W35151   9.694  13.223  14.281 -0.0693  0.3178  0.1065
20021W        W35152   9.545   0.382  10.764  0.2187 -0.0255  0.0856
20022W        W35153   5.657   4.948  11.703 -0.0909  0.0929  0.0762
20023W        W35154   0.406   2.568   1.238  0.2078 -0.1044 -0.1057
20024W        W35155  12.553  17.825  11.193  0.2343  0.1203  0.0734
20025W        W35156  10.413   1.257  14.085  0.4603 -0.1472 -0.1346
20026W        W35157   3.899   1.564  10.657  0.1865  0.0065 -0.2389
20027W        W35158  10.377   1.292   3.107  0.3294  0.0116  0.1098
20028W        W35159  17.600  16.425  13.554  0.1687 -0.2449  0.0220
20029W        W35160   5.143  14.177  13.927  0.2501  0.3452  0.0694
20030W        W35161   5.557  14.212   1.519  0.1133 -0.1053  0.2461
20031W        W35162  12.922   9.680   1.684  0.1234 -0.0980  0.3193
20032W        W35163   2.216  12.528   2.789 -0.0681 -0.0665  0.0777
20033W        W35164   9.319   5.062   4.843 -0.3817  0.1993 -0.3626
20034W        W35165  16.649   2.051  16.763 -0.2612  0.0605 -0.2202
20035W        W35166  13.571   9.990  15.359 -0.0133 -0.1171  0.0752
20036W        W35167   8.892   2.408   0.104  0.2236  0.3216  0.1687
20037W        W35168   6.108   6.222   1.989  0.1891  0.0411  0.1452
20038W        W35169   7.296   7.601   2.046  0.0839  0.0631  0.0048
20039W        W35170  15.705  16.432   0.479  0.0076 -0.3085 -0.2323
20040W        W35171   8.054  13.413  13.641 -0.0961  0.2362  0.0562
20041W        W35172   6.139   7.053   2.365  0.0205 -0.1128 -0.0283
20042W        W35173   6.734   9.976  14.082  0.1324  0.0621  0.0034
20043W        W35174  11.285  14.346   4.617  0.1015 -0.0947  0.1015
20044W        W35175  17.458  16.121   2.915  0.0297  0.1695  0.2098
20045W        W35176  10.710   0.482  11.893  0.0809  0.0068  0.3697
20046W        W35177   3.887   2.686   2.350 -0.0200 -0.1083 -0.0287
20047W        W35178  14.408   5.270  16.093  0.2473 -0.2320  0.1973
20048W        W35179   6.538   2.979   5.429  0.0721  0.2960  0.3242
20049W        W35180   2.679  10.313   4.044 -0.2751  0.0559  0.0016
20050W        W35181  11.113  12.652  13.923  0.2202 -0.1772  0.0019
20051W        W35182  13.198  15.364   2.986 -0.0402  0.2124  0.2144
20052W        W35183   7.698   5.214   3.299  0.1558 -0.1898 -0.0207
20053W        W35184   3.106  17.612   3.915 -0.2515 -0.1560  0.0362
20054W        W35185   9.539  11.325   0.193 -0.1600 -0.0886 -0.1063
20055W        W35186   3.427   3.712   0.286  0.0161 -0.0369 -0.0505
20056W        W35187   9.113   2.755   1.570  0.0598  0.0100  0.0286
20057W        W35188  17.556   9.861   1.880 -0.2179 -0.0296  0.0031
20058W        W35189   8.057  17.050   0.709  0.0735 -0.1474 -0.1472
20059W        W35190  13.968   9.198  15.001  0.1365  0.1385  0.0397
20060W        W35191  10.040  12.185  13.330  0.2175  0.0276 -0.1103
20061W        W35192   9.749   4.571  12.563  0.1941  0.2334 -0.3165
20062W        W35193  17.705  10.642  11.348  0.3393 -0.0426  0.0316
20063W        W35194   1.933  17.821   5.164  0.1711 -0.0009 -0.1296
20064W        W35195  14.447  12.319  12.527 -0.0757 -0.0463  0.0895
20065W        W35196   6.294  14.350  15.410 -0.1188  0.0334 -0.0543
20066W        W35197   1.232   9.089  15.008 -0.0894  0.1732 -0.0822
20067W        W35198   1.182  13.838   3.973  0.0139  0.2449 -0.1387
20068W        W35199  11.747  15.717   4.850  0.1814  0.1001  0.1557
20069W        W35200  11.596   5.147  16.441 -0.1338 -0.0211  0.3080
20070W        W35201  14.328   7.470   4.680  0.0621  0.1633 -0.2625
20071W        W35202  14.639  13.666   5.387  0.2682  0.0365  0.1477
20072W        W35203   7.993  10.672  15.145 -0.3859  0.0963 -0.0393
20073W        W35204   5.463  15.332  13.492 -0.2146 -0.3394  0.0382
20074W        W35205   9.840   7.502  15.551  0.1434  0.2827 -0.0437
20075W        W35206  17.664   4.278  15.807  0.0826 -0.1511 -0.3997
20076W        W35207  13.585   1.193   5.818  0.0993 -0.1464  0.1858
20077W        W35208   7.276   2.931  13.811 -0.0444  0.2823  0.0435
20078W        W35209   4.961   0.136  16.127 -0.2140  0.2106 -0.0764
20079W        W35210   7.369   6.610  12.895  0.0617  0.5390  0.1857
20080W        W35211  16.654  10.562   5.130  0.3053  0.4087  0.0042
20081W        W35212   6.776  16.761  15.189 -0.1076  0.0553 -0.0433
20082W        W35213  12.886   6.686   2.713 -0.1884  0.0072  0.1267
20083W        W35214   0.723  11.497   2.832 -0.0810 -0.0663  0.2167
20084W        W35215   0.800  14.760  14.785 -0.2416  0.5569 -0.1885
20085W        W35216   4.183  14.431   5.006  0.0963  0.2733 -0.1175
20086W        W35217   4.672  12.072   3.689 -0.1030 -0.0066 -0.3034
20087W        W35218  17.386   9.641  12.177  0.1377 -0.0154 -0.0148
20088W        W35219  13.787  11.129   4.437 -0.2616 -0.3609 -0.0662
20089W        W35220  13.645   4.890   2.304  0.2253 -0.2053 -0.0991
20090W        W35221   9.186   7.388  13.775 -0.1363 -0.0894  0.2585
20091W        W35222   9.203   4.762  15.039  0.0944  0.1937 -0.1258
20092W        W35223   2.474  16.148  16.239  0.2169  0.2965 -0.3434
20093W        W35224  13.664  15.110  12.463  0.0539 -0.1907  0.0317
20094W        W35225   9.561   4.615   1.386  0.2503  0.2137 -0.0801
20095W        W35226   0.647   7.035   1.840  0.0711  0.1404  0.2594
20096W        W35227  10.411   1.610   4.867  0.2335  0.3154  0.2021
20097W        W35228  12.310  13.383  14.466 -0.3385  0.2082  0.1136
20098W        W35229   8.763   7.755  11.500 -0.1444 -0.2109  0.0739
20099W        W35230   6.842   1.212   2.846  0.0517  0.3968  0.1700
20100W        W35231  14.688  13.669   3.901 -0.0154  0.1984  0.0442
20101W        W35232   4.090  15.204   5.618 -0.2872 -0.0089  0.2484
20102W        W35233   4.154   2.381  16.505  0.0233  0.0947  0.3011
20103W        W35234  11.333   8.738  14.368 -0.0312 -0.3709  0.0007
20104W        W35235  13.927  17.800   2.469  0.1321 -0.2676  0.0715
20105W        W35236   6.784   4.128   2.198 -0.0533  0.0983 -0.1783
20106W        W35237   4.250   9.513   4.731  0.1058 -0.0368  0.0957
20107W        W35238   2.783   2.282  14.447  0.1123 -0.0330 -0.0418
20108W        W35239   0.984  12.279   1.137  0.1533  0.0546  0.0900
20109W        W35240   7.257   6.507   3.039 -0.0003  0.1591 -0.0334
20110W        W35241   4.949  16.052   2.166 -0.2990  0.0151 -0.0487
20111W        W35242   9.207   9.913   0.540 -0.1182  0.0126 -0.0298
20112W        W35243   1.950  12.714  13.541 -0.1728 -0.0976  0.2635
20113W        W35244  17.835   0.829  12.583  0.2535 -0.0463  0.0839
20114W        W35245   2.144  15.658   1.784  0.1403  0.0024  0.1943
20115W        W35246   8.963  15.883  16.412 -0.1927 -0.0095  0.1228
20116W        W35247  13.053  11.903   0.771 -0.1547 -0.0959 -0.2010
20117W        W35248   5.159  14.940   4.167  0.0845  0.0820 -0.0140
20118W        W35249   3.782  12.364  14.028  0.0016 -0.0965 -0.1794
20119W        W35250   9.095   5.057  12.857 -0.1000  0.0838 -0.0843
20120W        W35251   3.721   6.042   4.922  0.0032  0.0674 -0.1599
20121W        W35252  14.465  14.350  13.774  0.3725 -0.0084  0.0164
20122W        W35253  12.787   4.556  11.374 -0.1147 -0.0557  0.1902
20123W        W35254  17.044   0.788  15.073  0.0243  0.2539 -0.0359
20124W        W35255  11.674   1.173  11.156 -0.2325 -0.1871  0.1314
20125W        W35256  11.056  15.218  13.202 -0.1099 -0.1465  0.2233
20126W        W35257  12.134   0.028  16.258  0.2845  0.1821 -0.0733
20127W        W35258   3.584   8.223  12.197  0.1324 -0.0103  0.1272
20128W        W35259   3.039   0.217   0.806  0.1803  0.2281  0.0369
20129W        W35260   8.564   1.117   3.523 -0.4554 -0.0890  0.1089
20130W        W35261   3.326  15.309  13.811  0.4047 -0.1245 -0.1868
20131W        W35262  13.721  16.905   3.489  0.0828  0.2885  0.3086
20132W        W35263  12.256   0.500  16.193 -0.2011  0.2411 -0.0908
20133W        W35264   1.616  13.252  12.916 -0.2460  0.1122  0.1232
20134W        W35265  17.207  10.351  15.669 -0.0438  0.2787  0.0563
20135W        W35266   9.614   0.712  12.204 -0.1312 -0.2889  0.1215
20136W        W35267  11.676  16.841  15.911  0.1072  0.0433  0.0962
20137W        W35268   1.137   8.403  14.420 -0.0809  0.1270  0.1940
20138W        W35269   3.218   0.874  15.717 -0.2268  0.0687  0.1341
20139W        W35270  10.049   4.379   3.791 -0.1613 -0.1008  0.2409
20140W        W35271  12.676   0.390   2.462 -0.0079 -0.1240  0.0257
20141W        W35272   5.189  17.562   5.606  0.0999  0.3363  0.0413
20142W        W35273   9.784  14.784  11.372 -0.1511 -0.2206 -0.1205
20143W        W35274  11.262   4.448   1.818  0.3593 -0.0115  0.2140
20144W        W35275   9.579   1.967   1.458  0.3538 -0.1235 -0.2472
20145W        W35276  17.298   2.637   5.776 -0.0084 -0.1569  0.0774
20146W        W35277   4.536   0.374  14.060  0.1135 -0.2989  0.2289
20147W        W35278  15.354  10.520  13.993 -0.0592  0.2615  0.1183
20148W        W35279   0.642   7.884   6.312 -0.1223 -0.1175  0.1156
20149W        W35280  13.330   2.552  11.277 -0.0278  0.0612 -0.0384
20150W        W35281   7.086  14.633   4.124  0.1874  0.0062  0.0862
20151W        W35282   3.081   9.183  12.432 -0.1259 -0.0462  0.4195
20152W        W35283  13.875   4.130  15.102  0.2050  0.1092  0.1791
20153W        W35284  15.725  16.288  13.818 -0.2117 -0.0060 -0.0966
20154W        W35285  15.061  14.666   3.933 -0.2341  0.0541  0.0739
20155W        W35286   9.372  13.262  11.197 -0.2220 -0.3704  0.0121
20156W        W35287  13.779  15.689  11.151 -0.2149  0.0572  0.1691
20157W        W35288  14.641   6.324  12.140  0.0572  0.3046 -0.2201
20158W        W35289  11.726   5.117  13.364  0.2007 -0.0426 -0.1790
20159W        W35290  14.660   7.571   3.796  0.2638 -0.1383 -0.1447
20160W        W35291  10.026  10.949   4.215 -0.2073  0.0034  0.1295
20161W        W35292   4.171   6.576  13.335 -0.0571 -0.1978  0.0662
20162W        W35293   3.225   4.036  12.617 -0.1095 -0.0331 -0.0079
20163W        W35294  17.066  10.763   2.734 -0.3760 -0.1697 -0.2578
20164W        W35295   1.753   6.719   4.446 -0.0361  0.1888 -0.1319
20165W        W35296  13.449  14.493   3.412  0.0924 -0.0237 -0.3894
20166W        W35297  15.982   4.530  14.416 -0.3283  0.0664 -0.0744
20167W        W35298   6.271   9.508   3.181  0.1683 -0.0440 -0.1931
20168W        W35299  11.990  12.658  16.020 -0.1987  0.0525  0.0422
20169W        W35300  16.327   6.844   2.530  0.0392  0.1565 -0.1292
20170W        W35301   7.609   5.991   4.601 -0.1502 -0.0410 -0.0369
20171W        W35302   8.044   4.364  11.767  0.1373 -0.0963  0.2028
20172W        W35303  13.126   3.479   4.685  0.0975  0.2951 -0.0777
20173W        W35304   3.136  14.899  13.521  0.2436 -0.1076 -0.0131
20174W        W35305   3.058  12.018  13.074 -0.1882  0.2043  0.3000
20175W        W35306   2.447  11.630   3.111  0.0666  0.0596 -0.1856
20176W        W35307  12.238   8.223   4.652 -0.1146 -0.1794  0.1050
20177W        W35308   4.018   3.099  14.306 -0.0615 -0.0180 -0.1553
20178W        W35309   0.800  16.136   4.757 -0.0747  0.1000 -0.1514
20179W        W35310  11.607  11.216   0.280 -0.0408  0.0297  0.0971
20180W        W35311   4.548  10.822  12.062  0.1262  0.1680  0.1294
20181W        W35312  10.470  13.359  13.045 -0.0013 -0.0249  0.0343
20182W        W35313  16.784   8.698   0.773 -0.1929  0.0568  0.1342
20183W        W35314  10.289  10.449   2.038 -0.1366 -0.1046  0.1784
20184W        W35315   8.111   2.935   2.179 -0.1714 -0.0785  0.3769
20185W        W35316   8.974  14.497  12.452  0.0896 -0.1494 -0.3319
20186W        W35317  12.119   7.471   1.151 -0.1476  0.2376  0.0869
20187W        W35318  14.960   8.087   3.838  0.1754 -0.0300 -0.1002
20188W        W35319   7.747  16.502   4.742  0.2309  0.1443 -0.1331
20189W        W35320   6.930   0.070  16.359 -0.3016  0.2525 -0.0363
20190W        W35321   1.615   1.007   1.401 -0.0653 -0.1931 -0.1505
20191W        W35322  17.205   5.871   3.050 -0.1135  0.0660 -0.0758
20192W        W35323   5.374  12.622  13.831  0.2550  0.1514 -0.1839
20193W        W35324   2.453  13.081  13.257 -0.2740 -0.0312 -0.4764
20194W        W35325   7.814   6.356  10.899 -0.1050  0.1146 -0.2261
20195W        W35326   9.519  10.402   4.404  0.0709 -0.1229 -0.0969
20196W        W35327  14.085   4.736  12.054  0.1797 -0.0970 -0.0204
20197W        W35328  17.102  10.465   4.225  0.0235  0.1592 -0.0507
20198W        W35329   7.048  17.455  10.436  0.0940  0.2213 -0.0417
20199W        W35330  12.812   7.312   4.299 -0.2754  0.0041 -0.0138
20200W        W35331   2.730   0.942   5.078  0.0657  0.0627  0.0531
20201W        W35332   9.856  13.311   3.712 -0.0798 -0.0538 -0.1213
20202W        W35333   2.675   1.345  16.571 -0.0216  0.0329  0.0571
20203W        W35334   5.892   1.386  10.688  0.4638 -0.2327 -0.1032
20204W        W35335   3.083  11.955  12.404  0.1923 -0.0373  0.0320
20205W        W35336   8.389  11.838   0.737 -0.0271  0.1860  0.0910
20206W        W35337  13.008  17.205  14.403  0.1319  0.1026 -0.1245
20207W        W35338  17.827   7.072   0.392 -0.1867 -0.1269 -0.0132
20208W        W35339   5.058  14.368  14.817  0.1693  0.1157 -0.1856
20209W        W35340  15.617   9.353   2.866  0.4884  0.1718  0.1740
20210W        W35341   4.890   8.729  13.683  0.1765 -0.0364 -0.1588
20211W        W35342  14.872  13.627   2.065  0.2904 -0.1840 -0.1044
20212W        W35343  16.166  16.570  12.548  0.1219 -0.2306  0.0253
20213W        W35344   2.915   8.384   3.787  0.0458  0.4595  0.0098
20214W        W35345  13.384   6.754   6.135 -0.0343  0.0061 -0.0419
20215W        W35346   5.101   3.163   1.846  0.2312  0.0699 -0.2859
20216W        W35347  14.053  17.718  15.552 -0.0107 -0.0894  0.2514
20217W        W35348  10.130   4.602  13.861  0.0975  0.4054 -0.0308
20218W        W35349   8.933   2.160  11.386 -0.3256 -0.0370  0.0325
20219W        W35350  12.219   9.962  15.234  0.0856  0.1101  0.1007
20220W        W35351   9.536  14.215  15.748 -0.3223 -0.1088 -0.2061
20221W        W35352   0.947   7.868   4.256 -0.3844 -0.0202 -0.0735
20222W        W35353   7.637  16.863  15.792  0.0498  0.1638 -0.0299
20223W        W35354  15.239  17.718   6.172 -0.1220 -0.2647  0.2817
20224W        W35355  13.263   3.343   1.874  0.1256  0.1535  0.1263
20225W        W35356  13.507  14.454  13.435  0.0058  0.0750 -0.1117
20226W        W35357   6.271   7.078  14.907  0.2809  0.1617 -0.0892
20227W        W35358  14.513  11.759  10.659 -0.4193  0.0354  0.0132
20228W        W35359   1.076  16.883  16.706  0.1291  0.0176  0.2197
20229W        W35360  14.248   1.500  13.557  0.1980 -0.0132 -0.2536
20230W        W35361  12.382  10.473   5.404 -0.0356  0.1543  0.1493
20231W        W35362  16.624   8.529  11.938 -0.2959 -0.3809 -0.0216
20232W        W35363   1.948  12.550  16.478 -0.0826  0.1390  0.1621
20233W        W35364   5.278   2.770   2.070 -0.0369  0.0931 -0.0685
20234W        W35365   1.317   8.995   3.646 -0.1248 -0.0769 -0.0901
20235W        W35366  17.283   9.332  15.909 -0.1141 -0.1061 -0.0843
20236W        W35367  17.138  13.454   3.946 -0.0043  0.0338 -0.0468
20237W        W35368   7.397   3.550   3.153  0.0350 -0.1996 -0.0458
20238W        W35369  16.237  13.539   4.465  0.1086  0.1038 -0.3549
20239W        W35370   0.744  11.262  14.991  0.0189 -0.0523  0.1690
20240W        W35371  12.238  14.844  15.913  0.3504 -0.0713  0.1975
20241W        W35372  10.172  10.778  15.544 -0.1644 -0.0272 -0.0715
20242W        W35373  15.331   2.241  14.831  0.0044 -0.0114 -0.2295
20243W        W35374  16.582   8.243   4.440 -0.0891  0.0704 -0.0594
20244W        W35375  10.600   4.614  10.641  0.0359 -0.0320 -0.3628
20245W        W35376  10.201   2.628   5.636  0.1795 -0.0548  0.0794
20246W        W35377   6.065  17.778  12.333 -0.2029  0.2571 -0.0444
20247W        W35378   6.088   2.176   2.871 -0.0681  0.0327  0.1102
20248W        W35379  13.538   7.983  12.362 -0.0955  0.2550 -0.0581
20249W        W35380  10.441   4.967  15.055 -0.0983  0.2746  0.0450
20250W        W35381   0.458  16.176  11.874  0.1224 -0.0158 -0.0153
20251W        W35382  11.912  17.320  13.995 -0.1829  0.0715  0.0208
20252W        W35383  15.624  13.460   3.191 -0.0916 -0.2558 -0.0433
20253W        W35384  16.688  12.253  16.485  0.0746  0.2642  0.0479
20254W        W35385  14.943  10.555   1.547 -0.2843 -0.0787  0.3414
20255W        W35386   4.819  12.498  11.619 -0.0160 -0.1730  0.1246
20256W        W35387  13.892  12.428   5.197 -0.0751 -0.2226  0.1483
20257W        W35388   1.810   7.499   0.970 -0.0883  0.1765 -0.0404
20258W        W35389   8.841  17.381  15.358 -0.3423 -0.1334  0.0446
20259W        W35390   3.480   4.644  14.269 -0.0745 -0.2549 -0.1101
20260W        W35391   9.880  14.129  16.328 -0.1456 -0.2185 -0.2991
20261W        W35392  12.564   3.405   0.530  0.0531  0.0092 -0.0679
20262W        W35393   7.195   0.046   1.465 -0.0519  0.0702 -0.3093
20263W        W35394  10.532  11.377  12.817  0.0375  0.3799 -0.0471
20264W        W35395   1.487  15.331  14.669  0.0236 -0.1006  0.1635
20265W        W35396  12.733  16.226   5.412 -0.3503 -0.2701  0.2859
20266W        W35397   6.544  12.282   4.002 -0.0098  0.1487  0.2309
20267W        W35398  17.545   6.866   5.220 -0.1486 -0.0626  0.1991
20268W        W35399  15.136  16.808   3.869  0.3375  0.1601  0.0410
20269W        W35400  14.315  11.426  14.238 -0.0022  0.0488 -0.1245
20270W        W35401  14.410   3.796  12.217 -0.0989 -0.3043 -0.3750
20271W        W35402  14.004   4.583   2.231  0.0460  0.6667  0.1312
20272W        W35403  16.650  12.721  13.284  0.0082  0.0486  0.0566
20273W        W35404   3.399  16.660  15.607 -0.0147 -0.0853 -0.2381
20274W        W35405   6.771  13.927  13.525  0.0519  0.3589 -0.0212
20275W        W35406  15.486   7.404  13.843  0.0604  0.0361  0.2729
20276W        W35407  12.141  14.644   2.723 -0.0242 -0.1383  0.2853
20277W        W35408   1.248  14.842  13.479 -0.0445 -0.1118  0.1145
20278W        W35409  16.548   9.761  16.578  0.4363 -0.2078 -0.1557
20279W        W35410   1.549  11.545  15.104  0.0452 -0.1539  0.2360
20280W        W35411  12.844   7.918  15.634 -0.0316  0.2780  0.1915
20281W        W35412   7.870  15.320  15.075  0.0238  0.2347  0.1279
20282W        W35413   7.534   9.612   2.886  0.0287 -0.2215 -0.0960
20283W        W35414   4.443   7.263  16.655  0.0447 -0.0472  0.1669
20284W        W35415   7.435  14.214   2.701 -0.1026 -0.3452 -0.0890
20285W        W35416   6.002  10.739   5.354 -0.3899 -0.1909 -0.1356
20286W        W35417   0.783  14.152   0.172  0.1565 -0.0985  0.2072
20287W        W35418   1.646  14.401  13.616 -0.1723  0.2264 -0.0253
20288W        W35419   7.647   9.559  15.500  0.0022  0.2661  0.1498
20289W        W35420  10.128  16.587   4.040 -0.1972  0.0260 -0.4107
20290W        W35421   9.958  13.537  12.051 -0.0982  0.0599 -0.0499
20291W        W35422   0.032   2.861  10.447  0.0118 -0.0189 -0.1992
20292W        W35423  14.504  17.766  16.225  0.4498  0.2938 -0.0309
20293W        W35424  12.110   5.541  14.733 -0.3008 -0.3456 -0.2523
20294W        W35425   4.052   8.410  13.351 -0.2806 -0.0955  0.1368
20295W        W35426   0.429  11.712   0.391  0.1106 -0.2996  0.1464
20296W        W35427  10.798   2.642  15.606 -0.0554  0.1442 -0.0553
20297W        W35428  17.668  13.659  12.156 -0.1243 -0.1093  0.0976
20298W        W35429   8.160  17.598  16.091 -0.0269 -0.1954 -0.0582
20299W        W35430   8.811   2.783  13.155 -0.1688 -0.0506  0.1195
20300W        W35431  16.060   5.969  15.790  0.0304  0.2133  0.2246
20301W        W35432   5.097   8.179  14.262 -0.1031  0.1978  0.2099
20302W        W35433  14.058  15.899   1.638 -0.0500 -0.1214  0.0191
20303W        W35434  14.442  12.355  16.135  0.0355  0.0590  0.2717
20304W        W35435  15.256   7.639   2.750 -0.1115  0.0612 -0.0847
20305W        W35436   5.323   5.108  15.968  0.2555  0.2578 -0.0630
20306W        W35437  13.851  12.268  10.946  0.0486 -0.2358 -0.0552
20307W        W35438  14.114   3.955  13.327  0.1707 -0.0836  0.1016
20308W        W35439  14.639   3.581  16.683  0.1266  0.1063 -0.1032
20309W        W35440  11.075   4.720  15.211 -0.1402  0.0133 -0.0542
20310W        W35441   6.807   6.138  13.884 -0.0674  0.0445  0.1961
20311W        W35442  15.531   8.344   0.040  0.3152  0.0679 -0.6613
20312W        W35443  10.414  14.651   3.859  0.2637 -0.2442  0.1167
20313W        W35444   9.779   6.321  15.846  0.2710 -0.0031  0.1259
20314W        W35445   3.279  14.049  13.982 -0.1032 -0.1867  0.3777
20315W        W35446   4.905   1.630  12.257  0.2389  0.0229  0.1446
20316W        W35447  14.090  17.087   4.507 -0.3562 -0.2038  0.5594
20317W        W35448   6.803  12.104  13.250 -0.0376  0.2919  0.2558
20318W        W35449   4.152  17.450  13.118 -0.2150 -0.0186  0.0345
20319W        W35450   9.354   5.801  11.596  0.2334  0.0473  0.2733
20320W        W35451  15.308  15.274   2.983 -0.0897  0.0136  0.1065
20321W        W35452   8.197   1.240   2.535 -0.2700  0.1505  0.3764
20322W        W35453   6.994   4.776   0.135 -0.0412  0.2583  0.0170
20323W        W35454   9.399   0.954   1.120  0.0904  0.1475  0.0024
20324W        W35455   7.474  11.023   2.674 -0.2172 -0.0987 -0.1512
20325W        W35456  15.728   9.603   4.300  0.0168 -0.1879 -0.2645
20326W        W35457   7.689   3.075   1.923 -0.5824  0.1668 -0.1292
20327W        W35458   4.292   0.778  11.537  0.2706  0.0167 -0.0808
20328W        W35459   3.076  12.722   3.258 -0.0721  0.2918  0.2893
20329W        W35460  13.054   6.487   5.316  0.0412 -0.1439  0.2569
20330W        W35461   8.994   5.680   0.002 -0.1171 -0.1915 -0.0057
20331W        W35462   5.680  16.751  15.949  0.4094 -0.2501  0.0913
20332W        W35463   0.303  10.280   6.272 -0.0691  0.1471 -0.0816
20333W        W35464   2.457  15.501   0.818 -0.4960  0.0098 -0.1481
20334W        W35465   2.447  17.527   0.280 -0.3219 -0.1270 -0.3903
20335W        W35466   8.232   3.529   3.801 -0.0383 -0.1268 -0.1419
20336W        W35467   6.150  14.729   4.386  0.0372  0.0900 -0.4777
20337W        W35468   6.182   8.588   4.804 -0.0330  0.0069  0.1891
20338W        W35469   8.180   9.038   5.305  0.0455 -0.0203  0.0617
20339W        W35470  10.662   9.237   2.197  0.2984 -0.1556 -0.2592
20340W        W35471   6.583   8.151  14.073  0.1775  0.0624  0.2881
20341W        W35472   8.416   0.581  13.793  0.3584 -0.1178  0.1040
20342W        W35473   0.891  11.951  15.525  0.0659 -0.0341  0.1024
20343W        W35474   1.607   9.540   5.417 -0.2361 -0.0366  0.1796
20344W        W35475  14.654   7.466  11.986 -0.0041 -0.1023 -0.0161
20345W        W35476  16.890   6.887  15.294  0.0035  0.2204 -0.0247
20346W        W35477   4.672  13.008   1.404 -0.0160 -0.0132  0.0517
20347W        W35478   1.400   4.131  13.607  0.3154 -0.0343  0.0569
20348W        W35479   4.946   0.333  11.154  0.2180  0.1669  0.0585
20349W        W35480   2.950  11.515  13.221 -0.0249  0.2720 -0.0868
20350W        W35481   3.339   9.572  15.187  0.0697  0.0950 -0.1313
20351W        W35482  17.823   7.591   4.550 -0.0812  0.0197  0.0502
20352W        W35483   1.482  16.974   0.264  0.2351 -0.2299 -0.1679
20353W        W35484  10.018  17.790   4.073 -0.1370  0.1985  0.0129
20354W        W35485   7.246   6.419  13.996  0.0006  0.2973 -0.2137
20355W        W35486   7.977  13.197  12.641 -0.1721  0.2956  0.0254
20356W        W35487  16.871   8.614   0.207 -0.2324  0.1551 -0.3467
20357W        W35488  16.188   8.118   4.701 -0.1558 -0.0572  0.0942
20358W        W35489  11.278  16.238  15.150  0.2185 -0.2001 -0.1929
20359W        W35490  10.876  10.040   4.333  0.0151  0.1182 -0.0494
20360W        W35491   8.344  11.285   4.474 -0.3658 -0.6335  0.0029
20361W        W35492   1.358  10.136   0.805 -0.1034  0.0837  0.1354
20362W        W35493   3.987   4.891   2.311  0.1801  0.3952 -0.2285
20363W        W35494   1.720  13.891   2.357  0.2600 -0.4120  0.0010
20364W        W35495   2.351   9.168   3.349  0.3269 -0.1863  0.5873
20365W        W35496  12.550   6.377   3.003 -0.1712  0.0354  0.0653
20366W        W35497   0.128  17.048  14.331  0.0843 -0.1388  0.2343
20367W        W35498   0.024   3.910   1.681 -0.1332 -0.0936 -0.0954
20368W        W35499   4.255  16.769   4.426 -0.0065  0.0142  0.1073
20369W        W35500   2.234  10.281   6.092 -0.0266  0.0983 -0.1468
20370W        W35501   5.967   4.258  11.128  0.0127  0.0128  0.1611
20371W        W35502  17.801  11.201  14.423 -0.0487  0.1512  0.1649
20372W        W35503   7.594  17.674  15.846  0.0344  0.1018 -0.3315
20373W        W35504   7.772  13.256  13.198  0.3638 -0.1919 -0.2879
20374W        W35505  12.456   7.556   1.584 -0.2399  0.0093  0.0899
20375W        W35506   2.283   7.236  14.411 -0.1735 -0.0962 -0.2027
20376W        W35507  15.966   7.421   0.280  0.0561  0.0596  0.1598
20377W        W35508  11.485   7.015   5.548  0.3626  0.2701  0.3351
20378W        W35509   5.986   5.673   2.023 -0.0266 -0.2963 -0.1217
20379W        W35510   7.504   9.848   3.355 -0.2536 -0.2695  0.1254
20380W        W35511  13.175   8.851  10.831  0.1627 -0.2180 -0.0270
20381W        W35512  15.945   9.910  15.332  0.2171  0.1321 -0.4186
20382W        W35513  16.584  12.442  12.000 -0.1119 -0.1456 -0.1074
20383W        W35514   7.058  11.405   2.470 -0.2259 -0.2941 -0.0825
20384W        W35515   2.108  11.259  14.241 -0.0947 -0.1566  0.3264
20385W        W35516  11.483   5.872  11.831 -0.3628 -0.1060 -0.3310
20386W        W35517   8.111  13.935   0.285  0.1206 -0.1179 -0.1625
20387W        W35518   3.868  11.661  12.754  0.1190  0.0591 -0.1713
20388W        W35519   9.297   6.032  15.811  0.1648  0.1969  0.0079
20389W        W35520   7.270  13.998  13.357  0.0696  0.2073 -0.2050
20390W        W35521  15.092  15.319   1.007 -0.1051  0.1079  0.1811
20391W        W35522   2.649   9.715   1.619 -0.0001  0.0847 -0.1395
20392W        W35523   4.625   2.592  14.709 -0.0941  0.0262  0.0151
20393W        W35524   6.105   5.874  13.080 -0.0304  0.1385  0.3764
20394W        W35525  13.662   3.721   2.735  0.1450 -0.0862  0.4915
20395W        W35526  10.285  10.422  11.827 -0.1943 -0.3250 -0.0398
20396W        W35527  16.723  14.581  11.457  0.0693 -0.0645  0.0080
20397W        W35528  16.645   3.008  11.475  0.1984 -0.2383 -0.0617
20398W        W35529   9.782  15.383  15.512  0.0252  0.2357 -0.0472
20399W        W35530   3.524   1.677   5.837  0.0732 -0.1553  0.1528
20400W        W35531  11.160  11.638  12.169 -0.0134 -0.0613  0.0731
20401W        W35532  14.824   1.304  14.173 -0.1345 -0.1850  0.0248
20402W        W35533   8.322   6.642   5.199  0.0021  0.1129  0.1224
20403W        W35534  13.801  10.575  14.726 -0.2711  0.1029  0.4310
20404W        W35535   1.177   5.087   4.467 -0.0229  0.0831 -0.3355
20405W        W35536  15.831   8.965   2.713 -0.1862 -0.0756  0.0587
20406W        W35537  16.172  11.300  14.232 -0.0474 -0.0941  0.2130
20407W        W35538  15.342  11.394  10.358  0.0159 -0.0563  0.1187
20408W        W35539   5.150   6.339  10.974 -0.1344 -0.1162  0.2307
20409W        W35540  13.632   2.479   2.853 -0.3325 -0.0127 -0.0955
20410W        W35541  16.185  11.175  15.305  0.1667  0.0764  0.2781
20411W        W35542   1.048  13.659  12.319  0.1711  0.2029  0.0206
20412W        W35543   4.956  10.470  14.234 -0.1435 -0.2784 -0.1543
20413W        W35544  13.722   3.668  13.259 -0.0951  0.0103 -0.0222
20414W        W35545   6.051  16.653   0.955  0.2373  0.1276 -0.1422
20415W        W35546   8.262   6.527  15.307 -0.0751  0.2300  0.0807
20416W        W35547  11.131   1.865  13.912 -0.0841 -0.1116  0.0463
20417W        W35548  14.988   7.067   2.915  0.1744  0.2294 -0.0177
20418W        W35549   3.707   9.196   2.760 -0.2155 -0.1270 -0.1548
20419W        W35550   6.467   3.881   2.995  0.2015  0.2365 -0.1377
20420W        W35551   0.485   3.469  11.798 -0.3404  0.0349  0.0661
20421W        W35552   0.855   8.334   3.456  0.1962  0.1139  0.2234
20422W        W35553   0.328  16.534  12.876 -0.2327  0.2537 -0.0650
20423W        W35554  17.067   4.611   1.690 -0.1181  0.1093  0.0789
20424W        W35555  12.035   7.589   2.664  0.3610 -0.3386 -0.0324
20425W        W35556   7.716   9.503  15.038 -0.1337  0.2197  0.1853
20426W        W35557  10.935  15.976  16.420  0.2358  0.3538 -0.1244
20427W        W35558   6.854  14.264   0.510  0.0544  0.3912 -0.1981
20428W        W35559  11.061   3.827  14.212 -0.0339 -0.2587 -0.0122
20429W        W35560   9.254   3.723   2.579  0.0347  0.0954  0.1324
20430W        W35561   4.024  14.317   5.552 -0.0001  0.0809 -0.0230
20431W        W35562   8.287   5.231   4.656 -0.1285 -0.0883  0.1989
20432W        W35563  16.471   1.489   3.308 -0.2542 -0.1862 -0.1791
20433W        W35564  13.501  15.510  13.479  0.0640 -0.1195 -0.1106
20434W        W35565  11.570  16.738   2.684  0.1579  0.3497  0.2352
20435W        W35566  16.912  17.353  13.733  0.0063  0.1414  0.1026
20436W        W35567   0.750  11.003   2.686  0.2334  0.2315  0.1098
20437W        W35568  14.497   8.745  15.426  0.0150 -0.1586 -0.0426
20438W        W35569   8.554   2.585  12.712  0.0173  0.0975  0.1729
20439W        W35570   5.320  17.114   1.738  0.1630 -0.0345  0.3634
20440W        W35571   6.180  11.447   2.919  0.2078  0.0170  0.1025
20441W        W35572   3.028   7.529  15.160  0.3029  0.1167 -0.3334
20442W        W35573   1.572   7.011  16.622 -0.1004  0.0079  0.0070
20443W        W35574  17.309  12.694   2.671 -0.0891 -0.0490  0.1557
20444W        W35575   6.571   1.400  16.462  0.0148  0.0819  0.2114
20445W        W35576   8.765   9.291   2.702  0.2463  0.0227  0.2018
20446W        W35577   1.971   4.667  15.631  0.3370  0.1340 -0.0665
20447W        W35578  14.599  13.664  11.852 -0.1648  0.1773  0.0456
20448W        W35579   4.767   5.390   4.351  0.1594 -0.0117  0.1075
20449W        W35580   5.950   2.627   2.671  0.4756  0.0261  0.4369
20450W        W35581   2.981  17.135  12.367 -0.0081  0.1128  0.0875
20451W        W35582   1.563   4.093   2.937  0.3694 -0.1957 -0.1643
20452W        W35583   6.416   4.325  10.742 -0.2360  0.2734 -0.1452
20453W        W35584  10.817   5.952  13.047  0.0351 -0.0894  0.1967
20454W        W35585  13.086  10.628   2.749 -0.1218  0.3209 -0.2385
20455W        W35586   5.780   0.852  15.865 -0.1357 -0.2288  0.2102
20456W        W35587   4.369  13.704   0.780  0.0284 -0.0974 -0.2461
20457W        W35588   8.730  11.737   3.764  0.0486  0.3079 -0.0238
20458W        W35589   6.093  12.129   5.224  0.2746  0.3381  0.0364
20459W        W35590  17.330   8.911   2.925  0.1490 -0.2069 -0.1963
20460W        W35591   3.245   6.920   6.165 -0.1681 -0.1059  0.0156
20461W        W35592   3.914  16.812  11.968 -0.1023 -0.0887 -0.0004
20462W        W35593   0.452   4.820   2.522 -0.1175 -0.0411  0.2147
20463W        W35594  16.200  12.512   0.409 -0.0799  0.5572 -0.0537
20464W        W35595  10.057  11.652  13.413 -0.2051  0.2884 -0.2044
20465W        W35596   4.679   2.024   2.584  0.3428  0.1539  0.1676
20466W        W35597  11.313  14.773   2.253 -0.0296  0.0793  0.0211
20467W        W35598   0.009  12.972  15.409 -0.0711  0.1070 -0.0953
20468W        W35599  11.700   4.991   0.622  0.2033 -0.3102  0.0698
20469W        W35600   3.773   9.151  15.534  0.1348 -0.0716 -0.0758
20470W        W35601   5.304   1.088   2.136  0.0975  0.1037 -0.0074
20471W        W35602  15.220  13.337  15.303  0.0552  0.4136 -0.2892
20472W        W35603   3.606  13.907   4.807 -0.0409  0.1843  0.2317
20473W        W35604  16.677   4.366   2.329  0.1491 -0.0480 -0.1276
20474W        W35605  13.910   5.188   4.811 -0.1958 -0.1762  0.3522
20475W        W35606  17.342   8.429   3.925  0.0557  0.0165 -0.4836
20476W        W35607  14.637  16.595   0.960  0.0915  0.2542  0.2104
20477W        W35608   2.326   6.618   1.596  0.0471 -0.0730  0.3934
20478W        W35609  11.873   2.393  14.813  0.1225  0.0900  0.0965
20479W        W35610  11.819  13.156   3.849 -0.1915 -0.0783 -0.0802
20480W        W35611  16.265  17.045  12.961 -0.1629  0.1411 -0.1059
20481W        W35612   4.574   6.399   2.849  0.0804 -0.0808 -0.0550
20482W        W35613   7.277  17.868  13.127 -0.1778  0.0055  0.4049
20483W        W35614   0.058   8.144   2.768 -0.1317  0.4736 -0.1059
20484W        W35615  11.331   7.850  16.160 -0.2027 -0.0490  0.0024
20485W        W35616   9.128   6.081  12.997  0.2295 -0.0098  0.2255
20486W        W35617   1.158   4.188   1.560 -0.2745 -0.3138  0.1972
20487W        W35618  10.373  14.099   4.696  0.0485 -0.1385  0.2020
20488W        W35619   4.774  14.821   2.278 -0.1000 -0.1361  0.1302
20489W        W35620   9.321   0.973   0.203  0.2560 -0.0356  0.3193
20490W        W35621  16.539  10.299  14.631  0.0065 -0.1067  0.1493
20491W        W35622  15.765   0.113   2.588  0.1279 -0.0050  0.1542
20492W        W35623   8.591   1.308   2.253 -0.0217 -0.1467 -0.0885
20493W        W35624   5.397  12.432   0.266  0.0003  0.0963 -0.0325
20494W        W35625  12.142  17.684  15.831 -0.1223  0.0707 -0.0506
20495W        W35626   8.134  10.242   3.783  0.0389 -0.3787 -0.0547
20496W        W35627   9.646   1.797  15.647 -0.0981 -0.0216  0.1200
20497W        W35628   1.511   6.191   3.830  0.0069 -0.1964  0.0119
20498W        W35629   3.862   0.044   6.124  0.0893  0.0223  0.0961
20499W        W35630   7.798   3.786  13.387  0.1165  0.0187  0.1102
20500W        W35631   4.911   9.544  13.183  0.0253  0.3158 -0.3056
20501W        W35632   6.172  12.505   4.752 -0.0702 -0.0829 -0.1987
20502W        W35633  11.745  16.216   5.041  0.1431 -0.1760 -0.3817
20503W        W35634  13.970   8.072   0.160  0.0225  0.2799  0.0869
20504W        W35635  14.315  11.903  12.090  0.0117  0.2396  0.0680
20505W        W35636  15.592   3.573   5.509 -0.1905  0.1016 -0.1783
20506W        W35637   1.879   6.048  15.533 -0.2250  0.2047  0.1504
20507W        W35638  16.486  16.463  13.602 -0.2420  0.0205  0.1891
20508W        W35639  10.395  11.479   1.128  0.2595  0.0136  0.3320
20509W        W35640  16.310  15.814  12.548  0.1788  0.1963 -0.0687
20510W        W35641   7.093  15.367   2.099  0.1411 -0.2596  0.0611
20511W        W35642   8.302   4.331   1.766 -0.4350  0.4502  0.0812
20512W        W35643   3.259  13.023  12.559 -0.0404  0.0208 -0.1554
20513W        W35644  13.734  14.623   2.446  0.0680  0.0704  0.1122
20514W        W35645   9.648   8.342  16.000 -0.3445 -0.0102 -0.0335
20515W        W35646  17.833  15.915  11.306  0.3393  0.0001 -0.0022
20516W        W35647  16.103   5.733  13.775 -0.0028  0.2557 -0.1647
20517W        W35648   4.131  15.167   0.514 -0.1812  0.0221 -0.0474
20518W        W35649   9.798   3.154  14.380  0.0567  0.1646  0.0131
20519W        W35650   2.126  16.545   4.693 -0.1236  0.2146 -0.0058
20520W        W35651   6.163  11.010   3.198 -0.0328  0.2221  0.1925
20521W        W35652   1.360   7.308  15.499 -0.0159 -0.1725  0.2205
20522W        W35653   2.077  17.625   3.814  0.1435  0.1456 -0.1785
20523W        W35654   3.379  10.418  11.384 -0.1261  0.1562  0.2309
20524W        W35655  10.712  16.816   1.299  0.2934 -0.0607  0.0303
20525W        W35656   7.071  14.846   1.166 -0.0618  0.0034 -0.0712
20526W        W35657  11.620  10.925   5.346 -0.0366 -0.1348 -0.4038
20527W        W35658  12.835  15.196  11.861 -0.0925 -0.3000 -0.3598
20528W        W35659   6.560  13.536  15.158  0.0740 -0.0818  0.0633
20529W        W35660   3.487  11.339  15.725 -0.1850  0.0518 -0.0954
20530W        W35661   8.975   9.143   5.933  0.3499  0.1582  0.3568
20531W        W35662   4.782  13.308   2.597  0.1396 -0.1857  0.1296
20532W        W35663  15.667   8.382   1.792  0.1394  0.4265  0.1329
20533W        W35664   5.733   1.423   3.398 -0.2000 -0.0992 -0.1912
20534W        W35665   4.399   5.473  16.050 -0.4640  0.0724 -0.2533
20535W        W35666   3.680  15.288   4.567  0.0215  0.1477 -0.1641
20536W        W35667  13.282   1.359  12.023  0.1130  0.1748  0.0201
20537W        W35668  11.345   0.564   5.427  0.1442 -0.3032 -0.1617
20538W        W35669   3.970  13.514  16.037 -0.2468  0.2662  0.3168
20539W        W35670  17.147   3.812  10.994  0.5100 -0.0025  0.1992
20540W        W35671   5.862   1.361  12.701 -0.1811 -0.1313 -0.0479
20541W        W35672   0.247   2.273   2.961 -0.3766  0.1904 -0.2202
20542W        W35673  16.459   8.633  14.213  0.1972  0.1565 -0.2976
20543W        W35674   9.226   4.692  14.154  0.0911  0.1072  0.0743
20544W        W35675  14.323   5.091   0.649 -0.0934  0.2628  0.1433
20545W        W35676   9.937   9.075  16.280  0.2481  0.0054  0.2179
20546W        W35677  15.393  16.273   2.257 -0.1962  0.0125  0.0524
20547W        W35678   1.317   7.566   4.486  0.1267  0.0783  0.1360
20548W        W35679   2.207   0.098   3.453  0.0046 -0.0169 -0.1719
20549W        W35680   2.291   7.392   2.473 -0.3479 -0.3868  0.0228
20550W        W35681  11.974  11.151   0.804  0.2011 -0.0857 -0.0774
20551W        W35682  12.746   5.211  15.336  0.3561  0.2006 -0.0394
20552W        W35683   3.437   2.837  15.963  0.0948 -0.1170 -0.0259
20553W        W35684  13.096   8.530   3.136 -0.0358  0.0398 -0.0494
20554W        W35685   7.792   9.962  16.206  0.0469 -0.1818  0.1113
20555W        W35686   6.652   9.483  14.083 -0.0888 -0.2558  0.1027
20556W        W35687   0.658   8.270   3.918 -0.0894 -0.3038 -0.0427
20557W        W35688   1.680  14.622  14.673 -0.1582 -0.1533  0.0017
20558W        W35689   5.596   8.598   0.066  0.1948 -0.0809 -0.1581
20559W        W35690  12.685  13.102  12.502 -0.1986  0.1335  0.0176
20560W        W35691  11.752   0.019  10.857 -0.1051  0.0244 -0.1290
20561W        W35692  13.701  16.279   0.390 -0.0444  0.2776  0.1926
20562W        W35693   4.930   7.603   4.441  0.1299  0.0980 -0.1895
20563W        W35694  17.816   1.099  14.343  0.0260  0.3860 -0.0345
20564W        W35695   5.109   5.621   2.876 -0.1759  0.0295  0.0262
20565W        W35696  15.647   5.551   3.207  0.2161  0.0335  0.0089
20566W        W35697  16.353   8.994   3.323  0.2859  0.0611  0.2507
20567W        W35698   8.092   6.387  11.284  0.1319  0.2240  0.2588
20568W        W35699  11.322  15.816   5.152  0.4873 -0.0947 -0.0026
20569W        W35700   3.343   2.808   4.188 -0.3099  0.0958  0.0151
20570W        W35701   2.058  10.367  14.174  0.3834 -0.0381  0.1402
20571W        W35702   1.697   1.112   2.951  0.0110 -0.0166  0.0163
20572W        W35703  16.972   6.802   3.838 -0.3027 -0.1716  0.1394
20573W        W35704   8.295  14.040   3.798 -0.0293  0.1709 -0.0257
20574W        W35705   1.538   2.703  15.054  0.1705 -0.1537 -0.0510
20575W        W35706   2.284   3.227   4.299  0.1123 -0.0029  0.0088
20576W        W35707  16.075   8.487   5.394  0.0998 -0.3707  0.0113
20577W        W35708  10.315   6.819   4.651  0.0217  0.0054  0.1796
20578W        W35709  16.440   9.127  15.835 -0.2294 -0.1654 -0.0514
20579W        W35710  15.413   9.959   5.532  0.1397  0.2683 -0.0449
20580W        W35711   9.854   2.531   4.349  0.0978  0.0891  0.1903
20581W        W35712   2.455  13.088   0.259 -0.1054 -0.3849 -0.1716
20582W        W35713   9.026  13.471   2.265 -0.0317 -0.2719  0.0079
20583W        W35714  17.652   1.429  15.689  0.1203  0.1398  0.0632
20584W        W35715  10.042   6.458   4.315 -0.2395 -0.0998 -0.1023
20585W        W35716   2.144  12.467  11.915 -0.0601 -0.0521 -0.1781
20586W        W35717   7.386   4.040   3.364  0.1440 -0.3362  0.0009
20587W        W35718  17.028   1.035  15.514  0.1115 -0.1603  0.0017
20588W        W35719  12.345  13.484  15.766 -0.1873  0.1732 -0.1415
20589W        W35720   4.235   1.062   1.077  0.1936  0.0864 -0.1609
20590W        W35721  11.585   1.874   2.026 -0.0736  0.1043 -0.0748
20591W        W35722  14.413  12.104  13.838 -0.1113 -0.1674  0.0837
20592W        W35723  15.701   6.223  16.019  0.0050 -0.0077  0.1059
20593W        W35724  16.028  14.410  12.552  0.2352 -0.2312  0.2690
20594W        W35725  16.473  17.107   0.173 -0.0686  0.0321 -0.0131
20595W        W35726  13.393   1.157   0.908 -0.0899  0.2231  0.1009
20596W        W35727   0.271   4.351   1.608  0.0668  0.2401  0.1418
20597W        W35728  13.322  12.422   0.858 -0.3432  0.1284  0.1228
20598W        W35729  12.637   9.467   2.905 -0.2535  0.1625 -0.0320
20599W        W35730   5.187   4.324   6.317  0.1379  0.1511 -0.1685
20600W        W35731  13.394   2.887   1.558  0.0213 -0.0923  0.0944
20601W        W35732   2.269  16.566  14.869 -0.3746 -0.2371 -0.0781
20602W        W35733   1.678  13.005   4.398 -0.2674  0.2512 -0.1875
20603W        W35734   2.919  12.834  13.003 -0.1025 -0.4807  0.0840
20604W        W35735  12.248  12.596   4.784  0.3654 -0.0841  0.1340
20605W        W35736   7.965   8.039  14.256 -0.3252  0.0263  0.3191
20606W        W35737  12.325   8.414  16.001 -0.1933 -0.1312 -0.3686
20607W        W35738   2.152   5.294  16.095 -0.0034  0.1050  0.1074
20608W        W35739  14.653   2.349   4.377 -0.3279  0.1413  0.0501
20609W        W35740   0.208   9.410  12.626 -0.0024 -0.1600  0.0914
20610W        W35741  16.993  12.230  12.978 -0.0545 -0.1012  0.1253
20611W        W35742   7.519   9.327  12.556  0.0991 -0.4706  0.0757
20612W        W35743   4.908   7.788  13.377  0.2162 -0.1557 -0.3461
20613W        W35744   4.201  16.340  15.666  0.0331 -0.1142  0.0696
20614W        W35745  10.711  17.846  16.314 -0.0896 -0.1629  0.0200
20615W        W35746  15.634   7.967  15.486  0.0230 -0.0202  0.2320
20616W        W35747   5.560  16.534   3.193  0.0729 -0.1977  0.0318
20617W        W35748   9.000  10.329  15.309 -0.1264  0.0599 -0.2725
20618W        W35749   4.206   0.858  13.273 -0.0328 -0.0459  0.0040
20619W        W35750   0.922  11.871  14.527 -0.0047  0.0189  0.0826
20620W        W35751   6.779  13.166  15.454  0.1030  0.1945  0.0936
20621W        W35752  13.033  13.962  14.402  0.3443  0.1831 -0.1438
20622W        W35753  13.628  16.730   1.670 -0.2606 -0.0249 -0.0712
20623W        W35754  13.328  10.217   1.135  0.0999  0.0630 -0.1950
20624W        W35755  14.982   6.143   3.044 -0.3157  0.1039 -0.1952
20625W        W35756  16.546   4.214  10.870 -0.0442 -0.0266 -0.0343
20626W        W35757   5.781   7.509  16.045 -0.2057  0.1054 -0.2296
20627W        W35758   3.485   1.880  16.647  0.1503 -0.1094  0.1122
20628W        W35759   6.742   4.445   5.735  0.1270  0.1793  0.3568
20629W        W35760   5.698   0.663  12.846  0.1138 -0.2517  0.2663
20630W        W35761   0.506  11.336  15.832  0.1163  0.1560  0.1304
20631W        W35762  17.325  10.496   5.009  0.1639  0.1470 -0.1351
20632W        W35763   3.452   8.023  11.336 -0.0074  0.1590 -0.1583
20633W        W35764  15.538   4.671   1.417 -0.5790  0.1282 -0.1968
20634W        W35765  11.092  17.003  12.880  0.1183  0.0189 -0.0395
20635W        W35766   4.225  13.354   2.588  0.0754  0.1761 -0.1605
20636W        W35767  13.929   3.181  11.518  0.3820  0.1016 -0.0322
20637W        W35768  17.364   6.179   2.672  0.0299 -0.0435 -0.4417
20638W        W35769   6.037   1.563   4.552 -0.4111  0.1058  0.3172
20639W        W35770  15.988   0.981   1.588  0.1105  0.2377  0.1319
20640W        W35771   2.020   6.312  15.117 -0.2541  0.1795  0.3174
20641W        W35772   9.480  16.248   3.382  0.0940  0.0839 -0.4106
20642W        W35773   3.363   1.741   1.933 -0.0784  0.1689  0.1369
20643W        W35774   9.249  16.692   3.771 -0.0743 -0.1157 -0.0765
20644W        W35775   1.851  13.178  14.402 -0.0167 -0.1911 -0.1285
20645W        W35776  10.146  11.819  14.070  0.2132 -0.1322  0.1090
20646W        W35777  14.735   2.849  11.505  0.1560 -0.1599  0.0619
20647W        W35778  13.945   3.375  12.486  0.1880 -0.0279 -0.0672
20648W        W35779  12.330   4.983  13.415 -0.2106 -0.1317 -0.0622
20649W        W35780  17.296  14.018  10.819  0.2080 -0.1005 -0.1302
20650W        W35781   0.073   4.528  13.914  0.2228 -0.2119 -0.1353
20651W        W35782  15.044  13.546   0.365  0.0358  0.0680  0.2050
20652W        W35783   6.009  13.262   4.346  0.1053  0.2343 -0.2077
20653W        W35784  12.973   8.764   0.950 -0.1300  0.3945  0.2997
20654W        W35785   9.966   8.091  13.945  0.2231  0.1419 -0.1126
20655W        W35786  14.167  17.116   2.365 -0.1260 -0.0392 -0.1002
20656W        W35787  17.193  10.981   0.058  0.4253 -0.2215 -0.4031
20657W        W35788  14.597  10.772  14.590 -0.0255 -0.1441 -0.1980
20658W        W35789  12.387   9.520  14.261 -0.0855  0.0025 -0.1448
20659W        W35790  15.373   7.238  16.148 -0.0837  0.0698 -0.0250
20660W        W35791  10.308   3.386  11.065  0.0443 -0.1814 -0.1416
20661W        W35792   3.669   0.413  14.628  0.2066 -0.0649  0.1470
20662W        W35793   5.367   9.758   0.998  0.2164 -0.2159 -0.4506
20663W        W35794   7.968   9.525   4.586  0.0769 -0.0342  0.0286
20664W        W35795   7.459   9.853  15.858 -0.0869  0.0577 -0.2597
20665W        W35796   2.255   6.659  15.917 -0.1521 -0.1265  0.0558
20666W        W35797   1.849   6.568  15.639  0.2729 -0.1046 -0.1132
20667W        W35798  14.163   6.912  14.798 -0.0809 -0.0316 -0.0033
20668W        W35799  13.510  12.671   2.289 -0.1505 -0.1419  0.2024
20669W        W35800   5.348  13.118   4.057 -0.3366 -0.1463  0.3016
20670W        W35801   3.318   6.321   1.570  0.1800  0.0922  0.0437
20671W        W35802   2.007   8.626   4.299  0.1064  0.4096 -0.0900
20672W        W35803   5.787   2.973  14.405 -0.0149 -0.0521  0.0609
20673W        W35804   3.545  14.427  13.178  0.1703  0.1511 -0.0932
20674W        W35805   9.563  14.031  16.739 -0.1297 -0.0503 -0.1833
20675W        W35806  11.670   2.532   0.580  0.0611  0.3725 -0.0410
20676W        W35807   1.615   1.775   0.770 -0.2848  0.0360 -0.0832
20677W        W35808   8.487   2.316   5.523  0.0602  0.0998  0.0907
20678W        W35809   4.258   5.376  13.929 -0.2530 -0.1354  0.0287
20679W        W35810  12.466   9.594   0.955  0.0237 -0.5096 -0.2814
20680W        W35811   5.105  10.635   4.220  0.2568  0.1175 -0.1610
20681W        W35812   1.253   1.634   0.360  0.0867  0.1670  0.0437
20682W        W35813   2.070   7.984  13.645 -0.1912  0.1117  0.0085
20683W        W35814  14.089  12.693   0.116  0.1330 -0.0575  0.0873
20684W        W35815  15.422   7.364   1.488 -0.1967 -0.0358  0.0918
20685W        W35816   1.007  11.892   2.925 -0.0569  0.0980 -0.2111
20686W        W35817  16.382  16.728   2.284 -0.2488 -0.1779  0.1521
20687W        W35818   2.631   1.357   4.811  0.2195  0.2779 -0.2458
20688W        W35819  17.284   5.175  16.147 -0.1456 -0.1858 -0.3175
20689W        W35820  13.837   3.801   3.385  0.0668  0.2091  0.0822
20690W        W35821  13.835   4.599   1.752 -0.1790  0.1390 -0.0288
20691W        W35822  14.801   0.884   2.405 -0.2472 -0.0874  0.1382
20692W        W35823   3.851   3.009   4.025 -0.1466 -0.0565 -0.0106
20693W        W35824  16.267  10.580   2.342  0.0447 -0.1701 -0.2400
20694W        W35825   7.612   1.682  11.306  0.2895 -0.0469 -0.3538
20695W        W35826  16.896  12.405   3.946  0.3405 -0.2201  0.1176
20696W        W35827   2.368  11.949  13.317 -0.1620 -0.3497 -0.2039
20697W        W35828   6.187  12.367  11.639  0.1824  0.5401 -0.2233
20698W        W35829   6.061   5.512  15.559  0.0074  0.3245 -0.0629
20699W        W35830   5.749   6.904   5.083 -0.0502  0.0531  0.0654
20700W        W35831   7.918   4.933  13.211 -0.1370  0.2429  0.0260
20701W        W35832   5.050  17.875  13.132  0.2624  0.4143  0.0314
20702W        W35833   6.093   3.057   2.455 -0.2704 -0.2235  0.1118
20703W        W35834  12.718  13.193   4.866 -0.2302  0.2004  0.2877
20704W        W35835   4.738   5.542   2.492 -0.0464 -0.1347  0.0046
20705W        W35836   1.731  13.932   2.908 -0.1510 -0.3968 -0.0842
20706W        W35837   3.478   0.682   5.693  0.1268  0.2015 -0.0569
20707W        W35838   1.705   8.013   6.337  0.0916 -0.0471  0.1962
20708W        W35839   8.336   0.548  15.819 -0.1271  0.0889  0.0698
20709W        W35840  11.178   2.858  16.516  0.2561  0.0728  0.1657
20710W        W35841   9.766  16.800   2.243 -0.0578  0.0915 -0.1526
20711W        W35842   9.033   7.124  11.467 -0.2004 -0.1652  0.0181
20712W        W35843   7.707   4.955   5.407  0.0516  0.0532 -0.1280
20713W        W35844   6.146  14.598  11.978  0.1299  0.2548 -0.1760
20714W        W35845   4.994  11.737   3.380 -0.1644  0.1033 -0.4861
20715W        W35846  16.757   9.163   1.016 -0.2102  0.1516  0.0138
20716W        W35847   9.746   4.493  14.980  0.2055 -0.1728  0.0708
20717W        W35848  12.248  15.796   0.081  0.0182  0.3002  0.4661
20718W        W35849   6.584  14.993  14.161  0.3027  0.1048  0.2660
20719W        W35850  10.159   8.852  15.376  0.0448  0.2548 -0.1482
20720W        W35851  14.271   5.952   5.607  0.0688 -0.1092  0.3385
20721W        W35852  12.708  10.034   4.482 -0.0134 -0.2009 -0.0239
20722W        W35853   3.769   4.531   3.005 -0.1001  0.4721  0.0449
20723W        W35854   5.147   7.727   5.419  0.1742 -0.4193  0.0932
20724W        W35855  14.736   7.220   0.118  0.1539  0.1080 -0.0414
20725W        W35856   7.208  13.245   1.376 -0.0483 -0.0511 -0.1734
20726W        W35857  11.064   8.410   0.861  0.2315 -0.3455  0.0193
20727W        W35858   5.563   0.767   2.448 -0.2295 -0.0765  0.0253
20728W        W35859  11.694  17.290  12.173  0.0006  0.0955 -0.1716
20729W        W35860   3.006   6.596   3.719 -0.0897 -0.1844 -0.0758
20730W        W35861  13.590  11.583   3.450  0.3393 -0.2661 -0.2969
20731W        W35862   1.486   2.040  14.661 -0.2241  0.2082 -0.3040
20732W        W35863   5.541  10.338   2.664 -0.0003 -0.0273  0.1935
20733W        W35864   4.289  10.579   0.355 -0.0538  0.1852  0.2783
20734W        W35865  10.024   1.915  16.332 -0.2163 -0.0245  0.1555
20735W        W35866   9.875  16.790   3.198 -0.2492 -0.3866 -0.0915
20736W        W35867  16.923  11.100  14.741  0.2102  0.1324  0.0922
20737W        W35868   4.631   9.960   1.414  0.0690 -0.2044 -0.1857
20738W        W35869  14.331   5.126  12.421 -0.0945  0.3227 -0.3404
20739W        W35870   1.827   5.333  11.775 -0.3641  0.3283  0.1509
20740W        W35871   6.328   4.350   3.007 -0.5254 -0.1738  0.2036
20741W        W35872   4.736   1.014   5.746  0.0395 -0.1965 -0.0249
20742W        W35873   3.838  16.766  12.440  0.2265  0.0494  0.2261
20743W        W35874   9.433  15.467   0.649 -0.0840 -0.1010  0.3347
20744W        W35875   3.107   4.073  16.070 -0.2879 -0.1676  0.0824
20745W        W35876   2.555   5.579   4.892 -0.2703  0.2377 -0.0587
20746W        W35877  11.541  10.119  13.419  0.1279  0.1410 -0.0583
20747W        W35878   9.712  16.259   0.073 -0.1430  0.3775  0.2981
20748W        W35879  11.441   2.644  12.978 -0.1526  0.1445  0.0590
20749W        W35880   0.440   3.121  11.341 -0.0216 -0.3301 -0.1014
20750W        W35881   8.725  16.941   2.214 -0.4743 -0.1784 -0.1045
20751W        W35882  14.868   8.241  13.800 -0.0647  0.1417  0.1968
20752W        W35883  13.597   9.915  15.865  0.0056 -0.2401 -0.0066
20753W        W35884  14.461   4.591  15.521 -0.2243 -0.0700 -0.0006
20754W        W35885  13.016   0.049  10.148  0.0183 -0.0515 -0.1480
20755W        W35886  11.905   4.742  16.262 -0.0303  0.0132 -0.1329
20756W        W35887  15.074  17.774  13.500  0.0893  0.1884 -0.0988
20757W        W35888  15.319   6.150  11.598 -0.2319 -0.1152 -0.0408
20758W        W35889   8.169   0.259  10.675 -0.4911 -0.2964 -0.3235
20759W        W35890   0.958   7.330  13.538 -0.1139 -0.1779 -0.1784
20760W        W35891   4.850   8.664  12.480  0.2982  0.0539 -0.0517
20761W        W35892  11.936   1.770   0.064  0.4591 -0.1736  0.0008
20762W        W35893   8.697   8.383   4.992 -0.2705  0.1748 -0.1831
20763W        W35894   9.836   9.502   0.957  0.3420  0.0986 -0.2727
20764W        W35895  16.626   3.302   4.702  0.0124 -0.0301 -0.0800
20765W        W35896   8.132   4.014   2.570 -0.0993 -0.1218  0.0325
20766W        W35897  17.623   6.981  11.475 -0.0843  0.0344  0.3807
20767W        W35898   8.399  13.285   6.524 -0.0356  0.0420  0.0710
20768W        W35899   0.765  10.585  12.758  0.0410 -0.0298  0.3735
20769W        W35900   3.508  11.586   0.338  0.0125 -0.3030  0.0531
20770W        W35901   3.400  13.944  16.599  0.1870  0.1226 -0.1357
20771W        W35902   1.325   8.462   3.811 -0.1488 -0.0382  0.0612
20772W        W35903   0.387   9.790  10.359 -0.1396 -0.1260  0.0687
20773W        W35904   2.142  10.253  16.481 -0.0376  0.1725 -0.0913
20774W        W35905  14.586   7.360  16.318 -0.0236  0.0815 -0.2420
20775W        W35906  15.959  13.913   5.213  0.4453 -0.0393  0.0172
20776W        W35907   3.746  13.834   2.697 -0.1556 -0.0278  0.1758
20777W        W35908  13.038  12.822   5.142  0.3281  0.0571  0.1506
20778W        W35909  12.227  17.855  11.574 -0.0287 -0.1659 -0.1709
20779W        W35910  10.675   3.551   2.778 -0.1547  0.0667 -0.1045
20780W        W35911   9.213  16.168  15.021  0.0271  0.0301  0.0863
20781W        W35912   7.326   1.176  11.833  0.1358 -0.2166  0.1542
20782W        W35913  10.362   0.397  15.046 -0.2539 -0.0566  0.0104
20783W        W35914   4.030   0.101  16.022  0.1091  0.0010 -0.0016
20784W        W35915   9.622   1.703  15.138 -0.2163 -0.0547 -0.2578
20785W        W35916   8.101   2.510  15.980 -0.1081 -0.0485 -0.1219
20786W        W35917  11.782   8.142   4.735  0.0632  0.1133  0.1477
20787W        W35918  11.954   3.423  15.282  0.0773  0.0112 -0.1056
20788W        W35919  10.167   0.214  14.258 -0.0575 -0.1006  0.2075
20789W        W35920   0.960   7.596   0.941  0.2370  0.2578  0.0457
20790W        W35921  12.120  10.704   1.285 -0.0492  0.0018 -0.2370
20791W        W35922  15.145   0.294   2.478  0.0191  0.1484 -0.2780
20792W        W35923  11.286  14.373  16.374 -0.1476 -0.0276 -0.0469
20793W        W35924  14.359   3.827  11.283  0.0989  0.1497  0.0626
20794W        W35925  11.491   7.220  15.534 -0.2700  0.3113 -0.2259
20795W        W35926  17.166   7.171   5.094  0.2117 -0.0656 -0.0305
20796W        W35927   8.144  10.890   6.283 -0.0758 -0.0547  0.0983
20797W        W35928  15.032  11.707   0.112 -0.0043  0.1970 -0.0903
20798W        W35929   1.547   3.643   0.513 -0.1101 -0.0343  0.1859
20799W        W35930   7.698   2.509   5.941  0.0415 -0.1948 -0.0261
20800W        W35931   0.707   3.213   3.561  0.1723 -0.0719 -0.0194
20801W        W35932   8.494  12.713   2.094 -0.2730  0.0695  0.0600
20802W        W35933   7.599   3.681   3.920 -0.2724  0.0154 -0.3104
20803W        W35934  13.769   1.350   4.335  0.3671  0.1091 -0.0799
20804W        W35935   4.775   4.979  10.118  0.0490  0.1745  0.2244
20805W        W35936  12.078  12.318  16.735  0.1374 -0.0252 -0.1053
20806W        W35937  15.382   0.343   1.547 -0.2182 -0.1954  0.3891
20807W        W35938   1.135   8.584   5.642  0.1313  0.0164 -0.2377
20808W        W35939   2.194   4.916  14.827  0.2091  0.2552  0.2395
20809W        W35940  11.863  15.077  12.891  0.1086 -0.0644 -0.1154
20810W        W35941  14.220   7.139   3.819  0.1264  0.0403  0.4413
20811W        W35942  14.131   2.225  15.175  0.2491 -0.0920  0.0079
20812W        W35943  11.111   1.370  10.104 -0.0264 -0.4668 -0.1402
20813W        W35944   3.886   3.821  12.217  0.1293 -0.0077 -0.1305
20814W        W35945   8.885   4.461  15.283  0.1918  0.0793 -0.2385
20815W        W35946  15.979  13.981  14.893  0.2243 -0.2360 -0.2363
20816W        W35947   2.153   7.775   2.190 -0.3717  0.0903  0.0549
20817W        W35948   1.252   5.725   2.038 -0.2227 -0.0456 -0.2690
20818W        W35949   6.505  15.610   1.690 -0.0487  0.0965  0.0604
20819W        W35950  12.439  11.009  13.276 -0.2884  0.3079  0.0930
20820W        W35951  14.094  10.058  16.639  0.3102 -0.2321 -0.0655
20821W        W35952   6.194  11.026  16.350 -0.2431  0.0769  0.1087
20822W        W35953   2.974  10.638   1.944  0.1398  0.0344  0.1381
20823W        W35954   8.729  10.915  15.951  0.1397 -0.1776  0.1642
20824W        W35955   9.711  17.102   1.097 -0.0842 -0.3118  0.0936
20825W        W35956  17.870   3.426  16.195  0.1693  0.1667 -0.5593
20826W        W35957   1.124   6.364   0.850  0.3071 -0.4047 -0.0518
20827W        W35958  10.885  17.069   0.383  0.0886 -0.0883 -0.1034
20828W        W35959   8.740  12.911   4.756  0.1475 -0.2122 -0.0100
20829W        W35960   8.028   9.686  15.824  0.1421  0.2804  0.2154
20830W        W35961   7.548  15.391  13.403 -0.0623  0.2745  0.1396
20831W        W35962  16.607   9.811  13.174 -0.1386 -0.0446 -0.0089
20832W        W35963  13.487  16.090   5.276  0.2885  0.1917  0.3593
20833W        W35964   9.566   3.852   1.674  0.1480  0.1458 -0.0043
20834W        W35965   6.019   6.003   4.031 -0.1291 -0.1008 -0.2204
20835W        W35966  16.893  16.728  11.735 -0.0451 -0.0319 -0.0754
20836W        W35967   4.970   0.748  10.873 -0.2491 -0.2412  0.1244
20837W        W35968   2.310  10.871  11.182 -0.0665  0.0320 -0.4318
20838W        W35969  10.705   9.532   2.694  0.3093  0.0357  0.0860
20839W        W35970   7.132   0.853  13.103 -0.0309  0.0090  0.1611
20840W        W35971  13.287   0.645   0.999 -0.0159 -0.1404 -0.0765
20841W        W35972   7.211   3.014  12.256 -0.1053  0.0759  0.2239
20842W        W35973   3.614   2.873   5.006 -0.1775  0.2198  0.2279
20843W        W35974   9.782   2.766   4.896 -0.1392 -0.0904  0.2254
20844W        W35975  15.346   6.717  12.263 -0.0665  0.2126  0.0032
20845W        W35976   7.413   7.232   2.390 -0.0579 -0.0264  0.3262
20846W        W35977  13.438   2.978  11.546  0.1904  0.1485 -0.3208
20847W        W35978  16.408   1.607  12.986  0.2107  0.0285  0.1461
20848W        W35979  14.572   1.963  15.279 -0.2413  0.0515 -0.1646
20849W        W35980  12.699   0.827  16.251 -0.0887 -0.0934 -0.1742
20850W        W35981   7.075   2.969   5.308  0.1001 -0.1124 -0.2964
20851W        W35982  13.638   6.069   6.905 -0.3755 -0.2660 -0.0520
20852W        W35983   1.383   2.203  13.815  0.0516  0.2957  0.2371
20853W        W35984   4.877  14.585   3.933 -0.2209  0.2828 -0.1085
20854W        W35985  10.866   0.183   3.477  0.1910 -0.0261 -0.1008
20855W        W35986  13.678  11.717   5.745  0.0113  0.0968 -0.1102
20856W        W35987   6.526  15.111   3.126  0.0268 -0.1506 -0.2144
20857W        W35988   7.213  17.060   1.922 -0.4884  0.0861 -0.0136
20858W        W35989  12.654   6.565   4.900  0.0945  0.2860 -0.2715
20859W        W35990   1.535   2.773   2.504 -0.0379 -0.0226  0.0715
20860W        W35991  16.086   0.382  13.043 -0.0884  0.1167 -0.0466
20861W        W35992   0.110   4.807   0.310  0.0759  0.0215 -0.2045
20862W        W35993  17.031  15.767  11.890  0.3236 -0.3245  0.0785
20863W        W35994   3.168   3.099  16.412 -0.1102  0.1692  0.2143
20864W        W35995  12.438   5.074  14.356 -0.0148 -0.1659  0.1501
20865W        W35996   6.345   8.992  15.757  0.0657  0.2002  0.0975
20866W        W35997   9.718  16.436   4.250 -0.0463  0.0079 -0.0017
20867W        W35998   3.492   0.093   3.966 -0.0975 -0.0855 -0.0930
20868W        W35999  12.207   8.408   1.190 -0.1612  0.3484 -0.0925
20869W        W36000   0.445  14.301   0.498 -0.0762  0.0767 -0.2642
20870W        W36001   3.805   0.105   0.159  0.3263 -0.1217 -0.0822
20871W        W36002   5.123  10.429  13.606 -0.2098 -0.0851 -0.2348
20872W        W36003  13.497  16.465   4.900  0.2452  0.1263 -0.0664
20873W        W36004  13.959   8.960   1.164 -0.0903 -0.1495  0.1185
20874W        W36005  16.895  14.287   2.490 -0.0964  0.1945  0.0551
20875W        W36006   2.213  14.739  15.998  0.0578 -0.0943  0.0305
20876W        W36007   0.389  15.232   4.441 -0.0300  0.3122 -0.0685
20877W        W36008   6.246   8.719  14.850  0.1957 -0.0947 -0.1574
20878W        W36009  11.114   5.365  15.147 -0.1233 -0.4252 -0.1846
20879W        W36010   7.364  13.606   0.929  0.0187  0.3235 -0.0360
20880W        W36011  11.150   8.478  15.458 -0.0429 -0.0342 -0.1568
20881W        W36012   6.198  15.284  15.412 -0.0443 -0.0950 -0.0808
20882W        W36013  16.488   7.516  14.582 -0.0631  0.1453 -0.0916
20883W        W36014  11.930  15.862   3.153  0.1059  0.2888 -0.0801
20884W        W36015  15.798  10.832  13.189  0.0474  0.1910  0.3164
20885W        W36016   0.518  15.288  16.581  0.1090 -0.2749  0.0606
20886W        W36017  12.120  16.738  12.987 -0.0931  0.2115 -0.1995
20887W        W36018   0.568  14.841  14.260  0.1407  0.2758 -0.1012
20888W        W36019  16.809   2.009   1.656 -0.0308  0.2504  0.1542
20889W        W36020  15.468  17.349  16.605  0.0692  0.0262 -0.1558
20890W        W36021  13.294  15.899  15.913 -0.1445  0.3105 -0.1734
20891W        W36022   8.889  14.032   4.564 -0.0751  0.0455  0.2293
20892W        W36023  12.521  10.342   3.859  0.1385  0.3064  0.1745
20893W        W36024  12.288   2.653  14.805 -0.0341 -0.2085 -0.0181
20894W        W36025  10.841  16.835  12.186 -0.0407 -0.1484 -0.0067
20895W        W36026   6.322  11.210   5.605 -0.0498  0.0160  0.3587
20896W        W36027   7.224   1.530  12.203  0.0347  0.0821  0.0937
20897W        W36028   1.460   7.078   1.739  0.1208 -0.0823 -0.2386
20898W        W36029   0.833   6.869  13.340 -0.1609 -0.0327 -0.0597
20899W        W36030   3.630   9.916  11.938  0.2111 -0.0515 -0.0993
20900W        W36031   5.365   9.270  13.318  0.1413 -0.1258  0.0578
20901W        W36032  16.367   0.531  15.545  0.1162  0.1532 -0.1298
20902W        W36033  13.763   8.442  13.227  0.2443 -0.0785  0.2117
20903W        W36034   7.091   1.543   4.808  0.0400 -0.0068  0.0086
20904W        W36035  17.106   8.869   3.994 -0.2361  0.0182 -0.3212
20905W        W36036   9.429  12.355   5.099 -0.0330  0.2474  0.0244
20906W        W36037   7.819  11.615  10.681  0.2946 -0.1100  0.3893
20907W        W36038  11.645   5.513  14.503 -0.1348  0.3107 -0.0030
20908W        W36039  14.551   0.784  11.411  0.1032 -0.0783  0.2111
20909W        W36040  10.180   9.066  11.401  0.0434  0.1828  0.0497
20910W        W36041  12.095   3.171  12.323 -0.2145 -0.0305  0.0883
20911W        W36042   5.233  11.075  16.493  0.0656 -0.0819 -0.2725
20912W        W36043   2.805   2.395  11.376 -0.1618 -0.1606 -0.0152
20913W        W36044  16.833  15.199   4.059  0.0172 -0.2548 -0.1870
20914W        W36045  17.587   0.903  13.873  0.0662 -0.1367 -0.2892
20915W        W36046   0.912  14.470  16.223  0.3172 -0.2448  0.0981
20916W        W36047  16.617   3.911  12.806  0.3443 -0.1099  0.0165
20917W        W36048   7.709  10.805  15.559  0.2401  0.3378 -0.0645
20918W        W36049   9.942  16.476   4.998  0.1403 -0.0099  0.1891
20919W        W36050   5.416   5.652   4.797 -0.3400  0.0091 -0.2086
20920W        W36051  17.627   0.280   2.230 -0.0012 -0.0355 -0.1894
20921W        W36052   4.834   6.419  16.480  0.4309  0.0550  0.2730
20922W        W36053   1.978   1.379   3.608  0.0498 -0.0129  0.0131
20923W        W36054   5.101   4.631  11.850  0.1660 -0.1108 -0.0479
20924W        W36055   8.743  16.915  15.186 -0.2070 -0.2860 -0.3915
20925W        W36056  10.859  14.158  14.333  0.1452  0.4634 -0.3627
20926W        W36057  13.515   9.049  14.819 -0.0426  0.1694  0.0072
20927W        W36058  13.772  12.322   0.123  0.0283 -0.0563  0.2522
20928W        W36059   8.619   1.890   2.357  0.3060 -0.0334  0.0006
20929W        W36060   6.822   6.609  12.134 -0.0199 -0.1592 -0.0415
20930W        W36061  15.182   3.971   3.979  0.1810  0.0631 -0.0042
20931W        W36062   9.491  13.441  11.724  0.0610  0.2313 -0.1878
20932W        W36063   9.909  17.209  16.669  0.2044 -0.0962  0.1075
20933W        W36064   0.661  16.743  13.271  0.1396  0.2541 -0.1969
20934W        W36065   6.755  12.654   3.006 -0.1066 -0.1379  0.1987
20935W        W36066  17.729   7.814  15.137 -0.2478  0.2432  0.0986
20936W        W36067  10.372  13.488   0.067  0.1040  0.2586 -0.0110
20937W        W36068  15.200   7.790  13.023 -0.1084  0.4338  0.1237
20938W        W36069  16.031   3.702   3.759  0.2824  0.1250 -0.0987
20939W        W36070   2.764  10.695  13.792 -0.1988  0.1948  0.0569
20940W        W36071  10.395   0.890  11.756  0.2115 -0.1583 -0.0502
20941W        W36072   8.091  13.800   1.957  0.2882 -0.1508 -0.2296
20942W        W36073  16.624   6.575  14.202 -0.1169  0.2580  0.2363
20943W        W36074   7.157   7.870   4.890 -0.1176  0.0519  0.0622
20944W        W36075   9.060   8.751  15.315 -0.2543 -0.1639 -0.3488
20945W        W36076   6.331   3.456  11.254  0.2946  0.0799  0.3169
20946W        W36077   7.829  15.323   1.623  0.0265  0.0290 -0.0391
20947W        W36078   9.219  13.793   6.195 -0.0976  0.2642  0.1900
20948W        W36079  10.859  15.562  16.737  0.0409  0.2322  0.4860
20949W        W36080   4.138  17.537   5.552  0.1197  0.0127  0.1512
20950W        W36081   5.378   1.452  13.520  0.1292 -0.0738 -0.0961
20951W        W36082  17.773  16.106  12.697 -0.0733  0.0833  0.0631
20952W        W36083  11.655  17.706   3.161 -0.0054  0.2200 -0.0750
20953W        W36084   6.012   1.680  13.970  0.0885  0.0347  0.1519
20954W        W36085   2.697   1.114  12.726  0.0405  0.3986  0.3318
20955W        W36086   0.540  14.371   5.455  0.0873  0.1064 -0.0657
20956W        W36087  13.834  14.411   0.442 -0.3461  0.1044  0.0276
20957W        W36088  10.352   8.320  10.999  0.1086 -0.1523 -0.4381
20958W        W36089  10.375  13.225   3.578 -0.2076 -0.0019  0.0308
20959W        W36090  14.155   5.970   4.559  0.2988 -0.1349  0.0401
20960W        W36091  12.114   9.733   1.818 -0.0304 -0.0378 -0.1484
20961W        W36092  14.398   6.709  10.924 -0.0234  0.0047  0.2089
20962W        W36093   2.385   4.756  12.169  0.0109  0.0094 -0.2350
20963W        W36094   0.273  10.042   3.392 -0.1735  0.3511 -0.0792
20964W        W36095  17.146   8.379   2.253  0.1250  0.2972  0.4101
20965W        W36096   0.734  10.536  16.678 -0.2110 -0.2122 -0.0639
20966W        W36097   2.499  15.104  15.023  0.0886 -0.1766 -0.0229
20967W        W36098  16.197   1.401   1.771 -0.1525  0.1116  0.0096
20968W        W36099  15.288  10.511   0.911  0.3389 -0.0073  0.2202
20969W        W36100  14.313   3.150   4.836  0.3725 -0.0231 -0.0335
20970W        W36101  12.160  14.117   2.708 -0.1845  0.2602  0.3978
20971W        W36102  10.690   8.599  13.698 -0.3605 -0.0528  0.2101
20972W        W36103   2.097  16.808  12.036  0.2116 -0.3257  0.0562
20973W        W36104   8.923   5.612  12.726 -0.0136 -0.1160  0.2446
20974W        W36105  10.447  15.084  12.064  0.0879  0.2504 -0.1160
20975W        W36106   9.508   9.854   1.771  0.0863  0.0889 -0.4405
20976W        W36107   2.228   2.977  13.365  0.5418  0.0580 -0.0564
20977W        W36108  16.502   0.464   2.574 -0.1855 -0.1594  0.2396
20978W        W36109   7.596  11.609  15.779  0.0550 -0.2766  0.2293
20979W        W36110   8.735   2.897   0.091  0.1953  0.0958  0.0718
20980W        W36111   3.735  13.295   3.494 -0.0877  0.1334 -0.0271
20981W        W36112   3.017  11.402  11.367  0.2670 -0.0996  0.3067
20982W        W36113   8.170   4.539  10.082  0.0335 -0.0733 -0.1195
20983W        W36114   0.208   7.832   5.304 -0.0759 -0.0103  0.2956
20984W        W36115   4.921  12.145   0.368  0.0126 -0.0424 -0.0953
20985W        W36116   0.954  10.453   0.974 -0.3671  0.1730 -0.3912
20986W        W36117   4.588  12.770   3.764  0.1707 -0.0108  0.1504
20987W        W36118   7.019  14.160   3.852  0.0928 -0.1362  0.0748
20988W        W36119  10.183   3.255  16.432  0.1999  0.0278  0.1897
20989W        W36120   2.732  16.090  12.110  0.0489 -0.2948 -0.3094
20990W        W36121  10.121  17.348   1.102 -0.4160 -0.0349  0.2855
20991W        W36122   7.385  17.678  14.407 -0.0523  0.1930 -0.0265
20992W        W36123   9.803   7.041   2.009 -0.0222  0.0561  0.0078
20993W        W36124   6.343  17.442  15.936  0.1563 -0.1223  0.0585
20994W        W36125   5.975   7.547  11.811 -0.1531 -0.1301 -0.1313
20995W        W36126   4.414   2.652   2.460 -0.0582 -0.1795  0.0716
20996W        W36127   2.422   0.918   3.920 -0.0985  0.3704  0.0465
20997W        W36128   4.454   6.069   2.472 -0.1655  0.2515 -0.0860
20998W        W36129   7.743  12.866  14.552 -0.0398  0.1408 -0.0056
20999W        W36130   9.620   2.313   2.411  0.1313  0.2183 -0.0247
21000W        W36131   0.622   4.769  10.665  0.2596  0.0951 -0.0508
21001W        W36132   9.947   4.593   4.691 -0.1470 -0.1268  0.2559
21002W        W36133   0.631   1.429   1.849  0.0040 -0.0140  0.2714
21003W        W36134  11.771   0.213  15.266 -0.4183  0.2767 -0.0613
21004W        W36135  12.482  15.355   4.025  0.1986 -0.2659  0.2334
21005W        W36136   6.115  16.156   2.595  0.1073  0.3274  0.0961
21006W        W36137  17.742   0.354  16.633 -0.0780  0.1364  0.2184
21007W        W36138  10.547   6.457  15.312  0.0440 -0.2818 -0.1713
21008W        W36139  13.955  13.068   1.042  0.2183 -0.1218 -0.1689
21009W        W36140  17.073  15.513   3.602 -0.0755  0.1104  0.3913
21010W        W36141   6.270  11.416  12.125  0.2301  0.1574 -0.0466
21011W        W36142  15.732   9.088   1.064  0.2658 -0.0465  0.2075
21012W        W36143   9.683   9.668  16.318  0.2528 -0.1289  0.0335
21013W        W36144   1.379   0.440  15.415  0.2715  0.0598 -0.1903
21014W        W36145  10.440   7.246  11.982 -0.0538  0.0620  0.0439
21015W        W36146   7.955   7.817  16.488  0.2138  0.0269  0.2057
21016W        W36147  16.133  14.258   2.064  0.1511 -0.3825  0.1544
21017W        W36148   0.470   1.298  16.530  0.2253 -0.2342  0.3043
21018W        W36149   4.838   3.368   0.655  0.0100  0.0350  0.2409
21019W        W36150  12.273   6.794   2.027  0.1726  0.0305  0.0217
21020W        W36151   2.739  14.462  13.686 -0.0379  0.1533 -0.2053
21021W        W36152  11.836   2.559  11.053  0.1228 -0.2744  0.0421
21022W        W36153   5.048  16.738   2.041 -0.4057  0.0982 -0.2571
21023W        W36154   4.752   4.272  15.537  0.2772 -0.4297 -0.2644
21024W        W36155  13.996   8.857   5.059 -0.3146  0.0120 -0.4624
21025W        W36156  15.715  14.818  14.005  0.0952  0.3186 -0.2198
21026W        W36157  10.347  11.297  16.571 -0.1403  0.0515  0.2342
21027W        W36158   4.088  13.959   1.156 -0.0255  0.1020 -0.0763
21028W        W36159   3.268   3.147   3.173  0.0306 -0.4355 -0.2046
21029W        W36160   2.648  10.051   5.955 -0.3307 -0.4650 -0.0057
21030W        W36161  11.203  13.308   1.124  0.0144 -0.0731 -0.1481
21031W        W36162   4.312   9.888  15.914  0.2942 -0.0909  0.0223
21032W        W36163  17.803   0.430  14.051  0.2764  0.1075  0.0635
21033W        W36164  16.273  10.857   1.891 -0.0114 -0.2644  0.0714
21034W        W36165   4.802  17.760   0.603 -0.1762 -0.3437 -0.1142
21035W        W36166   8.117  11.386   1.599  0.2660 -0.0521  0.0484
21036W        W36167   0.394   9.651   3.829 -0.0026 -0.0603 -0.1772
21037W        W36168  14.192  16.383   0.280 -0.0372  0.0388 -0.0609
21038W        W36169   6.122  13.780   5.144 -0.2257 -0.5696 -0.1081
21039W        W36170   6.086  11.206  15.016  0.1458 -0.0972  0.0548
21040W        W36171   3.846   5.994  12.220 -0.2621 -0.3854 -0.1062
21041W        W36172  11.664   8.803  13.944  0.0948  0.2088  0.0832
21042W        W36173   1.364   3.434  16.094  0.1322 -0.2928 -0.2763
21043W        W36174   5.416   2.698  15.299 -0.6817 -0.0186  0.2163
21044W        W36175  16.242   0.026   2.565  0.0913  0.2057 -0.0594
21045W        W36176  11.047  11.914   2.895  0.0685  0.0693  0.0234
21046W        W36177   5.121  14.143   2.849  0.2837 -0.3595  0.0990
21047W        W36178   0.592   8.467  11.120 -0.1239 -0.2389 -0.1090
21048W        W36179  16.535   4.576   1.555  0.0453 -0.0172 -0.0794
21049W        W36180  12.792   9.895   3.473  0.0490  0.0898 -0.1421
21050W        W36181  10.877   5.622  14.234 -0.1804 -0.1282  0.1545
21051W        W36182  13.744   0.420   1.504  0.0936  0.0698 -0.2914
21052W        W36183  11.470   8.193   5.620  0.1660  0.0471 -0.1209
21053W        W36184   5.005   7.386  12.522 -0.0630  0.0103 -0.1150
21054W        W36185  13.804   2.046   2.559 -0.2112 -0.0482 -0.0340
21055W        W36186   1.810   2.712   3.361  0.0136  0.1054 -0.0044
21056W        W36187  17.412  10.191  11.193  0.2219  0.0429  0.0729
21057W        W36188  14.200   8.928   0.719 -0.2368  0.3503 -0.2907
21058W        W36189   6.998   9.067   5.614  0.0568 -0.2256 -0.0468
21059W        W36190   6.857  11.359   3.006  0.2102  0.0010 -0.1902
21060W        W36191   3.447   0.975   3.066  0.2227  0.0601 -0.0698
21061W        W36192  13.951  12.277  14.054  0.0753 -0.2026  0.1815
21062W        W36193  14.292  13.405   2.463  0.2549  0.2234  0.1360
21063W        W36194   2.287  15.641  16.194  0.3367  0.0196 -0.1351
21064W        W36195  11.517  10.726  13.330 -0.0131 -0.0559 -0.2310
21065W        W36196   5.339   3.567   0.595  0.0905 -0.1044 -0.0653
21066W        W36197  14.675  14.574   5.195 -0.3404  0.0146 -0.1676
21067W        W36198   3.848  11.263  14.923  0.3329 -0.0566 -0.2282
21068W        W36199   0.667   7.812  12.723 -0.2086 -0.2117  0.0887
21069W        W36200   7.045   6.131  11.960  0.0306 -0.0731 -0.0917
21070W        W36201  11.997  16.881   1.482  0.0453  0.0521 -0.1875
21071W        W36202   0.719   6.890   3.639  0.4175  0.1771 -0.2845
21072W        W36203  16.515  10.689  12.137 -0.1850 -0.0377  0.1057
21073W        W36204   1.801   9.206   3.576 -0.1025 -0.3512 -0.0093
21074W        W36205  16.398  12.449  12.903  0.1760 -0.2506  0.4156
21075W        W36206  13.845   5.587  16.124  0.0732 -0.0561 -0.2075
21076W        W36207   0.623  16.489  11.067  0.0596 -0.2485 -0.2403
21077W        W36208   8.626  10.143   1.328  0.2164  0.1766  0.1071
21078W        W36209  17.101  11.847  12.626 -0.0222 -0.2344  0.3080
21079W        W36210   0.932  12.919  14.470 -0.2473 -0.0673 -0.1422
21080W        W36211   2.934  17.355  14.969 -0.0120  0.1224  0.3600
21081W        W36212   3.032  14.468  11.372  0.0786 -0.2942  0.0581
21082W        W36213   6.217  12.939   2.748  0.1650  0.2497  0.0267
21083W        W36214  10.726  13.750   2.961  0.1964 -0.0406 -0.0898
21084W        W36215   7.487  14.908  13.584 -0.1368  0.0348 -0.0652
21085W        W36216  16.770   2.512  13.627  0.1192 -0.1618  0.3486
21086W        W36217  17.849  14.407   4.169 -0.1212  0.2696  0.1356
21087W        W36218   4.131   3.812   3.600 -0.0610  0.1640 -0.1651
21088W        W36219   2.114   4.597  16.555 -0.1969  0.1716 -0.0712
21089W        W36220  16.891   4.640   5.893  0.0717  0.0575 -0.0495
21090W        W36221   8.740  17.489  12.557 -0.1905  0.1296  0.1019
21091W        W36222   5.573   2.233   5.074 -0.3482 -0.1990 -0.0693
21092W        W36223   1.677  11.709   3.319 -0.1886  0.4889  0.1463
21093W        W36224  14.141   6.559   4.985 -0.2065 -0.2858  0.0760
21094W        W36225   0.673   8.941  11.918  0.1443  0.2029 -0.1500
21095W        W36226  17.361  12.247  15.572 -0.0544  0.2242 -0.1528
21096W        W36227   8.159   8.441  13.972 -0.0757  0.1342 -0.1406
21097W        W36228   8.107   0.397   2.878  0.0449  0.1827 -0.0576
21098W        W36229   1.406  14.066  15.405  0.1846  0.0660 -0.1583
21099W        W36230  12.620   1.334  12.872  0.0324  0.0906  0.2298
21100W        W36231   4.348   0.550   5.456 -0.0171  0.1745 -0.1284
21101W        W36232  12.909  14.897   0.662 -0.0451  0.1863 -0.0090
21102W        W36233   6.225   8.440   5.769 -0.4057  0.4198  0.0899
21103W        W36234  13.647  16.165  11.716  0.1298  0.1331 -0.1624
21104W        W36235  16.110  17.373  14.296  0.2034 -0.2463  0.0931
21105W        W36236   3.329   9.397  12.037 -0.2939 -0.2062 -0.1357
21106W        W36237  16.576  12.138   0.287 -0.0769 -0.0146  0.0195
21107W        W36238  15.509   2.684   4.294  0.1965 -0.3858  0.1813
21108W        W36239   0.455  13.224  14.849 -0.1247  0.0746 -0.0863
21109W        W36240  15.374  16.788  12.910  0.2044 -0.0440  0.0311
21110W        W36241  16.060  12.837  10.704 -0.2944 -0.1284 -0.1485
21111W        W36242   1.830  15.484  13.986 -0.0320 -0.1856  0.0401
21112W        W36243   5.943   9.983  16.185 -0.4868 -0.2289  0.4553
21113W        W36244   7.463  15.149   2.383 -0.0354  0.0463  0.0729
21114W        W36245  17.629   2.572   5.380 -0.1585 -0.0978 -0.2913
21115W        W36246   6.460  10.739   2.662 -0.0363 -0.2029  0.0046
21116W        W36247   6.622   1.235   0.139  0.1583 -0.0250 -0.0124
21117W        W36248  13.108  11.216  14.650 -0.2341 -0.0190 -0.1417
21118W        W36249  17.151  11.480  13.422  0.0095 -0.0892 -0.2374
21119W        W36250  14.150   9.216   5.814  0.2272 -0.0023 -0.0004
21120W        W36251   6.162   5.589  11.007 -0.4279  0.3209 -0.0970
21121W        W36252  11.644   1.986   2.711  0.1398 -0.0032 -0.0568
21122W        W36253  14.088   9.999   4.658 -0.3922  0.1634 -0.0729
21123W        W36254  12.533   0.263  11.923 -0.5178  0.2300 -0.1102
21124W        W36255   3.692  15.376   2.806  0.3106  0.0555  0.0015
21125W        W36256  15.696   0.831  11.824  0.3666 -0.0978 -0.1440
21126W        W36257  17.871   9.171  15.688  0.1078  0.3261 -0.2264
21127W        W36258   8.520   6.023  15.157 -0.0987 -0.1758 -0.1642
21128W        W36259   9.666  13.165  13.433 -0.1284  0.2122  0.0124
21129W        W36260  11.535   6.149   3.072  0.1332  0.0149 -0.0461
21130W        W36261  15.592  15.551  12.043 -0.0525 -0.3989  0.0370
21131W        W36262   0.035   8.001   3.261 -0.0869 -0.2507  0.0391
21132W        W36263  12.373  12.272   2.864  0.1398 -0.0357 -0.4264
21133W        W36264   6.943   2.881  13.174  0.0516 -0.1333 -0.0154
21134W        W36265   2.468  12.388   1.043 -0.2312  0.1729  0.3279
21135W        W36266  16.629   4.247  12.411  0.3060 -0.0236 -0.0294
21136W        W36267  13.584  17.682   2.127 -0.2446 -0.2919  0.0347
21137W        W36268  10.771   1.636  14.654  0.1595  0.2065  0.2447
21138W        W36269   9.663   4.441   0.908  0.2862  0.0840 -0.2785
21139W        W36270  16.298  14.245   1.534  0.2134 -0.0109 -0.1357
21140W        W36271   3.943   7.667   3.633  0.0305 -0.1696  0.1464
21141W        W36272  11.461  15.429   1.700 -0.0252 -0.1419 -0.0043
21142W        W36273  14.754   6.910  13.252  0.0283  0.1223  0.2326
21143W        W36274   5.521   7.501  14.802  0.0042 -0.0390  0.0346
21144W        W36275  16.444  13.072  12.904  0.0696 -0.3358 -0.3212
21145W        W36276   4.563   7.635   3.467 -0.2634  0.0512  0.0927
21146W        W36277   2.684  14.943  13.996  0.2153  0.1493  0.0628
21147W        W36278  15.703   7.797   4.815 -0.2589  0.0605  0.2502
21148W        W36279   6.313  13.989  13.860  0.0586  0.0888  0.2581
21149W        W36280  17.505   4.789  11.343  0.0471  0.3231 -0.0058
21150W        W36281  17.384   7.421   0.201  0.1422  0.1209 -0.0040
21151W        W36282  14.976  13.226  16.139  0.2042  0.4120  0.1142
21152W        W36283   9.021   5.990  15.292  0.0831 -0.3025  0.0145
21153W        W36284  10.400  14.443   0.130 -0.1718 -0.1747 -0.3471
21154W        W36285   5.392   0.943   3.039  0.0273  0.0219 -0.2986
21155W        W36286  10.263   5.406  13.412 -0.3113  0.0400  0.0413
21156W        W36287  11.059   9.967   3.489  0.0608 -0.0094 -0.2021
21157W        W36288   5.915   8.262  12.078 -0.2672  0.1006 -0.0605
21158W        W36289  17.702   2.841  16.230 -0.2963  0.1479 -0.1557
21159W        W36290   6.225  10.594  15.432 -0.0508  0.0900 -0.5201
21160W        W36291   0.738   9.202  16.766 -0.0883 -0.0881 -0.4965
21161W        W36292   2.292   6.135  16.480  0.0188  0.1818  0.0527
21162W        W36293   8.757  12.295   3.522 -0.5009 -0.1122 -0.1204
21163W        W36294   2.562   3.894  14.144 -0.0350 -0.0896 -0.1963
21164W        W36295   6.553   1.663  11.434 -0.2027  0.0957 -0.3362
21165W        W36296   2.978  17.199  14.535 -0.0424  0.1655  0.2711
21166W        W36297   3.860  15.977  12.015  0.1053  0.1952 -0.4304
21167W        W36298  14.722   7.608  12.954 -0.1618 -0.2556 -0.0500
21168W        W36299  17.881  12.860   5.608  0.0846 -0.0710  0.1541
21169W        W36300   4.121  13.272   0.564  0.3157  0.1112 -0.1817
21170W        W36301  11.345  12.194  14.680  0.0146  0.2732  0.1241
21171W        W36302   0.983   1.854  15.819 -0.0023  0.0064  0.2462
21172W        W36303   4.317   3.254  11.500 -0.2018  0.3252 -0.1804
21173W        W36304  10.166  12.409   4.024  0.0641 -0.2225 -0.1042
21174W        W36305   3.561   0.433   6.210  0.0084  0.0136  0.1657
21175W        W36306   9.623   3.272  15.289 -0.1757 -0.2010  0.1851
21176W        W36307   8.790   4.716  13.016 -0.3438  0.1451 -0.1725
21177W        W36308   2.179  10.749  15.562  0.3466 -0.1356  0.0882
21178W        W36309  13.902   8.027  13.529  0.1365 -0.0511 -0.1027
21179W        W36310   5.687  17.551  16.420 -0.1887  0.1012 -0.4278
21180W        W36311   7.884   4.754  16.432 -0.0158  0.0619 -0.0780
21181W        W36312   1.383   0.949   0.905  0.1354 -0.2204  0.0243
21182W        W36313  14.769   1.640  14.596 -0.0859 -0.1633  0.1089
21183W        W36314  12.405   3.369  11.790 -0.1285  0.1021 -0.1611
21184W        W36315  17.481   3.961  11.409  0.0674 -0.0237  0.2921
21185W        W36316  13.014   5.113   3.354 -0.0966 -0.1916  0.0199
21186W        W36317   1.592  16.952   2.771 -0.1965  0.0183  0.1563
21187W        W36318   4.084   2.217   2.618 -0.1730  0.0548 -0.0532
21188W        W36319  13.958   3.413   0.399  0.1896 -0.0982 -0.0584
21189W        W36320   5.145  12.133   5.572 -0.0907 -0.0002  0.1974
21190W        W36321  12.554  13.784  14.614  0.1902 -0.1413  0.0082
21191W        W36322   8.680  14.809  11.548  0.1124  0.2275  0.1199
21192W        W36323   1.168  15.660   4.639  0.1711 -0.0318  0.1470
21193W        W36324  12.368   7.765  12.328 -0.0392  0.1473  0.1133
21194W        W36325  16.845  12.804  15.207  0.1756 -0.0490 -0.2262
21195W        W36326  10.531   8.628   1.545  0.1361  0.1008 -0.0914
21196W        W36327   8.768  13.837  16.332 -0.0425  0.1290 -0.0145
21197W        W36328  10.945  10.844  15.349  0.1491  0.2369 -0.0814
21198W        W36329   6.453   1.441  14.859 -0.3138  0.1297 -0.0679
21199W        W36330  16.477  15.880  11.639 -0.2174  0.0438 -0.1663
21200W        W36331  17.025   8.155   5.261 -0.0367 -0.0724 -0.0322
21201W        W36332   7.140   0.032   0.152  0.0969  0.0896  0.2355
21202W        W36333  11.756   6.200   2.681 -0.0510 -0.4416 -0.0533
21203W        W36334  16.408   0.857   5.793 -0.1003  0.2313  0.1957
21204W        W36335  10.165  10.610   3.043 -0.2301  0.1284  0.2497
21205W        W36336   4.075   5.413  11.569  0.3470  0.1000 -0.0555
21206W        W36337  16.291  13.269   4.947 -0.2695  0.0614  0.0004
21207W        W36338  11.695  11.617   4.029  0.1200 -0.1302 -0.2697
21208W        W36339  12.685   3.541  14.558  0.0831  0.0906  0.0501
21209W        W36340   4.868  12.901  14.522  0.0040 -0.3102 -0.1280
21210W        W36341  15.188  17.700   5.231 -0.0701  0.0674  0.2981
21211W        W36342   9.863   4.950  14.713 -0.1675 -0.1656 -0.0818
21212W        W36343   5.054   7.260  15.344 -0.1804  0.0257 -0.0396
21213W        W36344  13.307   8.342  10.773 -0.2040  0.0306  0.0748
21214W        W36345  13.124  16.755  14.707 -0.1981 -0.1992 -0.2032
21215W        W36346   5.570   9.497   6.196  0.0845 -0.1397  0.2049
21216W        W36347   1.116  15.821  14.944 -0.0990  0.1015  0.1729
21217W        W36348   9.068  16.792   0.349  0.1712 -0.5525  0.5391
21218W        W36349   7.194   4.364   4.316  0.0759 -0.0748  0.0617
21219W        W36350  15.992  12.268  15.109  0.0260 -0.2172 -0.1101
21220W        W36351  12.156   0.240   9.889  0.1089  0.1814  0.0481
21221W        W36352   1.410  10.927  11.881 -0.0169 -0.1415 -0.2415
21222W        W36353  12.803  11.702  15.862 -0.0731 -0.0138  0.1390
21223W        W36354   2.958  16.128  14.446 -0.1959 -0.0563 -0.0637
21224W        W36355   6.609   3.481   5.685  0.1766 -0.0885 -0.0916
21225W        W36356   7.485  13.477  14.951 -0.2476  0.0663 -0.4517
21226W        W36357  14.651  11.750  14.915  0.0050  0.0737  0.0298
21227W        W36358   4.773   1.866   1.630 -0.2713 -0.1874 -0.0295
21228W        W36359   0.314   3.577  12.224  0.1362 -0.2632  0.2007
21229W        W36360   8.753  16.068  13.137 -0.2559 -0.0236 -0.1209
21230W        W36361  15.232  15.161   5.503  0.2344  0.2302  0.3386
21231W        W36362  16.642   4.966  11.529 -0.0031  0.5216  0.1316
21232W        W36363  14.429  10.695   3.364  0.1844 -0.3222 -0.0491
21233W        W36364   9.161  15.255  13.906 -0.1802  0.0028 -0.0461
21234W        W36365   9.600   9.393   1.911  0.0256  0.1500 -0.2056
21235W        W36366   8.035   3.979  14.867 -0.0066 -0.0766  0.1893
21236W        W36367  13.288  16.836  12.223  0.0656  0.2708  0.1548
21237W        W36368   2.880  15.273  14.735 -0.2551 -0.0190  0.1097
21238W        W36369  17.546   7.620  11.897  0.0383  0.0216  0.1980
21239W        W36370   6.948  13.740   2.911  0.2844 -0.2512  0.0517
21240W        W36371   2.268  12.129  15.782  0.1875 -0.0800 -0.1275
21241W        W36372  16.642   8.221  15.350 -0.1341 -0.2350  0.2936
21242W        W36373   6.407  11.388  13.529 -0.0369  0.0812 -0.2463
21243W        W36374   0.781  12.502   3.108  0.0459  0.2187 -0.1213
21244W        W36375  15.330   4.450   5.449 -0.2126  0.0093 -0.2954
21245W        W36376  16.242   4.021   4.117 -0.2107  0.0008 -0.1573
21246W        W36377  15.383  16.870  16.411  0.0678  0.0975 -0.1438
21247W        W36378   6.832  11.288  13.861 -0.2094  0.0516  0.1517
21248W        W36379  14.415   4.758  13.674  0.0352  0.3316  0.2912
21249W        W36380   4.989  11.088  11.863 -0.2392 -0.0091 -0.0502
21250W        W36381   6.980  13.299  12.338  0.1330  0.0956 -0.4619
21251W        W36382   5.233  12.482  12.930 -0.0347 -0.1989 -0.0306
21252W        W36383   1.215   3.838  13.227 -0.1335  0.0950 -0.3625
21253W        W36384  15.581  14.790   3.627 -0.0241  0.0045 -0.0305
21254W        W36385   4.801  12.128   1.203  0.0369  0.2548 -0.3544
21255W        W36386  11.556  13.003  16.484 -0.0611  0.2619  0.3099
21256W        W36387  15.309   9.028  14.556 -0.1045 -0.1496  0.3748
21257W        W36388  14.653  14.411  16.737 -0.2972  0.0160  0.1692
21258W        W36389   9.657  15.886  14.718 -0.2292 -0.1265  0.2156
21259W        W36390   8.349   7.107  13.241  0.2168  0.1370 -0.2676
21260W        W36391   4.419   9.114   5.038 -0.3626 -0.0187 -0.2529
21261W        W36392   7.853   3.479  12.876  0.2014  0.2153  0.0768
21262W        W36393   7.530  17.607   4.562  0.1794 -0.3187  0.0101
21263W        W36394   3.090   5.073  13.381  0.1369  0.0267 -0.1516
21264W        W36395   1.673   7.038  12.359 -0.1090  0.0422 -0.0330
21265W        W36396   3.894   0.494  16.451 -0.1392 -0.3020 -0.0950
21266W        W36397  11.326   7.436   2.794  0.2102  0.0274 -0.1145
21267W        W36398   5.501   8.033   0.172 -0.2024  0.0006  0.0068
21268W        W36399   8.124   6.628  14.023 -0.0808  0.1123 -0.3111
21269W        W36400   8.101  11.384  13.197  0.1391 -0.0579  0.1476
21270W        W36401   2.700   0.729   5.822 -0.0419 -0.2584  0.0961
21271W        W36402   5.964   5.943  13.921  0.2564 -0.2139 -0.1174
21272W        W36403  10.960   6.529   1.465 -0.0933  0.0596  0.1748
21273W        W36404  11.790   5.800  14.122 -0.0323 -0.2564 -0.0126
21274W        W36405   8.726   1.526   1.767  0.0962 -0.0916  0.2246
21275W        W36406   5.329  14.317   5.292 -0.4527  0.2067 -0.2132
21276W        W36407   2.132   4.059  16.355  0.4685  0.0581  0.0926
21277W        W36408   2.439  16.937   4.737 -0.0395 -0.0988 -0.3182
21278W        W36409   5.396  12.505   3.358 -0.0732 -0.2197 -0.1030
21279W        W36410   9.859   4.110  12.409  0.2879  0.2213  0.0124
21280W        W36411   9.410  11.788   3.160 -0.1263 -0.0226 -0.0444
21281W        W36412   0.852   9.418  11.128 -0.0623  0.2218 -0.0317
21282W        W36413   7.718  11.707   3.791 -0.1712 -0.2084  0.1059
21283W        W36414  15.010   1.520  16.435  0.0458  0.3195 -0.1030
21284W        W36415   3.817   9.229  14.502 -0.0146  0.2235 -0.2300
21285W        W36416  13.782  13.492   0.172 -0.0699 -0.1970  0.1056
21286W        W36417   8.199  15.164  12.508  0.0089  0.0059 -0.2515
21287W        W36418   4.349  17.696   0.517  0.1032 -0.1143 -0.1750
21288W        W36419   2.990   9.796  12.880 -0.2697  0.2464 -0.0067
21289W        W36420   7.201   4.232  14.466 -0.1433 -0.1542  0.0833
21290W        W36421   3.105  13.024   3.749 -0.1566  0.0799 -0.0461
21291W        W36422   9.090   2.208  16.101  0.0878 -0.3734 -0.0474
21292W        W36423  10.248  12.460   1.393 -0.0789  0.1219 -0.2232
21293W        W36424   8.242   0.092   4.959  0.0429 -0.0993  0.1249
21294W        W36425  10.185   1.040   2.625 -0.2334 -0.1238 -0.2196
21295W        W36426  14.239   7.033  14.072 -0.3593 -0.2094 -0.1528
21296W        W36427   4.555   1.966   0.781 -0.0910 -0.0368  0.2018
21297W        W36428   4.491  14.458   4.113  0.1747 -0.1684 -0.1898
21298W        W36429  10.288   0.760  13.087 -0.4406 -0.2539 -0.0451
21299W        W36430  14.306   8.971  14.391 -0.1275 -0.0882  0.2868
21300W        W36431   9.817  14.003  14.900  0.2569  0.0650 -0.0777
21301W        W36432   5.760  10.711  12.549 -0.1917  0.0322 -0.0718
21302W        W36433  12.560   2.782   4.613 -0.1394  0.3154 -0.1545
21303W        W36434  12.462   4.827   4.892 -0.0054 -0.2037 -0.3264
21304W        W36435  10.143   3.207   3.367  0.1441 -0.3028  0.0040
21305W        W36436  17.839  17.400  16.174 -0.0762  0.1473 -0.0519
21306W        W36437   9.876   0.721   4.428 -0.1324 -0.0778 -0.0168
21307W        W36438   3.233   5.347   4.597 -0.0678  0.2311  0.0227
21308W        W36439  15.486  10.788   0.005  0.1697  0.1284  0.1155
21309W        W36440   2.286   4.669   4.791  0.6351  0.1122  0.3648
21310W        W36441  17.061  14.950   3.673 -0.1579  0.0614  0.3047
21311W        W36442  11.899   6.553  13.777  0.0113  0.1404  0.0983
21312W        W36443  10.697   5.271  15.988  0.0446 -0.2675  0.1723
21313W        W36444   1.595   5.547  14.646 -0.0332  0.1313 -0.1331
21314W        W36445  17.867  15.220  13.877  0.1268  0.1029  0.2845
21315W        W36446   6.763   8.728  13.234 -0.0151  0.2010  0.0388
21316W        W36447  13.166  16.056   1.789 -0.0087  0.0343 -0.1383
21317W        W36448   1.073   1.626   2.024 -0.0309  0.1998  0.0058
21318W        W36449  16.326  15.183  13.711 -0.2549  0.0027 -0.2127
21319W        W36450   7.989  11.419   6.429 -0.0216  0.1160  0.1958
21320W        W36451  11.038   3.885   1.326 -0.0687 -0.1726  0.2909
21321W        W36452  13.223   0.330   0.173 -0.3422 -0.1651 -0.2566
21322W        W36453   3.889   4.036   1.324  0.2709 -0.1955  0.1203
21323W        W36454  11.617  17.739  11.866  0.1869  0.2941 -0.1270
21324W        W36455  12.641   6.512   0.246 -0.2650  0.0553 -0.1367
21325W        W36456   0.839   2.844  13.369  0.2890 -0.0362 -0.1206
21326W        W36457  16.403   3.662   0.676  0.1652  0.1858  0.0460
21327W        W36458  12.432  14.526   4.663  0.2497 -0.0284  0.1938
21328W        W36459   8.713  10.040   0.850 -0.2471  0.0037 -0.0445
21329W        W36460   3.237  17.613   1.618  0.0754 -0.1186  0.1587
21330W        W36461   2.005   1.249  14.517 -0.0366 -0.1801 -0.1869
21331W        W36462  12.462  11.480  14.369 -0.0743  0.0541 -0.1022
21332W        W36463  15.750  11.419  15.130  0.0815  0.0198 -0.0192
21333W        W36464   0.773  11.055  13.015  0.0252 -0.0410  0.1345
21334W        W36465  14.129  10.864  14.337 -0.3796  0.3808  0.0642
21335W        W36466   5.984  15.758  14.066  0.1498  0.0185 -0.3099
21336W        W36467  11.877  16.947   3.492 -0.1416 -0.1819  0.0174
21337W        W36468   9.598   2.663  12.601  0.0241 -0.0593  0.4214
21338W        W36469  12.873   1.622   0.386  0.1958 -0.1666  0.0360
21339W        W36470  10.096   8.767   3.079 -0.2151 -0.3165 -0.1973
21340W        W36471   4.510   6.759   3.375  0.3319 -0.1152  0.3688
21341W        W36472  13.385   1.742   3.144 -0.0449  0.0534  0.1706
21342W        W36473   0.750   2.147   5.052 -0.0168 -0.0199 -0.4126
21343W        W36474  12.437   3.905  14.162 -0.1614  0.0391 -0.2523
21344W        W36475  16.848   1.500   5.390  0.0721  0.0321  0.1196
21345W        W36476  10.043  14.029   0.422 -0.1318  0.1323 -0.0531
21346W        W36477   9.604   9.383  12.542  0.5578 -0.1662 -0.0217
21347W        W36478  11.111   3.551  11.490  0.1331  0.4903  0.3689
21348W        W36479  15.084   5.101   0.083 -0.2806 -0.0564  0.1364
21349W        W36480  11.839  11.662  12.874 -0.5723 -0.4432 -0.0120
21350W        W36481   0.447  16.362  15.930  0.0568 -0.2052 -0.1981
21351W        W36482  10.437   4.805   3.623 -0.0607 -0.2154  0.1283
21352W        W36483  10.987   2.171   6.100 -0.3681  0.0833 -0.1700
21353W        W36484   9.088   5.486   2.136 -0.0557 -0.0910 -0.1856
21354W        W36485   1.802   6.664   3.290 -0.0775  0.2342 -0.4018
21355W        W36486   4.074   2.356   1.552  0.3976  0.2472  0.3780
21356W        W36487   7.055  12.430  16.152  0.2319 -0.3451 -0.2802
21357W        W36488  12.577   0.065   2.071 -0.1432  0.1270 -0.0709
21358W        W36489   6.183  10.095  16.649 -0.0970  0.0918  0.2314
21359W        W36490  12.976  16.831   4.935 -0.2510 -0.2195  0.1705
21360W        W36491   2.616  13.372   0.699  0.1483 -0.0333  0.1085
21361W        W36492   6.786  14.217   2.751 -0.3209 -0.2949  0.0102
21362W        W36493  14.120  10.524   1.300 -0.0472  0.0547  0.0144
21363W        W36494   9.204   0.292   0.490  0.1180  0.0515 -0.2912
21364W        W36495   8.118  11.387   0.424  0.0259 -0.1163  0.2986
21365W        W36496   4.617   2.781  12.301 -0.0350  0.2715  0.0209
21366W        W36497   5.249  15.560  14.739 -0.1413  0.1297 -0.1263
21367W        W36498   5.792   9.155  16.393 -0.0264 -0.0560  0.4464
21368W        W36499  12.402   5.449   3.198 -0.0185  0.2764 -0.1294
21369W        W36500  11.432  17.428  13.975 -0.1406  0.1270 -0.0688
21370W        W36501  15.533   1.623  16.271 -0.2279 -0.0306  0.0796
21371W        W36502  16.395   5.440   5.259 -0.1402  0.1860  0.1082
21372W        W36503  13.676   1.938  13.625  0.3222  0.0873 -0.2276
21373W        W36504  12.724   4.903  13.742  0.2468 -0.2725  0.1105
21374W        W36505   7.116  14.553   2.890 -0.1060 -0.1965  0.0398
21375W        W36506  15.062   6.395   3.492 -0.3404 -0.1034 -0.0738
21376W        W36507   5.742   2.498   0.804 -0.2160 -0.3192 -0.2108
21377W        W36508  15.521  10.314   5.930 -0.0690 -0.4336 -0.1452
21378W        W36509  16.592  14.366  12.496  0.1955 -0.1606 -0.1243
21379W        W36510   0.299   5.925  14.261 -0.0995  0.0745 -0.2170
21380W        W36511  13.168  14.790   5.284 -0.0214 -0.0365 -0.0021
21381W        W36512   0.566   6.839  14.202 -0.0655 -0.1169 -0.0548
21382W        W36513   0.892   4.887  12.311  0.3179 -0.1686 -0.0307
21383W        W36514  17.381  12.828  13.513  0.2209 -0.0505  0.0845
21384W        W36515  12.254  11.432  13.021  0.2978  0.1505 -0.1180
21385W        W36516   3.156   2.033   1.224 -0.0687  0.4726 -0.3700
21386W        W36517  15.307  16.284   6.070  0.1472  0.2227 -0.1961
21387W        W36518   6.189  10.885  12.817 -0.0875 -0.0388  0.1195
21388W        W36519   5.336  14.446   1.959 -0.2077 -0.1666 -0.0691
21389W        W36520  13.381  13.243   0.051 -0.1544 -0.1289 -0.0488
21390W        W36521  13.478   0.050  10.265 -0.4224  0.0220 -0.2283
21391W        W36522   7.128   5.293  11.532 -0.1747 -0.4247 -0.0960
21392W        W36523   4.079   3.143   2.187  0.3087 -0.0456 -0.0324
21393W        W36524  11.375   4.578   2.245 -0.3207 -0.2566 -0.0962
21394W        W36525   4.953   6.477  14.059  0.2082 -0.3037  0.2420
21395W        W36526   3.402   2.531   4.649 -0.0266  0.1353 -0.2843
21396W        W36527   0.836  16.286   1.272  0.0532  0.1210 -0.1532
21397W        W36528   0.469   5.616  11.260  0.1794 -0.1689  0.1579
21398W        W36529  13.883   2.631   1.238  0.0152 -0.0590 -0.0057
21399W        W36530  10.371   1.052  13.585  0.0814 -0.1367  0.2590
21400W        W36531   3.760  16.165   3.920 -0.1146 -0.0995  0.0091
21401W        W36532  11.219   1.126  13.252 -0.0863  0.1224  0.0781
21402W        W36533   1.455  15.264  14.137 -0.0276 -0.1236 -0.0995
21403W        W36534  13.929  15.218   5.522 -0.0283  0.2468  0.1682
21404W        W36535   6.631   4.920   4.593 -0.0758  0.0651  0.1280
21405W        W36536   0.241   7.490   6.510  0.1292 -0.2956 -0.1067
21406W        W36537  12.672  16.178   3.464 -0.3093  0.1532 -0.1608
21407W        W36538  14.470  13.640   1.730 -0.0808 -0.0787 -0.2926
21408W        W36539   5.297   4.294   5.017  0.0358  0.1013  0.1308
21409W        W36540   1.560   0.601  13.092  0.0812 -0.0353  0.1306
21410W        W36541   8.863   9.467   3.759  0.0916  0.0630 -0.0959
21411W        W36542   1.399  11.259  15.557  0.0325  0.2465 -0.0786
21412W        W36543  16.099   9.947   4.433 -0.1206  0.0472  0.0364
21413W        W36544   7.510  12.503  10.603 -0.0883 -0.2731 -0.0281
21414W        W36545  17.629   4.812   0.753  0.1370  0.1053 -0.0572
21415W        W36546   5.672   7.920  15.152  0.1747 -0.0672  0.2768
21416W        W36547   0.094   5.513  14.905 -0.3629  0.5375 -0.1428
21417W        W36548  12.345  12.661   0.171  0.0452  0.3035 -0.0611
21418W        W36549   1.511  13.417   4.615  0.0321  0.1579 -0.1229
21419W        W36550   1.667  15.551   4.616  0.3508  0.0014  0.0510
21420W        W36551   8.329   3.845   1.552  0.0311 -0.0709  0.2977
21421W        W36552  13.298   8.222   0.904  0.1997  0.3850  0.1533
21422W        W36553   6.003  16.510  11.415 -0.0970 -0.0744 -0.1326
21423W        W36554   9.272  14.100   3.351 -0.1875  0.1705 -0.1465
21424W        W36555  14.588   3.307  12.059 -0.1603  0.3516  0.1538
21425W        W36556   7.123   6.827  15.385  0.0507 -0.0802  0.0093
21426W        W36557  15.781   9.982  13.616  0.0444 -0.0608 -0.1908
21427W        W36558  10.460  17.398  12.406  0.2689 -0.2136  0.2760
21428W        W36559   6.144   4.446  16.651 -0.3183 -0.2097  0.1613
21429W        W36560  15.363  12.709   1.840  0.1020 -0.0890 -0.1983
21430W        W36561   8.799  15.377   1.363  0.0221 -0.0926  0.4445
21431W        W36562   8.053  10.358  16.554  0.2510  0.0272  0.2150
21432W        W36563   7.757   4.381  15.112  0.1685  0.1275  0.0698
21433W        W36564   9.782  11.074  12.583  0.1442 -0.0155 -0.3193
21434W        W36565  12.309   8.610  11.868  0.1008  0.2514  0.0731
21435W        W36566   2.812   1.036  13.198 -0.1957  0.1118  0.1651
21436W        W36567  12.972  10.943  15.126  0.0148 -0.3097 -0.1565
21437W        W36568   0.613  12.377   4.507 -0.2588 -0.1492 -0.2982
21438W        W36569  11.124   5.387  15.782 -0.3357  0.0628 -0.2026
21439W        W36570   7.537   7.253   5.495  0.1569 -0.1674  0.0088
21440W        W36571   5.487   6.467   5.857 -0.2143  0.3064 -0.1301
21441W        W36572   3.625  11.155  12.828 -0.1330 -0.1888  0.1706
21442W        W36573  12.832  15.795  14.252 -0.2476  0.0241 -0.1233
21443W        W36574   7.342  15.333   2.950  0.2841 -0.1064  0.0334
21444W        W36575   2.252   9.759  15.445  0.0543 -0.1620  0.0844
21445W        W36576   0.474  10.654   1.004 -0.1364  0.0862 -0.1433
21446W        W36577  17.716  17.280   6.350 -0.2733 -0.1566  0.3718
21447W        W36578   4.633  13.611   3.973  0.0505 -0.1898  0.0005
21448W        W36579   0.312   2.453  11.793 -0.1032 -0.0110  0.1124
21449W        W36580   7.858   9.681  13.878  0.3190  0.3774  0.0892
21450W        W36581   3.849  12.823   0.706  0.2840  0.1426 -0.1369
21451W        W36582  11.309   6.650   1.048 -0.1119 -0.0719  0.1333
21452W        W36583   7.106  12.383   4.349 -0.1649  0.1417  0.0155
21453W        W36584   6.988  17.723   1.882 -0.3465  0.1313 -0.0253
21454W        W36585   4.461   1.798  16.063 -0.3081  0.1060  0.2027
21455W        W36586  11.775   6.609  11.003 -0.0217  0.1343  0.1231
21456W        W36587   2.051   1.666  15.825 -0.1362  0.0025 -0.0387
21457W        W36588   4.427   5.221  14.983  0.3464  0.2419 -0.1339
21458W        W36589   3.216  14.547   5.112  0.0472  0.1368  0.0929
21459W        W36590   6.490  15.028  16.261  0.0955  0.1790 -0.0623
21460W        W36591   9.020   6.631  10.665  0.2517  0.0935 -0.1545
21461W        W36592  11.054   3.040  11.585 -0.0728 -0.1478  0.0146
21462W        W36593  12.904  12.193  12.717 -0.0811  0.0661 -0.0056
21463W        W36594  14.098  16.636  16.564  0.0169  0.0409  0.0533
21464W        W36595   3.065  16.860   0.840 -0.2261 -0.2157  0.0803
21465W        W36596  17.613   6.303   2.262  0.1561 -0.0597  0.2415
21466W        W36597   4.901   1.262  12.626 -0.1370  0.2295 -0.0397
21467W        W36598   4.841  11.364   4.198 -0.1106 -0.0888 -0.0346
21468W        W36599   2.326  14.962  15.490 -0.1886 -0.0936  0.0523
21469W        W36600  15.915  13.118   4.330  0.0720 -0.2306 -0.1308
21470W        W36601  15.159   2.829  13.279 -0.0301  0.1394 -0.0633
21471W        W36602   9.017  12.416  15.904 -0.0767 -0.0464  0.1244
21472W        W36603  10.332   7.796   4.503  0.1100 -0.0741  0.0827
21473W        W36604  10.930  12.076  11.238  0.1065  0.1542 -0.3198
21474W        W36605   0.165  10.398   0.673  0.1766  0.2410  0.0612
21475W        W36606  10.496  12.367   5.305  0.1465 -0.5137  0.0995
21476W        W36607  11.207  17.583   4.546  0.0126 -0.1477 -0.1058
21477W        W36608  16.381   0.174  12.710  0.3152  0.1237  0.2703
21478W        W36609   7.034   4.219   0.768 -0.2625  0.0485  0.1118
21479W        W36610   2.035  14.695   1.990  0.1639 -0.1286  0.4897
21480W        W36611  13.531   2.524  13.999 -0.1816  0.3626 -0.0018
21481W        W36612  15.447  15.778   2.307 -0.1733  0.0866 -0.0491
21482W        W36613  14.753   5.487   0.064 -0.1869 -0.6001  0.0796
21483W        W36614  13.625  16.596  14.301 -0.3082 -0.0253  0.0535
21484W        W36615   6.701  13.603   4.389 -0.1594 -0.0578 -0.3411
21485W        W36616  14.507   2.337  15.649  0.1631 -0.1921  0.3588
21486W        W36617   9.617  11.670  14.208 -0.1601 -0.1951 -0.0472
21487W        W36618   4.928   0.846  15.226 -0.0384  0.0650  0.2320
21488W        W36619  10.228  15.462   0.194  0.1706 -0.0188  0.0804
21489W        W36620   3.298  14.468  14.953 -0.2746  0.0598  0.2995
21490W        W36621   8.293  12.716  15.355  0.1177  0.0893  0.0591
21491W        W36622   9.437   5.617  12.771 -0.0907  0.0842  0.1521
21492W        W36623   6.048  12.174  14.038 -0.0273 -0.1144  0.2243
21493W        W36624   0.421   8.900  15.520 -0.2901 -0.0706  0.0137
21494W        W36625   9.311   3.170  16.673  0.4067 -0.0640  0.1597
21495W        W36626  15.404   3.895   2.193 -0.3830  0.3320  0.0876
21496W        W36627  16.248   4.025   1.009  0.0634  0.2029 -0.3289
21497W        W36628   3.938  15.877  11.525  0.1941  0.1151  0.1633
21498W        W36629   3.295   1.348  12.947  0.0889 -0.2429  0.0797
21499W        W36630   7.260  12.235  15.600  0.0272 -0.1120 -0.0299
21500W        W36631  15.675   3.448  11.486 -0.0197 -0.0739  0.1342
21501W        W36632   4.286  12.026  16.770  0.2108  0.0469 -0.3222
21502W        W36633   8.085   3.258  12.079 -0.1650  0.0731 -0.1528
21503W        W36634   7.436   0.295  11.891  0.0736  0.1833  0.0868
21504W        W36635   8.835   5.098   1.758 -0.1390 -0.2346 -0.1541
21505W        W36636   2.090   7.864   4.741  0.1153  0.2231 -0.1804
21506W        W36637   9.929   3.635   3.697  0.1820 -0.0212  0.1711
21507W        W36638  12.264   1.180   4.007  0.0165  0.0725  0.2046
21508W        W36639  13.768   3.981  16.757 -0.1720  0.0249  0.2120
21509W        W36640  12.938   7.304  11.707  0.1513  0.2547 -0.4106
21510W        W36641   2.615   8.828  15.355 -0.2605  0.1325  0.1425
21511W        W36642   9.628  14.910   3.683  0.1761 -0.2574  0.0727
21512W        W36643  17.269  13.255  13.910  0.1982 -0.0535  0.0038
21513W        W36644   4.135   6.069  15.337 -0.3293 -0.2487  0.1183
21514W        W36645   4.892   7.094   2.321  0.0370  0.3084  0.1350
21515W        W36646  13.076   4.420   3.501 -0.4175 -0.1157 -0.3662
21516W        W36647  17.562   0.090  13.709  0.3212 -0.1535 -0.3972
21517W        W36648  15.432   8.067  12.595 -0.0428  0.0851  0.2776
21518W        W36649   4.868  15.098  16.162 -0.0601  0.1333  0.0518
21519W        W36650  16.303  15.303  15.043  0.1928 -0.0614 -0.1494
21520W        W36651   6.949   6.506   0.076 -0.1761 -0.0781 -0.1970
21521W        W36652   0.016  15.316   5.349  0.1068  0.0401  0.0501
21522W        W36653   8.224   3.386  15.972 -0.1667 -0.1973 -0.0370
21523W        W36654  16.788  11.565   4.889 -0.2603 -0.0711  0.0753
21524W        W36655   1.751   4.615   5.035  0.0268  0.1102 -0.1012
21525W        W36656   1.555  13.465   4.056  0.0971  0.1234  0.1566
21526W        W36657   0.459   5.084   1.835  0.0296 -0.2393 -0.0446
21527W        W36658   0.255   8.667  12.059  0.0393  0.0977  0.0953
21528W        W36659   9.919  14.135  12.912 -0.2390 -0.0360 -0.1255
21529W        W36660   9.088   7.588   4.185 -0.1826 -0.0792  0.0805
21530W        W36661   2.057   7.388   3.199 -0.0588 -0.1456  0.1731
21531W        W36662   4.601  15.801   0.639  0.2552  0.1160  0.1097
21532W        W36663   3.472   7.294   5.524  0.0373  0.0515  0.1039
21533W        W36664   8.881   3.636  11.319 -0.3002  0.0170  0.0791
21534W        W36665  13.208   6.906  16.510 -0.0457  0.2881  0.3977
21535W        W36666   5.977   0.435   2.457 -0.0258  0.1805 -0.0469
21536W        W36667   6.381   6.306  16.588  0.1178 -0.0842  0.1034
21537W        W36668   0.712   0.394  15.754 -0.2072  0.0570 -0.1490
21538W        W36669   5.487   7.361   1.626 -0.1965  0.3545  0.0861
21539W        W36670   7.032   0.713   2.834 -0.0500  0.2122 -0.0851
21540W        W36671   8.372   1.944  13.701  0.0396 -0.2525  0.0061
21541W        W36672  17.586  10.720  12.713  0.1877 -0.0991  0.2109
21542W        W36673   7.851   1.173  10.792  0.4751 -0.2896 -0.0663
21543W        W36674  13.407  11.782   1.558 -0.2473  0.0614  0.4586
21544W        W36675   9.001   3.136   3.330  0.0470  0.1078 -0.0460
21545W        W36676   0.312  14.948   2.757  0.0478  0.1481 -0.2352
21546W        W36677  13.329   5.791  15.394 -0.2261  0.1651  0.1458
21547W        W36678  10.891   8.882   1.876 -0.1282 -0.0122 -0.2407
21548W        W36679  17.781  12.601   2.502 -0.1269  0.1267 -0.2586
21549W        W36680  17.224  10.422   5.796 -0.2849  0.3209 -0.0623
21550W        W36681  15.400   7.271  13.352 -0.2095 -0.0313  0.1044
21551W        W36682   1.258   2.711  13.976 -0.3271 -0.0962 -0.1822
21552W        W36683   7.895  12.498  15.178 -0.0723 -0.0028  0.4484
21553W        W36684   0.033   9.530   0.316  0.0186  0.1568 -0.1336
21554W        W36685   0.925   5.377   1.091  0.0199  0.0219  0.1592
21555W        W36686   8.532  10.153   4.197  0.0500  0.1912 -0.1815
21556W        W36687  11.320   1.681  12.477  0.0169 -0.2884  0.0512
21557W        W36688  11.171  15.445   2.813 -0.3613  0.3850  0.1989
21558W        W36689   8.114  14.387   5.203  0.0203 -0.3911  0.0068
21559W        W36690  11.874   4.352   4.752 -0.1091 -0.1548  0.1075
21560W        W36691  15.227  15.884  15.654 -0.0906  0.1534  0.0053
21561W        W36692   1.279   0.411  11.760 -0.0617 -0.2145 -0.0443
21562W        W36693   7.734   1.579  16.047 -0.3596  0.0662 -0.0473
21563W        W36694  14.469  10.029   2.547  0.1779  0.1671  0.0708
21564W        W36695   3.231  17.827  13.461  0.0488 -0.1885 -0.0666
21565W        W36696  14.445   1.932  12.142  0.3714  0.1640  0.2082
21566W        W36697  11.562  11.177   1.719  0.2189 -0.0403 -0.0573
21567W        W36698  10.342   1.423   1.894 -0.0328  0.1221  0.0171
21568W        W36699   1.141  14.215  15.866 -0.1887 -0.3786  0.2251
21569W        W36700   2.998   0.143  16.159 -0.0138 -0.1286 -0.5672
21570W        W36701   7.973  15.205   0.036  0.1291  0.3591 -0.1080
21571W        W36702  17.756   2.743  11.963  0.1107  0.0706  0.0501
21572W        W36703   3.129  12.467   1.635  0.0960  0.0685  0.0004
21573W        W36704  16.000   0.341   3.866  0.1242  0.1748 -0.0265
21574W        W36705  10.297   8.970   0.318  0.0605 -0.2561  0.2894
21575W        W36706  15.570   4.203   3.154 -0.0489 -0.0867 -0.2150
21576W        W36707   7.170   4.503  10.104  0.0008 -0.0854  0.0799
21577W        W36708   4.719  17.152   1.658  0.0249 -0.1414  0.2048
21578W        W36709   1.981   9.586  13.491  0.2364  0.2294 -0.0715
21579W        W36710   6.852   6.572   3.820 -0.1316  0.2239  0.0674
21580W        W36711   0.545   6.764   3.097 -0.1000  0.0594 -0.2319
21581W        W36712   2.289  16.086  14.775  0.1122  0.1334  0.1567
21582W        W36713  11.482   1.909   4.175 -0.1879  0.0899  0.0224
21583W        W36714   3.987   2.043   3.928 -0.0489  0.1528  0.0929
21584W        W36715   7.915   3.692   4.266 -0.0361  0.1426 -0.0410
21585W        W36716  16.342  11.693  14.526  0.2466 -0.1026  0.0698
21586W        W36717  10.136  17.105  12.726  0.1381 -0.0946 -0.1055
21587W        W36718   5.209  16.480   2.477 -0.3218 -0.0047 -0.0181
21588W        W36719   8.205   0.956  16.719  0.1383  0.0037 -0.1987
21589W        W36720  12.328  15.963   1.572  0.1533  0.0863 -0.0517
21590W        W36721  17.826  15.991  13.678  0.0427 -0.1476  0.0452
21591W        W36722  12.824  13.692   1.264  0.0282  0.0253  0.1930
21592W        W36723   7.852  13.625  16.712  0.0085  0.2128 -0.2514
21593W        W36724   3.389   7.151   1.546  0.0676 -0.1869  0.0203
21594W        W36725  15.416  13.571  10.884 -0.1924  0.1199  0.1971
21595W        W36726  13.508   1.832  13.089  0.0145  0.0574  0.1434
21596W        W36727   5.171   5.113  11.805 -0.1622 -0.0833 -0.0502
21597W        W36728   8.790   2.087  13.525 -0.0469  0.0525 -0.0096
21598W        W36729  11.044   1.753  12.071 -0.0128 -0.4216  0.1968
21599W        W36730   9.389   5.736   5.495 -0.2714 -0.2705  0.0447
21600W        W36731  11.320   1.157  11.534 -0.5475  0.2750  0.0860
21601W        W36732  17.419  15.630  16.629  0.3473 -0.0927  0.2546
21602W        W36733   8.065   3.181  15.518 -0.1221 -0.1028 -0.0391
21603W        W36734   3.025  15.598   1.428  0.1509 -0.1277 -0.0263
21604W        W36735   6.359   7.028  11.167  0.1091 -0.1053 -0.0361
21605W        W36736  15.440  11.003  11.579  0.1185 -0.1710  0.1225
21606W        W36737   7.131   3.252  11.180  0.2102  0.2742  0.1120
21607W        W36738   9.186  10.843   5.723 -0.0310  0.0006  0.1847
21608W        W36739   2.164   6.802   5.426 -0.1446 -0.0124  0.0891
21609W        W36740  14.265   1.963   6.402 -0.2378  0.1051  0.0377
21610W        W36741  15.933  16.371  12.142  0.1435  0.1060  0.0088
21611W        W36742   5.889  16.933   3.058  0.1931  0.0143  0.0796
21612W        W36743  13.000   0.412  16.509  0.0075 -0.1045 -0.0241
21613W        W36744   1.214  15.168   4.812 -0.4171  0.0439 -0.0549
21614W        W36745  14.336   3.652  14.435 -0.1562 -0.0905  0.0067
21615W        W36746   7.065   8.371  14.239  0.0064  0.0090  0.3862
21616W        W36747  14.310   6.802  13.563 -0.1053 -0.1560 -0.0017
21617W        W36748  10.933  17.225  15.318  0.0032 -0.1218  0.2695
21618W        W36749  14.906   3.435   1.201  0.1058  0.1323  0.0107
21619W        W36750   6.072   8.349   4.376  0.0263  0.0630  0.0313
21620W        W36751   8.428   1.325  12.407 -0.0296  0.0343 -0.3009
21621W        W36752   9.001   1.152   2.013 -0.0616  0.2143  0.1129
21622W        W36753   8.014  16.746   0.286 -0.0150  0.0540  0.0973
21623W        W36754   0.666   3.823   2.874 -0.1792 -0.1982  0.0052
21624W        W36755   0.827   3.300   4.964 -0.1260  0.3907 -0.2437
21625W        W36756  15.082  12.986  15.645  0.1304  0.2196 -0.3975
21626W        W36757   5.111   9.218   0.217  0.2030 -0.1526  0.0416
21627W        W36758   9.357  17.233  13.081  0.0146 -0.0428  0.0549
21628W        W36759   3.752  13.508  14.770 -0.1521  0.0869  0.2734
21629W        W36760  13.880  10.121   0.788  0.0867 -0.1334 -0.2269
21630W        W36761   6.870   6.397  14.282 -0.0599  0.2935  0.0108
21631W        W36762   0.699   8.401  14.241 -0.0450 -0.0743  0.1711
21632W        W36763   9.617   0.244   3.325  0.1595  0.0306  0.0340
21633W        W36764  14.818  15.148   3.385 -0.1505 -0.3719 -0.1334
21634W        W36765   0.798  15.239   1.531 -0.3772  0.1687  0.1223
21635W        W36766  14.044   8.695  15.230  0.0328  0.1411  0.1824
21636W        W36767   1.571   3.228  12.592  0.0141 -0.0176  0.0077
21637W        W36768   9.278  14.638   0.521  0.0281  0.0721 -0.3048
21638W        W36769   7.142  12.043  14.815 -0.0748  0.0249  0.0349
21639W        W36770   3.441   9.296   1.236  0.2128 -0.1326 -0.1239
21640W        W36771   5.978  11.309   1.039 -0.0068  0.0438 -0.1009
21641W        W36772  12.358  10.841   2.467 -0.0036 -0.3324  0.1801
21642W        W36773  14.414  16.374   4.902  0.1315 -0.0993  0.1520
21643W        W36774   2.364  13.234   3.628 -0.1641  0.0628 -0.3409
21644W        W36775   8.571   0.058  14.071 -0.0606  0.2715  0.2410
21645W        W36776   7.188   5.549   3.398 -0.1948  0.1259 -0.1695
21646W        W36777  16.354   2.819   4.010  0.0148  0.0648  0.1019
21647W        W36778   9.255   7.409  13.231 -0.0105  0.3001  0.2712
21648W        W36779   0.597  17.695   4.395 -0.0903 -0.1996  0.3669
21649W        W36780   6.262  10.047  15.345  0.1735 -0.2154  0.2280
21650W        W36781  14.620   1.107   5.816  0.0757  0.2218  0.2095
21651W        W36782  17.711   6.460   1.338 -0.0788  0.1501  0.0332
21652W        W36783  17.644   4.156  14.827  0.1945  0.0958 -0.1538
21653W        W36784  15.501  15.804  16.115 -0.0285 -0.1152 -0.0050
21654W        W36785  10.043   3.808  13.116  0.3195 -0.0353 -0.0030
21655W        W36786  11.620   3.751   2.134 -0.0186 -0.2236  0.2568
21656W        W36787   6.089  14.515   4.927 -0.0891 -0.4687  0.0918
21657W        W36788  16.976   3.212  12.843 -0.1786  0.0486 -0.0189
21658W        W36789  16.727   4.129   0.176  0.2950 -0.2014 -0.1387
21659W        W36790  17.448   7.549   3.675  0.2622  0.0507  0.1647
21660W        W36791   5.713   0.453   1.504 -0.1873 -0.1692 -0.3183
21661W        W36792   5.745  12.591  12.481 -0.0852  0.2434 -0.3602
21662W        W36793  11.778  14.434   2.510  0.0413 -0.1437 -0.0878
21663W        W36794   3.279  16.762   3.758 -0.2089 -0.0090 -0.0159
21664W        W36795  13.532  12.181   1.260  0.1634  0.1936  0.0519
21665W        W36796   9.669   4.364   4.381 -0.0858 -0.1220  0.1388
21666W        W36797   9.744   5.919  12.477  0.1003 -0.0856 -0.2888
21667W        W36798  11.340  14.134  13.175  0.0206  0.0824 -0.0287
21668W        W36799   6.680  15.188   2.418 -0.0688 -0.0152  0.1022
21669W        W36800  15.317  17.087  14.871 -0.2236  0.0737 -0.1757
21670W        W36801  15.377  14.760   2.781 -0.4379 -0.3900 -0.1991
21671W        W36802  16.941   4.343   0.605 -0.1065 -0.1864 -0.0300
21672W        W36803  11.556  14.788   0.983 -0.2208 -0.0636  0.1510
21673W        W36804  14.467   2.914  14.071  0.0625 -0.1666 -0.3313
21674W        W36805  17.030  13.381   6.020 -0.0955  0.3476 -0.1487
21675W        W36806   1.310   1.821   3.241 -0.2528  0.0371 -0.1770
21676W        W36807   5.189   0.977  15.806 -0.2393  0.2407  0.2127
21677W        W36808   7.663   7.676  13.434 -0.2545 -0.0042  0.2472
21678W        W36809   9.487  11.804  10.774  0.0274  0.1874 -0.0376
21679W        W36810  10.554  13.041   2.704 -0.2466 -0.0749 -0.3424
21680W        W36811   4.735  13.844   2.464  0.1099 -0.3109 -0.1369
21681W        W36812   7.889  14.397   2.581  0.0522  0.3544  0.0437
21682W        W36813   5.223   7.851  13.899 -0.1456 -0.2551 -0.3198
21683W        W36814   5.377   4.841   4.164  0.2197 -0.1959 -0.0426
21684W        W36815  15.456  12.243  15.036 -0.1723 -0.1836  0.1825
21685W        W36816  17.844   6.958  16.297 -0.1545  0.0529  0.0330
21686W        W36817  16.366  11.912  12.786  0.0236 -0.1592  0.0766
21687W        W36818   3.911  10.067   0.346 -0.0179  0.1321 -0.3645
21688W        W36819   4.801  11.710  12.399  0.1331 -0.2190 -0.0156
21689W        W36820   6.759   2.352  10.858 -0.0764 -0.1128 -0.0696
21690W        W36821   7.048  17.222   3.703  0.1092 -0.3334 -0.1155
21691W        W36822   5.315   6.524   1.628  0.2916 -0.0728  0.0508
21692W        W36823   1.298  14.945   2.787 -0.1265  0.1163  0.0278
21693W        W36824   2.744  12.934   2.909 -0.1270  0.0583  0.0970
21694W        W36825  10.688  12.711  14.172  0.1773  0.1439  0.5012
21695W        W36826   3.305  16.178  14.809 -0.1338  0.0773  0.0289
21696W        W36827   2.460   9.202   2.801 -0.0802  0.2420  0.0013
21697W        W36828   3.384   7.811  11.947  0.1524  0.0306 -0.1563
21698W        W36829  10.609  14.555   1.884 -0.0686  0.1507 -0.0066
21699W        W36830  16.221   2.346  14.689  0.0058 -0.1319 -0.1939
21700W        W36831  11.175   5.993  15.699  0.2298  0.0252  0.1147
21701W        W36832   4.072   2.843  11.499  0.0739  0.2525  0.0982
21702W        W36833  17.645   9.657  12.618  0.1823 -0.0717  0.2784
21703W        W36834  13.427  14.556   1.365 -0.4057  0.0374  0.4044
21704W        W36835   2.015   7.979  14.132  0.3106  0.1299 -0.2537
21705W        W36836   9.658   6.138  15.356 -0.1523  0.1070  0.0471
21706W        W36837   5.291   2.481  11.810 -0.0740  0.1260 -0.1282
21707W        W36838   1.943   5.260   5.598 -0.1693  0.0093  0.0785
21708W        W36839  16.409   5.547  11.125 -0.0171  0.1958 -0.0149
21709W        W36840   6.260   8.285  12.505  0.1385 -0.1464  0.0079
21710W        W36841  16.601   7.202   3.673 -0.0621 -0.1244  0.0087
21711W        W36842  10.440  12.742   1.859 -0.4912 -0.2089 -0.1207
21712W        W36843   9.296  15.269   1.357  0.2008 -0.1130  0.1410
21713W        W36844   9.581  10.646  16.212 -0.1248 -0.2028  0.0704
21714W        W36845  15.866   4.016  12.138 -0.1204 -0.0019  0.0362
21715W        W36846   2.816  14.998   2.859 -0.0525 -0.0806 -0.0915
21716W        W36847   7.818  14.938  12.768  0.0301  0.0270 -0.0027
21717W        W36848  13.053  17.878  14.746  0.2606  0.1054  0.0915
21718W        W36849   0.816  10.008  11.098 -0.2531 -0.2256  0.1917
21719W        W36850   2.914  16.247  13.008 -0.2817 -0.0020  0.3949
21720W        W36851   1.192  10.356  10.953  0.1321 -0.0324 -0.2442
21721W        W36852   7.866   0.023  12.021 -0.0549 -0.2890  0.0637
21722W        W36853   2.999   3.547  16.744 -0.0979 -0.2000 -0.1729
21723W        W36854   2.257   2.126  16.305 -0.0929  0.2514 -0.1453
21724W        W36855  11.888  10.735   0.473 -0.3352 -0.3924  0.1042
21725W        W36856   5.657  17.390   5.570 -0.2246  0.3186 -0.1951
21726W        W36857   7.570   6.109  11.905 -0.1819  0.0160  0.2868
21727W        W36858  16.856  12.956   5.670 -0.2377 -0.2266  0.2469
21728W        W36859  15.080   0.785   4.805  0.0504 -0.2999 -0.0499
21729W        W36860   6.726   4.678   4.180 -0.2320 -0.1217 -0.2432
21730W        W36861  17.241   3.543   3.436  0.0590 -0.2624 -0.2224
21731W        W36862   9.813   0.488  16.431  0.0026  0.1171 -0.4562
21732W        W36863   8.098   3.682  15.310 -0.0799 -0.1317  0.0948
21733W        W36864  11.089   2.416   4.151  0.1543 -0.0225  0.1301
21734W        W36865   0.527  10.976  11.598  0.0339  0.2213  0.1192
21735W        W36866   1.789  16.648   3.272 -0.1292 -0.2685  0.3788
21736W        W36867   3.100  15.972  15.214 -0.2567 -0.1111 -0.0640
21737W        W36868  14.395   4.953   2.176 -0.1562 -0.2415  0.0079
21738W        W36869   7.824  11.561   4.342  0.0404 -0.1158 -0.0012
21739W        W36870  10.395  11.765  13.126  0.0823  0.0433 -0.0260
21740W        W36871  11.865  12.829   0.212  0.0015 -0.2198  0.0149
21741W        W36872  14.096  12.057  15.922  0.1253  0.2176 -0.2077
21742W        W36873  13.382   6.734   4.458  0.0306 -0.0365  0.1804
21743W        W36874   9.534   4.030   0.453  0.2029 -0.0273  0.0255
21744W        W36875  13.304   0.582  11.995  0.0711 -0.1122 -0.1329
21745W        W36876  13.821  13.216   3.526  0.0123 -0.0350 -0.5749
21746W        W36877  14.789   6.661  15.744 -0.1005 -0.0933 -0.0264
21747W        W36878  15.256   6.431  15.571 -0.0315 -0.3082 -0.0025
21748W        W36879  15.844  17.346   4.213 -0.1137 -0.1461 -0.0794
21749W        W36880   8.620   9.095  15.294  0.0139 -0.0414  0.1335
21750W        W36881  11.504   6.954  15.935  0.2334 -0.4827 -0.2398
21751W        W36882  11.368  13.731  14.773 -0.0708  0.1297  0.1755
21752W        W36883   2.911   7.354  13.284  0.1826  0.0904  0.0098
21753W        W36884   8.510   3.294   0.286  0.4474 -0.3043  0.0295
21754W        W36885  10.470  16.274   5.510  0.0232  0.3675  0.2053
21755W        W36886   0.738  16.005  12.289 -0.2091 -0.1101  0.0841
21756W        W36887   6.730  16.892   2.927 -0.2399  0.1197 -0.1490
21757W        W36888   4.726   3.878  15.138 -0.0611  0.0801  0.4555
21758W        W36889  16.184   6.411  12.719 -0.0111 -0.2482  0.2723
21759W        W36890  10.559  17.145  15.754 -0.0748 -0.2652  0.0384
21760W        W36891   0.942   1.415   1.441 -0.3963  0.4438  0.0607
21761W        W36892   5.323   5.948   2.309  0.1564 -0.1937  0.1816
21762W        W36893   3.012  12.126   2.649  0.2486 -0.2163 -0.2357
21763W        W36894   6.993  13.076  16.749  0.0737 -0.1707 -0.2500
21764W        W36895  12.036   3.041   4.931 -0.0304 -0.0468 -0.0396
21765W        W36896  10.874   4.145   4.998  0.1005 -0.0096  0.3135
21766W        W36897   6.957  10.130  15.989 -0.2019  0.0050 -0.0755
21767W        W36898  13.110  13.921  11.940 -0.2001 -0.1079  0.0723
21768W        W36899  10.651  11.690  16.442 -0.1029  0.2447 -0.0812
21769W        W36900  11.952   1.612   4.029 -0.1364 -0.0398 -0.1512
21770W        W36901   5.301  17.835  16.580  0.1743  0.1475 -0.2527
21771W        W36902  17.617   9.559  15.341 -0.1507 -0.0017 -0.0468
21772W        W36903  11.703  12.392   0.476  0.1922 -0.1372  0.0609
21773W        W36904   4.389   2.424   5.103  0.1974  0.1573 -0.0137
21774W        W36905  14.265   8.324  13.222 -0.1192  0.2586 -0.0499
21775W        W36906  10.600   3.380  11.589  0.0076  0.1491  0.3018
21776W        W36907  14.961   5.057  11.130 -0.4320  0.3522  0.2931
21777W        W36908  14.880   4.036  16.603 -0.0541  0.2392  0.2542
21778W        W36909   8.324   7.997   3.069 -0.1500 -0.1227 -0.1319
21779W        W36910   0.128   6.081   0.976 -0.2569 -0.2261 -0.0144
21780W        W36911  10.254   9.987  12.269 -0.1290 -0.2158  0.0824
21781W        W36912  11.187  14.799   6.024 -0.1450  0.1405  0.0347
21782W        W36913  12.100   4.538   1.408 -0.0156  0.0259  0.0694
21783W        W36914   3.431  14.220  15.447 -0.1024 -0.1814 -0.3184
21784W        W36915  10.570   9.107   3.912  0.0499  0.4171  0.0972
21785W        W36916  10.137  12.396  16.276  0.2623  0.2100  0.0114
21786W        W36917   4.245  13.759  16.415 -0.1494  0.4350 -0.1032
21787W        W36918  13.477  15.886   0.202 -0.3195  0.1005  0.1950
21788W        W36919  15.125  10.804   4.082 -0.3516  0.0287 -0.2119
21789W        W36920   4.850   7.370   1.643  0.0678 -0.1942 -0.0706
21790W        W36921   1.959  11.259   5.272  0.0707  0.1165  0.0187
21791W        W36922  14.485   0.876  12.005 -0.4108  0.0823 -0.0685
21792W        W36923  13.483  14.019   2.961 -0.1196 -0.0262 -0.1137
21793W        W36924   9.677   8.853  16.638  0.1091 -0.2287  0.4840
21794W        W36925   0.577  10.464  11.887  0.1121  0.1305 -0.0480
21795W        W36926   9.055  12.990   4.328 -0.1233  0.0120  0.0346
21796W        W36927  13.723  10.611  11.812 -0.1259 -0.1259  0.0747
21797W        W36928  10.110   6.384   3.442 -0.1251 -0.0638 -0.0835
21798W        W36929   7.520  15.437  11.589  0.1552 -0.1431  0.1085
21799W        W36930   4.819   1.704   6.339  0.0926 -0.1042 -0.3438
21800W        W36931   6.708   2.580   0.713  0.2949  0.2046 -0.0817
21801W        W36932   6.302   8.848  13.270 -0.1768  0.2294  0.2674
21802W        W36933   3.212   6.037   3.624 -0.0976 -0.1241  0.0749
21803W        W36934  10.974   0.182   0.328  0.0673 -0.2603  0.2265
21804W        W36935   9.111   3.253   3.813  0.3534 -0.0481  0.0112
21805W        W36936  12.037  15.070   4.014 -0.1925  0.0019  0.1050
21806W        W36937   7.352   6.381  10.651 -0.1051  0.0046  0.0712
21807W        W36938   9.182  12.718   5.377 -0.3324  0.2399 -0.0428
21808W        W36939   3.619   0.450   1.494 -0.1833  0.2276  0.0923
21809W        W36940   0.630  14.055   2.549 -0.2513  0.1076 -0.1450
21810W        W36941   5.951   7.121  12.115  0.3829 -0.0247  0.0082
21811W        W36942  17.720  17.341   0.875 -0.2087  0.0331 -0.1102
21812W        W36943   4.829  10.812  16.450 -0.2133 -0.1377 -0.0165
21813W        W36944   1.462  13.566   5.585  0.0265 -0.1224 -0.0900
21814W        W36945   8.727  17.632  11.210  0.0305 -0.2034  0.1172
21815W        W36946   5.348   4.059   0.173  0.0112  0.0304 -0.0567
21816W        W36947   3.318  14.709   0.585 -0.1702  0.0259 -0.3695
21817W        W36948   4.354   5.795   0.687 -0.0404 -0.1710 -0.2586
21818W        W36949  13.422  16.481  13.698 -0.0535 -0.3455 -0.0028
21819W        W36950  10.869   0.440   5.548  0.3097  0.3878  0.0273
21820W        W36951   3.113  17.783  14.011 -0.0293 -0.1936  0.1698
21821W        W36952  13.953   5.836   5.293  0.2473  0.1655  0.1656
21822W        W36953   7.003  14.588  14.987 -0.2326  0.1075  0.0697
21823W        W36954   1.791   6.639   3.830 -0.2662 -0.0816  0.2796
21824W        W36955  10.865   2.671  13.434  0.1115 -0.3131 -0.0014
21825W        W36956  15.285  15.567  15.146 -0.2837  0.0207  0.2006
21826W        W36957  15.668   2.063  16.497 -0.0319  0.2973  0.3357
21827W        W36958   8.089  10.456   2.276  0.0158  0.2460 -0.0634
21828W        W36959  11.499  11.747  15.976 -0.2092  0.0279  0.2936
21829W        W36960   5.024  16.241  13.862 -0.1096  0.2267  0.0999
21830W        W36961   5.197  10.648   4.731  0.2278 -0.0199 -0.1364
21831W        W36962  15.384   1.653  10.244 -0.0777  0.0295  0.3178
21832W        W36963  16.996   6.830  14.330 -0.1994  0.2008 -0.0140
21833W        W36964  14.669  10.052   5.559  0.0696  0.0289 -0.1519
21834W        W36965  15.411   9.881  16.083  0.0776  0.1404 -0.0518
21835W        W36966  11.426  17.013   1.705  0.2864 -0.0304  0.2445
21836W        W36967   6.939   3.473  12.953 -0.0095 -0.2944  0.0621
21837W        W36968   7.828   1.157  12.784  0.1807 -0.1752 -0.1713
21838W        W36969   7.936  11.530  16.391 -0.1137 -0.3029  0.0462
21839W        W36970   7.545   6.991   2.921 -0.1748 -0.0929  0.0503
21840W        W36971  14.195   6.991  12.645 -0.1337 -0.0079  0.4729
21841W        W36972   5.175  17.333  15.718 -0.0638 -0.0006 -0.0921
21842W        W36973  13.189   2.173  15.725 -0.1428 -0.2818  0.0415
21843W        W36974  14.939  11.776   4.902 -0.0425  0.0837 -0.1855
21844W        W36975   6.993   7.151  16.136  0.3114 -0.3138 -0.1070
21845W        W36976  13.839  10.501   6.378  0.1169 -0.0064 -0.2863
21846W        W36977  13.501   5.595   5.456  0.1129 -0.2964 -0.1121
21847W        W36978  10.028  11.246  14.228  0.2436  0.1173  0.1127
21848W        W36979   0.291   6.231   2.310  0.1751  0.0317 -0.0123
21849W        W36980   3.627   5.517  11.320 -0.0938 -0.0617 -0.0020
21850W        W36981  10.305  10.408  11.302  0.0527  0.1111  0.1875
21851W        W36982  16.693   0.063   1.703  0.3921 -0.0677 -0.1156
21852W        W36983  12.157  16.389   1.737  0.1917 -0.0705  0.0759
21853W        W36984   2.400   9.241   0.577  0.2112  0.1262  0.0032
21854W        W36985   1.768  11.455  14.624  0.3011 -0.0266  0.3678
21855W        W36986   2.370  11.995   1.309  0.2688 -0.1343 -0.1328
21856W        W36987  13.647  14.553  15.284 -0.0089  0.0966  0.0489
21857W        W36988  10.034   2.725  12.269 -0.1475 -0.1857  0.0350
21858W        W36989  15.382   1.982  14.401  0.4432  0.1651 -0.2754
21859W        W36990   3.534  13.958  13.475 -0.0049 -0.1537  0.0484
21860W        W36991  17.082   5.045  14.735 -0.1164  0.2074 -0.0364
21861W        W36992  15.475   6.103   0.667 -0.0258  0.2286 -0.0521
21862W        W36993   3.763   0.203  13.604 -0.0509 -0.1803 -0.0701
21863W        W36994  11.465  12.364   2.122  0.0294  0.3955 -0.4120
21864W        W36995  10.935   3.807  16.156  0.0453  0.0506 -0.2801
21865W        W36996   2.819   0.425  15.743  0.0185  0.2115  0.1365
21866W        W36997  15.501   2.119   3.056  0.1491  0.2148 -0.1134
21867W        W36998   0.585  16.049   6.020  0.2425 -0.0713  0.2600
21868W        W36999  10.326  14.559  13.768  0.1182 -0.0506  0.2742
21869W        W37000   2.973  16.346   4.588 -0.1439  0.0634 -0.0033
21870W        W37001  10.044   2.540   0.129  0.0306  0.1497 -0.1530
21871W        W37002   3.057  16.937  11.060 -0.0429  0.2010 -0.0257
21872W        W37003  11.139  17.483   3.008  0.0919  0.0218  0.1254
21873W        W37004  13.096   8.648   6.310 -0.2897 -0.2470 -0.1475
21874W        W37005  11.084  12.919  16.573 -0.2623  0.0099  0.2325
21875W        W37006   3.685   8.818   0.249  0.1075  0.1248 -0.1379
21876W        W37007  11.877   5.221  12.318  0.1207 -0.2500  0.0110
21877W        W37008   6.074  14.477  13.824  0.0976 -0.1454  0.3843
21878W        W37009   9.558   8.314   3.767 -0.0081  0.0664 -0.0734
21879W        W37010  14.861   9.421  14.763 -0.2234 -0.0658 -0.1844
21880W        W37011  16.879  12.697  12.781 -0.2026 -0.2866  0.3326
21881W        W37012  17.339   4.580   3.602 -0.1072 -0.0870  0.2065
21882W        W37013   1.888  16.422   1.480 -0.1175  0.1016 -0.1343
21883W        W37014  15.067  14.430   0.411  0.2359 -0.1932 -0.0586
21884W        W37015   6.984   2.028  14.273  0.1606 -0.2262  0.1604
21885W        W37016  11.421   9.781   2.258 -0.2221  0.0276 -0.1928
21886W        W37017  13.925   9.724  14.241 -0.2708 -0.1279 -0.1767
21887W        W37018  16.938   0.061   3.377 -0.0931  0.0372  0.0401
21888W        W37019   4.169   0.001  13.418  0.2017 -0.1956  0.2702
21889W        W37020   1.254  12.570  15.059 -0.3147 -0.0405 -0.3481
21890W        W37021   7.842   5.422  13.357  0.1585 -0.3286  0.0342
21891W        W37022  15.072   5.737  11.351 -0.0124  0.1050  0.1184
21892W        W37023   9.471  13.189  16.517  0.3023 -0.2792 -0.2067
21893W        W37024  14.265  10.689  15.429 -0.0941  0.1774  0.3959
21894W        W37025   9.486   2.831   2.674  0.1372 -0.5738 -0.0802
21895W        W37026   0.189   7.611   2.839 -0.0017  0.3087 -0.1200
21896W        W37027  15.886  11.866   3.664 -0.3244 -0.0167 -0.3945
21897W        W37028  12.573   2.383  16.475  0.0358  0.0305 -0.0362
21898W        W37029  12.659  15.130  14.501  0.0118  0.0623  0.1335
21899W        W37030   3.108  16.518  15.147 -0.1332 -0.0046 -0.0490
21900W        W37031   9.350   7.285   5.851 -0.3137  0.2479  0.0061
21901W        W37032  17.445   5.370   3.191  0.0768  0.1200 -0.1055
21902W        W37033   2.759  11.130  11.726 -0.3996  0.1593  0.0562
21903W        W37034   0.786   7.573  11.309 -0.0724 -0.4168 -0.0692
21904W        W37035  15.499   3.625   1.172 -0.0530 -0.2427 -0.1794
21905W        W37036   1.698   2.047   5.996  0.0375  0.0821 -0.0851
21906W        W37037  16.975   9.041  16.698 -0.1117 -0.0901  0.1893
21907W        W37038  17.818  17.797   0.114 -0.1642  0.1428 -0.1961
21908W        W37039  11.110   1.479   5.030  0.2480  0.0167  0.0296
21909W        W37040   7.662   2.748  14.187 -0.0226  0.1620  0.1464
21910W        W37041   4.806   2.128   1.226 -0.3114  0.1020  0.1319
21911W        W37042   9.499  16.547   4.697 -0.5701  0.0934 -0.0324
21912W        W37043  12.332  10.271   1.351 -0.2741  0.1551 -0.1185
21913W        W37044   2.530   7.486  15.352  0.2322  0.0584  0.1510
21914W        W37045   7.849  11.303   4.792 -0.1954  0.2366  0.0621
21915W        W37046  10.574  10.736   3.535  0.0290 -0.0420  0.0200
21916W        W37047  17.160  12.278   3.068 -0.0611 -0.1904 -0.1058
21917W        W37048   2.165  13.332   3.172 -0.3236 -0.0196 -0.0660
21918W        W37049  13.922  15.741   4.661  0.2480 -0.0006  0.0548
21919W        W37050  11.201   8.707   5.437 -0.1473  0.0830  0.2302
21920W        W37051   5.119   3.588  12.647  0.0024 -0.1435 -0.1137
21921W        W37052   9.170   6.326   4.720 -0.1040  0.3424 -0.4923
21922W        W37053  14.751   4.868   3.119 -0.2645  0.3040 -0.0360
21923W        W37054   0.736   1.931   2.220 -0.0813  0.0617 -0.2840
21924W        W37055   4.132   1.423  16.596  0.0048 -0.1436  0.1645
21925W        W37056   1.614   6.708   0.906 -0.1577 -0.2041  0.1574
21926W        W37057   2.906   8.073   2.809 -0.4583 -0.0343 -0.0274
21927W        W37058  11.767  15.469  14.288 -0.1374 -0.0440  0.0187
21928W        W37059   4.124  12.895  10.684 -0.2938 -0.1536  0.0214
21929W        W37060   2.720  13.972   2.096 -0.0217  0.2038  0.1972
21930W        W37061   9.790   9.310  13.135 -0.3254 -0.1034 -0.0094
21931W        W37062  10.071  13.159   2.873 -0.0977 -0.2256 -0.1148
21932W        W37063   3.121   9.883   5.982  0.3707  0.0664 -0.0703
21933W        W37064  15.400  16.901   3.131 -0.0715  0.0220  0.1044
21934W        W37065  11.468  16.371  10.477  0.0765 -0.1623  0.2705
21935W        W37066   9.472   1.828  14.199  0.1758  0.0762  0.1330
21936W        W37067  16.888  15.286  13.592 -0.2700 -0.1431  0.1018
21937W        W37068   9.282   3.062  12.633 -0.3599 -0.1010 -0.0144
21938W        W37069   1.871   2.122   4.200 -0.0683 -0.1105 -0.0188
21939W        W37070  16.506   1.493  14.714 -0.2057  0.3420 -0.4643
21940W        W37071   3.608  12.602   1.435 -0.0102  0.1550 -0.0824
21941W        W37072   8.851   3.461   4.162 -0.1256  0.0969 -0.0119
21942W        W37073   2.901   3.959   4.859  0.2217  0.0749 -0.4119
21943W        W37074  10.589  17.239  12.899 -0.4063 -0.4665 -0.2215
21944W        W37075  11.690  11.931   2.576  0.0123 -0.1903  0.0717
21945W        W37076  15.030   1.967   2.990 -0.0660  0.1277 -0.0048
21946W        W37077  12.203  15.320  14.488 -0.1296  0.0362 -0.1334
21947W        W37078   3.021  12.496  15.632 -0.0826 -0.1648  0.0078
21948W        W37079   4.421  11.248   2.078  0.4659  0.2864 -0.0001
21949W        W37080   3.748  13.146   1.297  0.2869 -0.3154 -0.0428
21950W        W37081   5.183  13.954  14.539 -0.0176  0.0173  0.5288
21951W        W37082  12.432   9.642  12.797 -0.1455  0.2004 -0.0960
21952W        W37083  13.505   5.426  12.579  0.1907  0.2981 -0.1809
21953W        W37084   1.390   0.304  13.925  0.0299 -0.2544  0.2174
21954W        W37085  12.952   7.128  12.971 -0.3862  0.2513 -0.2519
21955W        W37086   6.362  14.812   1.660 -0.1111 -0.0097 -0.1498
21956W        W37087   3.785  10.637   4.511 -0.0492  0.0545 -0.2719
21957W        W37088  16.434   2.960   5.395 -0.0044  0.2029 -0.1350
21958W        W37089  16.460  12.002  11.761 -0.0437  0.1895  0.0867
21959W        W37090  10.382   6.967   1.106  0.1415 -0.1065  0.0413
21960W        W37091   8.005   6.366   0.008  0.0454  0.0120 -0.0592
21961W        W37092   9.370  12.339   6.669 -0.0195 -0.0784 -0.1176
21962W        W37093   7.901   5.892  12.164 -0.3184  0.0279  0.1347
21963W        W37094   0.977   0.171  16.247  0.4958  0.1324  0.0805
21964W        W37095   7.983   9.636  13.265  0.3197 -0.1703  0.0235
21965W        W37096  14.776   7.811   5.898 -0.0034 -0.2955 -0.1954
21966W        W37097   0.099  10.159   1.635  0.0357  0.0088  0.1350
21967W        W37098   7.546  13.642   5.132 -0.0020 -0.0958 -0.1862
21968W        W37099   9.320   3.479   2.149  0.0956 -0.1765 -0.3363
21969W        W37100   5.078  14.877  11.787  0.0363  0.3184 -0.1494
21970W        W37101   9.493  12.892  13.940  0.1139  0.2322  0.1235
21971W        W37102  15.576   0.902   5.022 -0.0792  0.2102 -0.1376
21972W        W37103   9.581  15.802  16.563 -0.1052 -0.3497 -0.1565
21973W        W37104   9.937  10.970  16.557  0.1382 -0.1258 -0.0797
21974W        W37105   3.994   0.446   2.329 -0.1242  0.0646  0.2317
21975W        W37106  16.928  17.603  12.299 -0.1111  0.0794 -0.0123
21976W        W37107   0.706  12.290  12.302 -0.2622  0.0115  0.2679
21977W        W37108   1.278  12.558   5.456  0.0670  0.0691 -0.3206
21978W        W37109   1.914  13.008   2.863 -0.1534  0.0061  0.0508
21979W        W37110   0.251   6.832  11.872  0.0201 -0.0066 -0.2622
21980W        W37111   5.711  10.655  13.703 -0.2884 -0.1383  0.2587
21981W        W37112  16.085  12.620   4.267 -0.3200 -0.2449 -0.4382
21982W        W37113   8.818   1.105  13.957 -0.2402 -0.1045 -0.4735
21983W        W37114   5.349  17.426   4.130 -0.0513 -0.0739  0.0723
21984W        W37115  12.801   3.304  15.190  0.1218  0.2252  0.3146
21985W        W37116   1.762  11.411  15.907  0.3001  0.2602  0.4079
21986W        W37117   0.982   2.193   2.535 -0.1510  0.0482 -0.1204
21987W        W37118  16.382  10.122  16.235 -0.1396 -0.1390 -0.0725
21988W        W37119   7.790  16.627   2.599 -0.3875  0.2895 -0.2361
21989W        W37120   4.045  12.140   4.831  0.0412  0.2856 -0.0542
21990W        W37121   8.194   2.156  11.074 -0.2739  0.2845 -0.3557
21991W        W37122   8.386   5.079  11.234 -0.2025 -0.0911  0.0366
21992W        W37123  14.203   0.536  13.276  0.0854 -0.3453  0.0300
21993W        W37124   8.475  16.792   4.527  0.3437 -0.2601 -0.2805
21994W        W37125   0.679  14.926   4.117 -0.0244 -0.1820 -0.0783
21995W        W37126  14.589   4.805   3.951  0.0788  0.0691  0.2059
21996W        W37127   1.749   4.176   2.066 -0.1645 -0.0439  0.1484
21997W        W37128   1.729   4.149  13.145  0.3650  0.1022 -0.0557
21998W        W37129  16.875   4.340   3.593 -0.1219 -0.4058  0.4055
21999W        W37130  12.459   8.379  13.549 -0.0091 -0.1729 -0.1655
22000W        W37131   2.323  11.905   5.243 -0.3544  0.3243 -0.0994
22001W        W37132   6.164  15.329   0.905  0.1281 -0.1753  0.2120
22002W        W37133  10.959   8.668  16.435 -0.1643 -0.2833  0.1336
22003W        W37134   3.032   2.390  12.257  0.0483  0.0430  0.0042
22004W        W37135   8.928   0.401  12.563  0.1816  0.0240 -0.2297
22005W        W37136  16.825   9.994  15.550  0.0602  0.0055  0.0280
22006W        W37137  14.603   4.567   5.339 -0.0767  0.1748  0.0847
22007W        W37138   5.337   3.173  13.128  0.2829 -0.0918 -0.0605
22008W        W37139   8.569   8.083   6.072  0.0249 -0.3693 -0.0119
22009W        W37140  11.162   7.139  15.199 -0.2026 -0.1202  0.1132
22010W        W37141   8.594  15.194  12.858 -0.0075 -0.0720 -0.2422
22011W        W37142   8.973  15.143  14.364 -0.0491  0.1001 -0.0250
22012W        W37143   6.552   8.670   2.606  0.1113  0.3131 -0.1501
22013W        W37144  17.019   6.194   1.369  0.0315  0.2960  0.2424
22014W        W37145   4.034   2.281  14.806  0.0556 -0.0433 -0.0554
22015W        W37146   9.049   1.268  12.371  0.1146 -0.3520 -0.3070
22016W        W37147   1.212   7.633  11.751  0.0520  0.0630  0.1427
22017W        W37148  14.999   5.405   3.862 -0.2462 -0.2083  0.1893
22018W        W37149   9.969  11.454   4.032  0.3381 -0.1700  0.0409
22019W        W37150  10.614  13.895  15.659 -0.2052 -0.0665 -0.2230
22020W        W37151  13.676   3.326   3.397  0.1736 -0.2529 -0.2647
22021W        W37152  10.619  10.923   2.012  0.1635 -0.0586 -0.1149
22022W        W37153   9.425   8.810   4.452  0.1898  0.0536 -0.2716
22023W        W37154   1.254   3.520  13.769 -0.0871  0.1245  0.0676
22024W        W37155  10.980   9.133   3.679 -0.1133  0.0569  0.2033
22025W        W37156  12.367   6.301  11.976  0.0862 -0.0569 -0.0151
22026W        W37157   2.353  13.144  15.212 -0.0303 -0.0372  0.0037
22027W        W37158   1.898  13.488   3.665 -0.1323 -0.0919 -0.1625
22028W        W37159  17.215  16.009   3.342  0.1044 -0.3080 -0.0459
22029W        W37160   6.925   8.205   1.187  0.1126 -0.0503 -0.1963
22030W        W37161   9.977  11.228  11.980  0.0368  0.0954  0.2478
22031W        W37162   9.171   3.792   0.148 -0.1080  0.1302 -0.0410
22032W        W37163   3.919   8.906   5.104  0.0169  0.1189 -0.1364
22033W        W37164  11.025   4.718  12.741 -0.2488  0.0537  0.3732
22034W        W37165   5.560   6.661  13.693  0.2322 -0.0453  0.2540
22035W        W37166   8.367   6.428  13.547  0.1547  0.0935 -0.0358
22036W        W37167   0.908   5.310  11.414 -0.1844  0.1099 -0.0070
22037W        W37168   0.988   9.486  13.981  0.1327  0.0087  0.1610
22038W        W37169   2.282   9.715  11.721  0.1235 -0.0222 -0.0292
22039W        W37170  17.759   5.860   4.408  0.0449  0.3272 -0.1174
22040W        W37171   5.905  17.821  11.357  0.0705  0.5470  0.1031
22041W        W37172   1.612   1.793   6.432 -0.1972 -0.1829  0.1240
22042W        W37173   8.894  13.494  13.480  0.1194  0.1636  0.0541
22043W        W37174  17.272   1.534   4.489  0.0066  0.3220  0.0638
22044W        W37175  17.536   2.252  13.639 -0.0290 -0.1182  0.0138
22045W        W37176  11.981  14.345   4.554 -0.0451  0.1601 -0.1616
22046W        W37177   1.368   3.033   4.113 -0.0656  0.0774  0.1561
22047W        W37178   6.892   7.908  15.277 -0.0678 -0.0038  0.2162
22048W        W37179   6.589   8.880   4.663 -0.1635  0.1244 -0.2220
22049W        W37180  12.865   1.511  10.510  0.1446  0.2386  0.1315
22050W        W37181  10.764  12.728   2.362  0.1549 -0.3824  0.2269
22051W        W37182  12.636  11.051   5.421  0.0148  0.0044  0.1661
22052W        W37183   0.836   9.746  14.442 -0.2171  0.0343 -0.0721
22053W        W37184   4.757   9.516   4.112 -0.4023  0.1016  0.1714
22054W        W37185   1.058   6.936   2.813 -0.0478 -0.1147  0.1281
22055W        W37186  10.850  12.728   4.447  0.0444 -0.1669  0.0461
22056W        W37187   4.432  11.339  15.723 -0.0491  0.0573  0.3103
22057W        W37188  17.213   4.988   2.912 -0.0370 -0.0288 -0.2735
22058W        W37189   4.700   8.456  14.105  0.1434  0.1371 -0.0953
22059W        W37190  15.397  17.163   1.073  0.2504 -0.0209  0.2626
22060W        W37191  17.518  15.058   1.576  0.0255  0.1355 -0.4244
22061W        W37192   3.248   6.679  13.382  0.3083 -0.1127  0.3048
22062W        W37193   8.150   5.139   2.550  0.1253  0.1045  0.0462
22063W        W37194   4.956   1.029   1.103 -0.1242 -0.0829 -0.0572
22064W        W37195   0.564   2.627   4.364  0.0757 -0.2963  0.0372
22065W        W37196  14.302   3.017   2.121 -0.0183  0.1486 -0.2341
22066W        W37197  12.528  16.348  13.037  0.5466 -0.0560 -0.5097
22067W        W37198  14.736   5.643  13.758 -0.1383 -0.0040  0.2674
22068W        W37199   7.838   0.383  13.423  0.0388 -0.2041 -0.0882
22069W        W37200  15.269  14.775   2.048 -0.0269 -0.2282 -0.1605
22070W        W37201   7.646  15.979   3.982  0.0044  0.1566 -0.2785
22071W        W37202   3.253  14.042   5.109  0.1104  0.2099  0.0131
22072W        W37203  13.348  10.630  15.254 -0.0947  0.2918 -0.1454
22073W        W37204   4.863   3.533   2.127  0.0230 -0.1558 -0.1382
22074W        W37205   9.125   5.935   1.841  0.3464 -0.1598 -0.0902
22075W        W37206  15.953  14.088   2.454 -0.1549 -0.6089 -0.2317
22076W        W37207  17.193  11.073  14.277  0.1481 -0.1813  0.2117
22077W        W37208  12.865   6.192   2.626  0.0200 -0.1842 -0.0675
22078W        W37209   1.919   7.486   3.688  0.2519  0.0474 -0.0932
22079W        W37210  13.960   9.080  15.639 -0.0921  0.0446  0.1053
22080W        W37211   7.244  11.892  16.078  0.0016 -0.0674  0.0115
22081W        W37212   4.589   6.384  13.169  0.0576  0.0085 -0.2245
22082W        W37213   3.184   5.679   0.925 -0.1275  0.0313 -0.0299
22083W        W37214   8.180   7.933   2.321  0.1131  0.0792 -0.3028
22084W        W37215   6.605   5.206   6.261 -0.1450  0.0061 -0.1659
22085W        W37216  10.506   1.950   1.917 -0.2878  0.0021 -0.1347
22086W        W37217   0.913   0.722  14.696 -0.0955 -0.0680 -0.1944
22087W        W37218   3.383   7.321  14.115 -0.0851  0.0296  0.1096
22088W        W37219   6.207   0.585   0.724  0.0482 -0.2093 -0.1283
22089W        W37220   7.396   0.700  12.208 -0.0575 -0.0124 -0.0532
22090W        W37221  17.649  17.424   4.183 -0.2633 -0.1611  0.0198
22091W        W37222  13.592   1.517   5.401  0.3419 -0.0454  0.1327
22092W        W37223  11.008   9.435  12.978 -0.2556  0.0498  0.1051
22093W        W37224   0.495   2.742   1.686  0.2199 -0.1402  0.0880
22094W        W37225  13.716  11.582  12.385  0.1033  0.2867  0.0858
22095W        W37226   9.998  11.454   1.643 -0.1405  0.0776 -0.3061
22096W        W37227  14.401  10.302   2.997 -0.1958 -0.0541 -0.0964
22097W        W37228  12.545   0.094  12.411 -0.3148  0.0248 -0.1431
22098W        W37229  10.787   0.968  13.921 -0.1938 -0.0969 -0.0787
22099W        W37230  11.862   7.365   5.384 -0.2388  0.2547 -0.1864
22100W        W37231   5.865   8.710   6.188  0.1611 -0.0272 -0.3444
22101W        W37232   6.791   1.118   1.859 -0.1686 -0.1350  0.0912
22102W        W37233   1.031   3.236  15.804  0.0233  0.1594  0.3305
22103W        W37234  11.873   4.877  13.772 -0.1331  0.1123 -0.1623
22104W        W37235  16.484   7.294   0.463 -0.2804 -0.0158  0.1438
22105W        W37236   0.284   3.055   4.286 -0.1826  0.2373  0.0952
22106W        W37237   8.595   5.261   2.717 -0.0169  0.2062 -0.1270
22107W        W37238   9.375   7.442   5.200  0.1546  0.3117  0.0799
22108W        W37239   1.197   9.142   5.413 -0.1255 -0.2087 -0.1236
22109W        W37240   0.778   7.510  16.369 -0.1526 -0.3071 -0.0284
22110W        W37241  11.585  13.041  13.930  0.1082 -0.1395 -0.0314
22111W        W37242  17.691   1.484  14.779 -0.0254  0.0052  0.1606
22112W        W37243  16.044   1.932   4.515 -0.0007  0.0958  0.0831
22113W        W37244   8.457   7.076   4.937  0.1976  0.1059 -0.1514
22114W        W37245   1.466  14.431  12.261  0.0304 -0.3252 -0.0358
22115W        W37246   4.404   6.560   5.335 -0.0091 -0.1920  0.0746
22116W        W37247   4.737  16.843  13.891  0.3032 -0.2216  0.1851
22117W        W37248   6.572  11.614   4.456  0.2878  0.2365  0.1142
22118W        W37249  10.380   9.677  15.066  0.1916  0.1034 -0.3263
22119W        W37250   5.256   5.613   0.686  0.1144 -0.0191 -0.1530
22120W        W37251   7.547  16.266   6.081  0.0861  0.0218  0.0723
22121W        W37252   7.045   5.970  13.342  0.0651  0.0806 -0.0120
22122W        W37253   7.145  11.145   0.042 -0.3038 -0.0335 -0.2164
22123W        W37254  14.773   1.831   2.312 -0.1725 -0.1258 -0.1089
22124W        W37255   5.698  14.151  16.520 -0.1421 -0.3925 -0.0700
22125W        W37256  13.343   1.266   3.049  0.2242  0.0129  0.0618
22126W        W37257  11.372   1.369  15.020 -0.1334  0.2755  0.1460
22127W        W37258  16.379  16.203  12.224 -0.0742 -0.1861  0.2246
22128W        W37259   1.815  16.346  12.207  0.5559  0.3147 -0.0319
22129W        W37260   3.516  17.021   6.536  0.0095 -0.0810 -0.2368
22130W        W37261  13.497  12.964   3.176  0.1570 -0.0480 -0.0895
22131W        W37262   9.494   4.026   3.578 -0.0040 -0.0337  0.1190
22132W        W37263  14.345   8.838  14.884 -0.0058 -0.4247  0.2713
22133W        W37264  10.140   8.218  11.412  0.0854 -0.2562 -0.0983
22134W        W37265  15.278   5.155   4.665  0.0467  0.1404  0.0604
22135W        W37266   7.862   4.501   3.056 -0.0173 -0.1069 -0.1406
22136W        W37267  17.074  15.916   0.519 -0.0175  0.0798  0.2515
22137W        W37268  16.307  14.901  14.165  0.0080  0.0075 -0.1576
22138W        W37269   7.687  14.330  10.431 -0.1141  0.1879 -0.0894
22139W        W37270  12.306   7.665   6.071 -0.0634 -0.2525  0.0950
22140W        W37271  10.636   7.447  12.912  0.1638  0.2020  0.0741
22141W        W37272   7.703  16.696   3.114  0.2448  0.1216 -0.1965
22142W        W37273  13.278  14.320  12.968  0.0151  0.0156  0.0827
22143W        W37274  15.836  17.343  12.866 -0.3282 -0.0435 -0.0966
22144W        W37275   2.772  10.063  15.137  0.1279 -0.1052  0.2949
22145W        W37276   3.612   5.939  13.229 -0.2837  0.2697  0.3531
22146W        W37277  11.963  11.925   1.272  0.0694 -0.1338 -0.0163
22147W        W37278  11.300  12.857   0.626 -0.2001 -0.0587 -0.2784
22148W        W37279   6.428   2.589   2.599 -0.0935  0.3091 -0.1460
22149W        W37280   3.652  17.722  14.374  0.2205  0.0352  0.1107
22150W        W37281   0.486  14.609  15.203 -0.0445 -0.1511  0.1251
22151W        W37282  10.477   2.119   5.006 -0.1698 -0.0999  0.0694
22152W        W37283  11.229   2.363  14.792  0.1988  0.3551  0.0768
22153W        W37284   9.451  10.028   2.716  0.1853 -0.0112  0.0132
22154W        W37285   0.251   9.620  13.583  0.0877  0.2008  0.1568
22155W        W37286  12.361   7.865   1.986 -0.2824 -0.1113 -0.0832
22156W        W37287  12.456  12.338   5.673 -0.0662 -0.1640 -0.0290
22157W        W37288   5.227  16.865   0.719  0.0447 -0.0843 -0.1836
22158W        W37289  15.445  16.324  15.824 -0.0720 -0.1894 -0.0712
22159W        W37290   5.965   4.638   4.238  0.3307  0.0998  0.0832
22160W        W37291   2.230  16.058   2.173  0.4548 -0.1313  0.0482
22161W        W37292   7.559   2.343   3.720  0.0077  0.0797  0.0925
22162W        W37293  10.074  14.541   0.589 -0.4591 -0.1395 -0.2204
22163W        W37294  11.758   9.349  15.614 -0.2150  0.0164  0.0444
22164W        W37295   8.947  13.566   3.256 -0.0352 -0.3697 -0.1749
22165W        W37296   4.586   6.220  15.075  0.1619 -0.0323 -0.0359
22166W        W37297   5.411  15.252  12.472 -0.1138 -0.2156  0.1714
22167W        W37298   7.073   3.915   2.978 -0.0931 -0.0270  0.1013
22168W        W37299  16.715   0.888   2.907  0.0747  0.1276 -0.1462
22169W        W37300  10.383   5.576  13.885 -0.2032 -0.0165  0.0264
22170W        W37301  16.550   3.325  13.149 -0.1624 -0.1075 -0.1370
22171W        W37302   1.709   5.919  11.831 -0.2555 -0.1024 -0.1574
22172W        W37303   7.564   6.742  15.639 -0.0723 -0.1005 -0.1605
22173W        W37304  10.344   9.298  13.759 -0.0247  0.2481  0.2176
22174W        W37305   4.721   1.762   4.621  0.3096  0.2858  0.0169
22175W        W37306  13.435   5.054  15.869 -0.0329  0.1059  0.4994
22176W        W37307  15.861  10.411   2.190 -0.3388  0.2706  0.1863
22177W        W37308  12.883   9.362   0.713 -0.0384  0.1167 -0.3711
22178W        W37309  15.771   1.422   1.419 -0.4371 -0.0426  0.1736
22179W        W37310  15.193  12.453   4.501 -0.1547  0.0342 -0.0159
22180W        W37311  10.617   4.578  14.750  0.1062  0.0876 -0.2469
22181W        W37312   1.052  16.699   1.147  0.2255 -0.2985 -0.0128
22182W        W37313   2.038   2.249   2.623  0.2287  0.5609  0.0976
22183W        W37314   7.967   0.346  11.560 -0.1185  0.0309 -0.1571
22184W        W37315   0.083  17.047   1.195 -0.2018 -0.3140  0.0951
22185W        W37316  12.728  17.014   3.634  0.0234  0.0300 -0.3327
22186W        W37317   8.422   6.561  13.068  0.1110  0.1527  0.3202
22187W        W37318   7.373  10.931  12.737 -0.0081  0.4363  0.2711
22188W        W37319  17.828  17.018  13.538 -0.1377  0.1249 -0.0687
22189W        W37320   4.292  13.274  14.109 -0.0096  0.0309  0.1548
22190W        W37321  10.521  12.521   2.704 -0.0421 -0.4006 -0.0053
22191W        W37322   6.827  17.812  14.625 -0.3601 -0.0936 -0.2251
22192W        W37323  14.740   8.301   5.644  0.0815  0.1789  0.0087
22193W        W37324   3.646  10.592   5.479 -0.1239 -0.2055  0.4011
22194W        W37325  11.532   5.861   1.503 -0.2549 -0.2058  0.3118
22195W        W37326  13.317   1.816  15.440  0.0824 -0.0624  0.2067
22196W        W37327   4.819  17.725   2.955 -0.0784  0.2788 -0.4012
22197W        W37328   8.869  12.010   4.506 -0.2756 -0.5674  0.0303
22198W        W37329   9.497   2.793  12.111 -0.1526 -0.3293 -0.2258
22199W        W37330  16.369   4.154  14.507  0.0572 -0.0781  0.1618
22200W        W37331   9.432   2.822  14.508 -0.3805 -0.0936  0.0734
22201W        W37332  12.984  10.844  12.503  0.0933  0.3587  0.0423
22202W        W37333   9.033   5.525  15.755 -0.1073 -0.2480 -0.0845
22203W        W37334  13.264  15.576   1.089 -0.1740  0.1865  0.1609
22204W        W37335  15.224  10.437   5.482 -0.0350  0.3384 -0.0660
22205W        W37336   9.138   9.521   2.353 -0.0474  0.0029  0.0928
22206W        W37337   4.750   9.661   3.417  0.1958 -0.1837  0.2415
22207W        W37338  17.818   1.128  12.995  0.1240 -0.0040 -0.0353
22208W        W37339  14.906  12.839   3.491  0.1269  0.1227 -0.4025
22209W        W37340   0.831   5.154   2.633 -0.2386  0.1359  0.0486
22210W        W37341   1.826   1.656  11.660 -0.0917 -0.1692  0.1469
22211W        W37342   9.397  11.286   1.481 -0.2088  0.0766  0.2630
22212W        W37343  13.784  17.054   2.822 -0.1061  0.0332  0.0270
22213W        W37344   0.563  11.222   5.978  0.5248 -0.2128  0.1861
22214W        W37345   4.324  10.298   3.971  0.0477  0.1835  0.0937
22215W        W37346  14.237   8.768  13.379 -0.2917  0.1910 -0.2352
22216W        W37347  13.359   8.564  16.040 -0.1707  0.1543  0.3773
22217W        W37348  13.686  10.587  14.241  0.0527  0.2405 -0.1285
22218W        W37349   2.656  12.905   4.486 -0.3364  0.0812  0.4438
22219W        W37350  17.595  14.698  14.611  0.0564 -0.2690  0.1123
22220W        W37351  16.897  13.569   3.468  0.1272  0.0364  0.0374
22221W        W37352   8.403  10.442   1.816  0.1139  0.0435  0.1853
22222W        W37353   7.931   4.635   0.459  0.3680  0.1218  0.1081
22223W        W37354   2.809  11.007  11.116 -0.0040 -0.2030  0.2613
22224W        W37355   5.937  14.277   3.818 -0.0474 -0.0272 -0.1364
22225W        W37356   2.768  17.832  13.194 -0.1822  0.2524  0.0868
22226W        W37357   8.510   8.054  16.402  0.1138 -0.0009 -0.0399
22227W        W37358  17.114   7.674   5.114  0.1668  0.0763 -0.0651
22228W        W37359   3.873   1.007  16.175  0.1894  0.0789  0.0141
22229W        W37360   0.429   6.684   4.493  0.0656 -0.0731  0.2879
22230W        W37361   2.201  17.039  10.775 -0.2238  0.0547 -0.2377
22231W        W37362  13.495   5.358   2.406 -0.1417  0.0593  0.1100
22232W        W37363   6.043   8.098  12.976 -0.1999  0.2361  0.0494
22233W        W37364   1.693  16.812  12.342  0.1077  0.0685  0.2057
22234W        W37365   8.710   5.490  14.465 -0.2734 -0.2608  0.1668
22235W        W37366   7.618  14.455   1.592  0.0861  0.4087 -0.2723
22236W        W37367   3.436  13.528   4.536 -0.0515  0.2172  0.2156
22237W        W37368  17.503   8.982  11.485 -0.1297 -0.1028  0.0034
22238W        W37369   8.530  12.785   3.333  0.0355 -0.0212 -0.2725
22239W        W37370  14.978   2.009  15.001 -0.0742  0.1246 -0.0443
22240W        W37371  16.022   2.391  16.288  0.0522 -0.0803 -0.0754
22241W        W37372   2.460  13.033  14.369 -0.0387 -0.1674 -0.1816
22242W        W37373  17.011   2.166   3.033 -0.1221  0.2299 -0.0194
22243W        W37374   6.524  14.538  15.860 -0.2226  0.0773  0.0950
22244W        W37375   0.073   4.471   2.600 -0.1294  0.0046 -0.0299
22245W        W37376   0.217  12.674  12.231  0.3044 -0.0514 -0.0520
22246W        W37377   0.888  12.434  15.392  0.1836 -0.0801 -0.0361
22247W        W37378  16.631  12.510  14.887 -0.1391  0.4869 -0.0471
22248W        W37379   3.753  12.224   3.483  0.1682  0.2388  0.1691
22249W        W37380  12.043   1.152   2.788 -0.2288  0.1136  0.0781
22250W        W37381   6.684  14.133  15.029  0.0440  0.2684 -0.1357
22251W        W37382   0.773   1.709  16.325  0.2740 -0.0213  0.4512
22252W        W37383  10.052   3.225   1.531  0.0305 -0.4935 -0.1811
22253W        W37384  17.785   5.708   3.431  0.0768 -0.1184  0.0551
22254W        W37385   3.537   6.992  16.405 -0.2162 -0.1997  0.0648
22255W        W37386  10.068  14.441  11.613 -0.1642  0.0404  0.2920
22256W        W37387   8.906  14.304  16.075 -0.0679  0.0391  0.0122
22257W        W37388  17.727   8.117  11.814  0.0787 -0.1380 -0.2026
22258W        W37389   2.761  14.861  16.617 -0.2282  0.1652 -0.0533
22259W        W37390   0.736  15.518   3.511  0.0071 -0.2422 -0.0932
22260W        W37391  10.873  17.747  14.856  0.0939  0.0037  0.0500
22261W        W37392   9.454   8.688  13.804 -0.0593 -0.3061 -0.0741
22262W        W37393  11.526   4.136  16.299 -0.1349 -0.1644 -0.1860
22263W        W37394  17.359   0.519   5.394  0.0106 -0.1736 -0.0655
22264W        W37395   6.243  16.447   0.541  0.1112 -0.3706 -0.0877
22265W        W37396  17.422   7.085  14.455  0.0625  0.0869 -0.0529
22266W        W37397   2.974  10.077   4.971 -0.0278  0.0142 -0.0553
22267W        W37398  12.670   5.704   5.452  0.0370  0.2607  0.2946
22268W        W37399  15.462  16.272  16.356 -0.2342  0.0813  0.4224
22269W        W37400   6.551   0.937  13.078 -0.0190  0.1621  0.0224
22270W        W37401  15.177  10.871   5.747  0.0053  0.0053  0.0232
22271W        W37402   2.398   0.142   0.947 -0.0335  0.2008 -0.1560
22272W        W37403   4.897  15.250   5.074 -0.0364 -0.0486  0.0832
22273W        W37404   5.408   3.634  15.035  0.3525  0.0402  0.1066
22274W        W37405   3.923  17.838   2.349 -0.2199  0.1191  0.0252
22275W        W37406  16.653  13.084   6.246  0.0061  0.0523  0.2548
22276W        W37407  15.751   2.601  14.523 -0.1356  0.1059 -0.1836
22277W        W37408   3.263  17.122   6.137  0.0735 -0.1423  0.3050
22278W        W37409   0.427  15.628  12.136  0.1603 -0.0746  0.3755
22279W        W37410  14.371   9.262   0.337 -0.0038  0.3172 -0.3118
22280W        W37411  17.720   5.310   5.635  0.1448 -0.1537  0.0536
22281W        W37412  14.116   6.198  14.484 -0.1962 -0.2111 -0.1139
22282W        W37413  10.286  16.342  15.139 -0.1368  0.2766 -0.1376
22283W        W37414  12.426   1.315   0.594 -0.2353 -0.0703 -0.1145
22284W        W37415   5.739   9.429   5.104 -0.3071 -0.0889  0.0256
22285W        W37416   9.001   8.223  16.231  0.1280 -0.3050 -0.3703
22286W        W37417  16.499   9.557   5.322 -0.2078  0.0003 -0.0506
22287W        W37418   4.421   2.007   0.342  0.1159 -0.0744  0.0159
22288W        W37419   8.789  17.178  11.424  0.0608 -0.1534  0.0961
22289W        W37420  10.676   5.962  11.961 -0.0736  0.0554 -0.0273
22290W        W37421   9.049  17.585  12.971  0.0113 -0.1179  0.2155
22291W        W37422   5.979  17.799  16.036  0.0094 -0.0230 -0.0324
22292W        W37423  16.253  17.620   6.766  0.0477  0.0094  0.0821
22293W        W37424   0.848   6.270  16.709  0.0467 -0.2866  0.1237
22294W        W37425   0.796   7.610  13.945 -0.0989 -0.0641  0.3854
22295W        W37426   9.100   7.033   5.434 -0.1993  0.0710  0.0793
22296W        W37427   9.155   5.464  11.226 -0.0111 -0.0011  0.0283
22297W        W37428  13.648  16.658  14.847 -0.1244 -0.4049 -0.0229
22298W        W37429  13.053  12.795   1.239 -0.1602  0.3147 -0.0358
22299W        W37430  17.664   0.174  12.187  0.3306 -0.0473  0.0617
22300W        W37431   6.317   7.905  12.094 -0.0966  0.0301  0.0603
22301W        W37432   9.053  11.071  14.031  0.1363  0.0974 -0.0070
22302W        W37433   0.970  13.474   4.860 -0.0074  0.0904 -0.1109
22303W        W37434   9.397   4.176   2.593 -0.3207 -0.3494  0.0272
22304W        W37435  12.773   9.179   5.789 -0.0494  0.0293  0.1993
22305W        W37436  10.948   9.117  15.739 -0.2045 -0.1900  0.1242
22306W        W37437  13.958   5.918   3.351  0.0499  0.0866  0.0819
22307W        W37438  15.915  15.251   2.608 -0.0985  0.3358  0.2007
22308W        W37439   3.861   6.668  16.712 -0.3452 -0.0183  0.1301
22309W        W37440   1.068  17.667   4.209  0.1361  0.0706  0.1912
22310W        W37441  16.987  11.137  16.168 -0.2702 -0.1186  0.0121
22311W        W37442  12.848   7.197   1.316  0.1414  0.1648  0.1195
22312W        W37443  10.144  17.294   3.196  0.1304 -0.3404  0.3771
22313W        W37444  13.739  12.779   2.742  0.0683 -0.0735  0.3094
22314W        W37445   8.604   2.578  11.112  0.1068  0.0008 -0.1205
22315W        W37446  10.579   5.165  14.183 -0.1625 -0.0449  0.0038
22316W        W37447   6.367   7.761  12.675  0.3245  0.0169 -0.1430
22317W        W37448  11.119  10.739   1.815 -0.1003  0.0840 -0.0323
22318W        W37449   0.402  15.053   4.925 -0.2226  0.0115  0.0470
22319W        W37450   7.691   2.677   3.330 -0.3797  0.1141 -0.3247
22320W        W37451   7.068   1.540  14.075  0.0280 -0.0815  0.1600
22321W        W37452  10.681   2.591  14.790  0.0212 -0.1329  0.2951
22322W        W37453   1.080  13.915  14.665 -0.1125  0.0055  0.1263
22323W        W37454   8.014   6.900  15.504  0.1101  0.1653  0.0642
22324W        W37455  10.418   8.126   1.463 -0.0932  0.0432  0.0350
22325W        W37456   1.040   4.584   0.711  0.0720 -0.0848  0.0966
22326W        W37457   5.401  16.455  16.309  0.0273  0.1055  0.0957
22327W        W37458  11.811  13.541  11.922 -0.1831 -0.2436  0.2489
22328W        W37459  13.635   8.571   3.151 -0.1240  0.1131  0.0130
22329W        W37460   5.505  11.935   0.454 -0.0338  0.3640  0.1967
22330W        W37461  17.398  13.959  14.311  0.0696 -0.1246  0.0653
22331W        W37462  16.273   3.351  13.682 -0.0099  0.0491 -0.1733
22332W        W37463  12.012   9.093   5.490 -0.0272 -0.2559 -0.0414
22333W        W37464   0.479  11.613  14.659 -0.3217 -0.1546 -0.0140
22334W        W37465   6.392  16.467   2.232  0.2377 -0.0573  0.0171
22335W        W37466  17.579  11.889  14.159  0.0569 -0.1558  0.1953
22336W        W37467   4.141   5.127   3.026  0.0861 -0.0651  0.0261
22337W        W37468  15.501   0.398  14.768 -0.1017  0.1437 -0.0645
22338W        W37469   1.009   8.923  11.246 -0.4284  0.0134 -0.1535
22339W        W37470   2.176   6.518   4.602  0.0272 -0.2985 -0.2613
22340W        W37471   6.814   0.309   1.806  0.3726  0.2602 -0.1632
22341W        W37472  15.700   6.867   1.811 -0.0083 -0.1376 -0.1443
22342W        W37473   0.152  14.039   6.324  0.1070  0.1607 -0.0572
22343W        W37474   5.504   6.620   0.289  0.0619  0.0354  0.1817
22344W        W37475  15.956   5.384   5.472  0.0829 -0.1308  0.0421
22345W        W37476  16.846  12.265  11.562 -0.1207 -0.2270 -0.0123
22346W        W37477   8.477  10.081  13.452  0.1229 -0.3687  0.2139
22347W        W37478  12.167   6.887  14.760 -0.1212  0.4840  0.0164
22348W        W37479   3.741  17.014  15.859  0.1791  0.0697 -0.0875
22349W        W37480  11.925  11.906   3.278  0.1350  0.1944  0.0998
22350W        W37481  16.855  16.241  11.834  0.1233  0.0887  0.3308
22351W        W37482   6.807   1.821  11.062 -0.3812  0.1197 -0.2456
22352W        W37483  10.227   0.577  14.618 -0.1387  0.0182 -0.1247
22353W        W37484   2.569  17.303  15.431  0.1598  0.1770  0.2474
22354W        W37485  16.740   1.820   0.445  0.1553  0.0841  0.0336
22355W        W37486   4.700   5.009  15.904  0.0921 -0.0411 -0.2386
22356W        W37487   3.825  16.181   2.482  0.4594  0.0427  0.2396
22357W        W37488  13.565   6.239   3.175 -0.0457 -0.3274 -0.2021
22358W        W37489  17.813   6.943  10.845  0.0354  0.4158 -0.0716
22359W        W37490   1.442   0.639   0.083  0.0354 -0.2442  0.1847
22360W        W37491   0.045  15.002  14.350 -0.1367 -0.2706 -0.2853
22361W        W37492  13.656   8.439   4.974  0.0744 -0.0748 -0.0565
22362W        W37493   7.639   1.192  14.235 -0.1090  0.1608 -0.1135
22363W        W37494   1.506   0.123  12.122 -0.2419  0.0107  0.0480
22364W        W37495  15.546   1.287  14.768 -0.0666  0.0486  0.0348
22365W        W37496  14.697   8.910   0.026 -0.0997  0.0292 -0.2658
22366W        W37497  17.101   1.911  12.300  0.1511  0.0797 -0.1541
22367W        W37498  12.578  13.937  15.821 -0.2832  0.1133  0.1927
22368W        W37499   9.358  15.236  14.697 -0.0296  0.0780 -0.0448
22369W        W37500   8.498   1.835  15.615 -0.3056  0.0181  0.3122
22370W        W37501  13.628   2.020   0.487  0.2181 -0.0675 -0.2487
22371W        W37502  14.942  13.514   4.328 -0.1098  0.0334 -0.4417
22372W        W37503  11.104   4.187  12.503  0.0006  0.0885  0.0664
22373W        W37504  14.169   8.133   2.529  0.1685  0.0145 -0.0757
22374W        W37505  13.514   0.074  14.628 -0.0133  0.0154  0.1064
22375W        W37506   6.772   0.380  15.851 -0.2889 -0.1645  0.0289
22376W        W37507   7.246  13.980   5.467  0.0097 -0.0291 -0.4777
22377W        W37508   5.907   6.957   3.674  0.1119 -0.1377  0.2222
22378W        W37509  17.279   4.620   6.261 -0.0310 -0.0873  0.0922
22379W        W37510  16.240   0.676  16.011 -0.0230 -0.1144 -0.0268
22380W        W37511  14.649   8.443  11.573 -0.2379  0.0357  0.3295
22381W        W37512   2.360   7.873  12.808 -0.0753  0.0392 -0.0166
22382W        W37513   9.244  16.878   1.046  0.0866  0.0134 -0.1015
22383W        W37514  16.487  15.956   0.177  0.0348 -0.1403 -0.1253
22384W        W37515   0.781   3.820  12.954 -0.0314 -0.2003 -0.2298
22385W        W37516   2.536   4.299   6.130 -0.0728  0.1346  0.1157
22386W        W37517   8.533   8.656  11.789 -0.0193 -0.1044 -0.2445
22387W        W37518   8.438   7.064   2.494  0.0564  0.1868 -0.0313
22388W        W37519  16.169   8.440  14.737  0.1270 -0.0634  0.0136
22389W        W37520  10.841  12.005  11.949  0.1451 -0.2680 -0.0984
22390W        W37521  15.870  17.636   5.621 -0.0104 -0.0834  0.0630
22391W        W37522  14.898   8.743  15.725 -0.2136 -0.1570 -0.1663
22392W        W37523   6.321   7.479  12.264  0.2088  0.0628  0.0975
22393W        W37524   1.291  13.086  14.187  0.1176 -0.2487  0.3293
22394W        W37525   3.256  16.539   1.210  0.2600  0.3093 -0.0436
22395W        W37526  10.603   9.284  14.676 -0.1456 -0.2798 -0.4290
22396W        W37527  11.078   5.871  13.443 -0.5046  0.4180 -0.0256
22397W        W37528  11.100   8.677  11.963 -0.1122  0.0334  0.2044
22398W        W37529  10.552   3.438  14.896  0.0826 -0.1443  0.0151
22399W        W37530   4.204  11.361  16.194 -0.2135 -0.0139  0.3091
22400W        W37531  16.804  17.673   0.221 -0.1267  0.0222 -0.0775
22401W        W37532  15.938  10.271  14.990  0.0779  0.0066 -0.0288
22402W        W37533   0.920  10.473  14.573 -0.2355 -0.1005 -0.2370
22403W        W37534  14.027   4.411   5.188  0.0428  0.5557  0.2681
22404W        W37535   2.860  14.540   0.933  0.1313 -0.2654 -0.0637
22405W        W37536   3.651   8.977  13.488  0.1792 -0.1740  0.0005
22406W        W37537  11.803  10.221  15.358 -0.1940  0.0983  0.0114
22407W        W37538   3.762  17.393   0.153 -0.2788 -0.1474 -0.0783
22408W        W37539   5.082   9.363  14.425  0.1932 -0.1426  0.2153
22409W        W37540   2.355   3.512   5.614  0.0645  0.0581 -0.2092
22410W        W37541   3.438   7.499  13.175 -0.0344 -0.0876 -0.0640
22411W        W37542   1.038   9.521  12.977  0.0859  0.0872  0.3257
22412W        W37543   8.666  17.860   4.274  0.2676  0.1387  0.0193
22413W        W37544  16.122  10.968   4.067  0.3808  0.0288 -0.1599
22414W        W37545  14.686   3.530   5.523  0.1282 -0.1279  0.1066
22415W        W37546   3.655   4.390  13.653  0.0503  0.0568 -0.3971
22416W        W37547   9.962  13.850   3.440  0.1102  0.1073  0.3800
22417W        W37548  17.609  11.933   4.972 -0.2679  0.3580 -0.0763
22418W        W37549   9.190   8.515   2.984 -0.3776 -0.1291 -0.1053
22419W        W37550  17.306  15.666  15.332  0.2014 -0.1377  0.1669
22420W        W37551  14.671   0.658   6.098  0.0453  0.1085 -0.2127
22421W        W37552   3.670  12.475   4.621  0.0306 -0.1016 -0.2340
22422W        W37553  11.362   9.986  16.310 -0.0614  0.0951  0.0867
22423W        W37554   9.998  13.857   5.965  0.0837  0.0744  0.2118
22424W        W37555   8.216  13.119   1.340  0.1144 -0.0809  0.3280
22425W        W37556   0.713  17.219  14.242 -0.1342 -0.1572 -0.1517
22426W        W37557   6.398  13.203  16.648  0.2817 -0.0945  0.0029
22427W        W37558  15.215  17.409  14.534  0.0265  0.2454 -0.2145
22428W        W37559  17.813  10.442  15.159 -0.2310  0.0334 -0.1400
22429W        W37560   0.166   6.812   1.579 -0.1747  0.0496  0.0886
22430W        W37561  13.774   1.678  16.195  0.2395 -0.1700  0.2071
22431W        W37562  13.197   8.027  15.970  0.0925  0.2260  0.0863
22432W        W37563   6.841  12.737   5.737 -0.1185  0.1433 -0.2240
22433W        W37564   9.251  12.399  11.911  0.1911  0.1707  0.2239
22434W        W37565   2.681   7.112   3.362 -0.1611 -0.1656  0.1376
22435W        W37566  14.061   4.772   0.225 -0.0456 -0.1101 -0.2668
22436W        W37567   3.577  14.076   1.116  0.1038 -0.0255 -0.2464
22437W        W37568  16.699  16.062  15.402 -0.0226 -0.0847  0.0558
22438W        W37569   7.258  10.209   4.266  0.1283  0.0862 -0.0172
22439W        W37570   4.843   1.824   3.045  0.3309  0.1443 -0.3524
22440W        W37571   9.100   9.863   5.320 -0.2119 -0.0833  0.1291
22441W        W37572   8.293   9.672  12.073 -0.2468  0.0249 -0.0363
22442W        W37573   6.692  13.342  11.397  0.1793  0.0047 -0.3013
22443W        W37574   3.896   9.381   1.584  0.1165 -0.0427  0.1884
22444W        W37575   8.002   6.088  13.960 -0.0951  0.1782 -0.2456
22445W        W37576  15.205   4.088  11.999 -0.1896 -0.0723  0.1876
22446W        W37577  13.409   3.460   5.116  0.1083 -0.3451 -0.0294
22447W        W37578  13.386   1.385  14.067 -0.2084 -0.0758  0.2816
22448W        W37579  17.363  12.905   5.721 -0.0791  0.0932  0.0715
22449W        W37580   0.655  13.859  14.397 -0.0582 -0.2085 -0.3665
22450W        W37581   4.926   3.222   4.746  0.1849  0.2143 -0.1627
22451W        W37582  11.950  15.502  12.599  0.1235  0.0325 -0.2158
22452W        W37583  13.863   8.507  13.723  0.2150  0.0047 -0.1556
22453W        W37584  17.283  14.540   1.559 -0.0904 -0.0797  0.2854
22454W        W37585   0.792  16.256   4.141  0.1168 -0.0101  0.4223
22455W        W37586   2.089   3.090  12.570  0.0349  0.3280 -0.1753
22456W        W37587  16.281   1.654   0.519 -0.0100  0.0483 -0.0021
22457W        W37588   7.783  10.508  16.070 -0.0073  0.1635 -0.0797
22458W        W37589  17.456   5.356  16.668 -0.3591 -0.0480 -0.2448
22459W        W37590   8.777   8.274  15.762  0.6053  0.0804  0.2888
22460W        W37591   7.427  12.743   2.224 -0.1332  0.0562  0.0135
22461W        W37592   3.601  11.097   4.187  0.0709 -0.1155  0.1347
22462W        W37593   8.782   9.343   4.809  0.3482  0.1810 -0.1785
22463W        W37594  15.108   5.318  14.145 -0.3250  0.1621 -0.1537
22464W        W37595  13.703  13.680   4.726 -0.1097  0.1463 -0.0159
22465W        W37596   3.039   0.391  14.040  0.2958 -0.0070  0.1002
22466W        W37597  16.578   2.278  11.453 -0.2662 -0.1284  0.0593
22467W        W37598   0.552   8.948   5.603 -0.0461 -0.0791 -0.3138
22468W        W37599  13.117  16.147   0.434  0.1451  0.1006  0.0610
22469W        W37600  14.196   4.064  11.738  0.1376  0.0572 -0.0764
22470W        W37601  10.450   4.318   1.631 -0.1291 -0.2222  0.1173
22471W        W37602  16.544   1.585  16.335 -0.1933 -0.1226  0.0431
22472W        W37603   8.150   1.083  15.804  0.0249 -0.3138 -0.1670
22473W        W37604   0.818   1.212  14.658  0.1265 -0.3731 -0.0998
22474W        W37605   5.485  12.476   3.976 -0.2163 -0.4420  0.2964
22475W        W37606  10.419  17.241   0.068  0.3038 -0.1559 -0.0071
22476W        W37607   4.510   0.191  15.846  0.3778  0.1179  0.1041
22477W        W37608   3.346   8.250  16.573 -0.0842  0.4797  0.1901
22478W        W37609   2.810  11.103   5.749  0.3138  0.1601 -0.0927
22479W        W37610  12.368   4.666  14.633 -0.1433 -0.1044 -0.0429
22480W        W37611   3.570   0.035  12.610 -0.5053 -0.1321 -0.1595
22481W        W37612  15.336  15.065  11.270  0.2985 -0.1029 -0.2957
22482W        W37613   4.805   4.723   0.007 -0.0265  0.0123 -0.0526
22483W        W37614   3.620  11.693  14.000  0.1755 -0.2185 -0.2863
22484W        W37615   0.446   3.611   1.645 -0.0077 -0.0903  0.0857
22485W        W37616   6.249  12.013  15.397  0.2388 -0.0938  0.1815
22486W        W37617   3.768  11.730   3.348 -0.0711  0.3268  0.1025
22487W        W37618   6.048   8.119  15.457  0.2909  0.0396 -0.0480
22488W        W37619   1.279  11.316  12.790 -0.0458  0.0045 -0.0464
22489W        W37620   9.154   3.154  13.079 -0.0784  0.0178  0.2429
22490W        W37621   8.776  15.834  14.996  0.1928  0.0059 -0.0796
22491W        W37622   7.326  11.580   1.103  0.0040  0.4291  0.2438
22492W        W37623  12.362   2.794   5.951  0.1583 -0.0089 -0.2461
22493W        W37624   0.337   9.121  13.424 -0.0561 -0.1920  0.3127
22494W        W37625   8.130   3.118   2.669 -0.1259  0.0869  0.0395
22495W        W37626  13.426   5.442   4.089 -0.4613 -0.0842 -0.3819
22496W        W37627   2.952   7.532   0.346  0.1856 -0.3470  0.0075
22497W        W37628  14.691  11.890   6.540 -0.2411 -0.2429 -0.2070
22498W        W37629   7.649   5.257  16.394 -0.1857 -0.2012 -0.1808
22499W        W37630   7.880   9.718   5.764  0.4209  0.0928 -0.2916
22500W        W37631   9.769   2.142  13.932 -0.0934 -0.1266 -0.2053
22501W        W37632  12.861   4.911   5.247 -0.2974 -0.2256  0.2505
22502W        W37633   4.696  12.412   1.619 -0.1862 -0.1080  0.1238
22503W        W37634   7.845   8.747  13.689 -0.2668 -0.1749 -0.3879
22504W        W37635   5.596   3.225   3.966 -0.1230  0.0475 -0.0124
22505W        W37636  12.805  16.781   1.388 -0.0371 -0.0453 -0.4020
22506W        W37637   3.238  11.958   0.856  0.1975 -0.3621  0.1711
22507W        W37638   1.972  16.347   0.288 -0.0258 -0.1247 -0.3151
22508W        W37639  14.990   3.502   2.123  0.3225 -0.0102 -0.1122
22509W        W37640  13.985  14.636  14.423 -0.1703  0.1919 -0.0714
22510W        W37641   3.334  15.652  13.466 -0.1252  0.0027 -0.2495
22511W        W37642  14.800   8.702  12.003  0.0298 -0.1791  0.2857
22512W        W37643   6.586   7.817   2.229  0.4117 -0.0719  0.1376
22513W        W37644  17.411   2.040   4.602 -0.0975  0.1283 -0.0755
22514W        W37645  16.546   0.208   5.607  0.3088  0.0023  0.2813
22515W        W37646   1.378  17.104  13.227  0.2274 -0.0172  0.0264
22516W        W37647   8.650  12.780  13.216 -0.1852 -0.1192 -0.2491
22517W        W37648   8.725   4.644   1.952 -0.0677 -0.2934 -0.0577
22518W        W37649   1.978   0.534  13.367  0.0571 -0.0891  0.0226
22519W        W37650   3.969   6.497   1.261  0.0354  0.1558 -0.0219
22520W        W37651   2.000  17.771   0.404 -0.2157 -0.1879 -0.1035
22521W        W37652   8.995   6.612  12.863  0.2641  0.0877  0.0870
22522W        W37653   9.110   2.948   4.190 -0.2510  0.0498  0.1132
22523W        W37654   1.369  10.742  11.194  0.0479 -0.3527  0.3398
22524W        W37655   8.648  14.319   1.932 -0.0640 -0.1423  0.4613
22525W        W37656  12.646  17.871   3.133  0.1118 -0.2774 -0.1625
22526W        W37657  11.899   2.812  15.214 -0.3039 -0.2512  0.0075
22527W        W37658  11.860  10.721   1.770  0.1269  0.1366  0.0945
22528W        W37659   6.178   1.289  11.157  0.3835 -0.4063  0.1198
22529W        W37660   2.875   8.492  14.032  0.2415  0.0419 -0.0563
22530W        W37661   3.560  11.823  15.926  0.1852 -0.3886 -0.1094
22531W        W37662  13.842   2.321  12.864 -0.0188 -0.0910  0.2214
22532W        W37663   2.064   7.512  13.048 -0.1893  0.0404 -0.0751
22533W        W37664   5.444   6.392  14.098 -0.0170 -0.1371 -0.3433
22534W        W37665  16.568  10.278  13.363 -0.3732  0.0503  0.1191
22535W        W37666   7.223  15.132  15.683  0.2471  0.0085  0.0490
22536W        W37667   2.746   7.864  15.579  0.1888  0.0084 -0.1394
22537W        W37668   5.744  11.438  14.683 -0.1389  0.1218  0.1174
22538W        W37669   6.923   7.875   3.554  0.4001  0.1592  0.1544
22539W        W37670  10.751   1.564   0.478  0.0854  0.0684  0.1631
22540W        W37671   9.871  14.200   4.944 -0.2121 -0.4412 -0.0482
22541W        W37672   0.188  12.310   7.040  0.4122  0.0645  0.4566
22542W        W37673  17.162  16.407  13.270 -0.0547 -0.2243  0.2918
22543W        W37674  13.702   2.218   1.013 -0.1035  0.2977  0.3567
22544W        W37675  15.556   2.981  14.089 -0.2788 -0.2516  0.2075
22545W        W37676   8.957   4.003  11.000 -0.1163  0.1656  0.0249
22546W        W37677   3.800   4.788  12.059  0.2189 -0.0023 -0.0465
22547W        W37678  12.901  10.843   6.180  0.1318 -0.0084  0.0233
22548W        W37679   0.556   7.302   3.246  0.0341 -0.1693 -0.0771
22549W        W37680  14.166   7.612  14.805  0.0328 -0.2741  0.4725
22550W        W37681   9.388  11.717   4.074 -0.0703 -0.0290  0.2077
22551W        W37682   5.689   4.046  11.578 -0.0010  0.0365 -0.0566
22552W        W37683   5.033  14.263   0.594  0.1987 -0.2544 -0.0412
22553W        W37684   4.199  17.468  10.964  0.3771 -0.0143 -0.0613
22554W        W37685  16.559   8.083  16.662  0.0117  0.1538  0.0394
22555W        W37686  17.468   3.444   4.483 -0.2801 -0.4060  0.1525
22556W        W37687   8.273   4.818   1.500 -0.1315  0.1856  0.2628
22557W        W37688   4.056  15.709   5.790 -0.0087  0.0803  0.0864
22558W        W37689  17.676  12.620   1.630 -0.0322  0.1366  0.0008
22559W        W37690   6.061  10.026  12.487  0.2201 -0.1044  0.0371
22560W        W37691   0.681   5.724  16.523 -0.4150  0.1711  0.2409
22561W        W37692   8.076   1.115   2.077  0.3348 -0.0954  0.2172
22562W        W37693   0.567   8.822  12.435  0.0533 -0.1944  0.1570
22563W        W37694   6.678  15.479  16.488 -0.0110  0.0428 -0.1137
22564W        W37695  17.027  15.734  16.159  0.0647  0.1045 -0.0185
22565W        W37696  11.553  10.411   2.176  0.0733  0.2288 -0.0353
22566W        W37697  13.469   0.635   6.371  0.0687 -0.4276  0.0555
22567W        W37698  14.107  13.310   1.977 -0.1709  0.1352  0.0955
22568W        W37699  12.319   6.509  16.627 -0.0166 -0.0189  0.0203
22569W        W37700   7.860   8.925   3.161  0.0963 -0.2648  0.3039
22570W        W37701  17.208   0.205  15.187 -0.0799  0.2479 -0.1483
22571W        W37702   1.582  16.473   2.857  0.0210  0.0845  0.3561
22572W        W37703   8.185   8.133   0.641 -0.2508  0.1818 -0.0346
22573W        W37704   5.673   9.730  12.557  0.0885  0.0481 -0.1287
22574W        W37705   2.482   1.037   1.923 -0.1662  0.0921 -0.0537
22575W        W37706  16.685  15.083  15.210 -0.0574 -0.1498 -0.1000
22576W        W37707   5.842   6.201   6.356  0.0728 -0.0842 -0.1876
22577W        W37708  10.422  12.639   3.657  0.2899 -0.2230  0.1906
22578W        W37709   2.771   8.225  13.092  0.1554 -0.2355 -0.0114
22579W        W37710   2.180  11.758  12.810 -0.0456  0.0942  0.3073
22580W        W37711   9.558   5.723   2.005 -0.2113  0.0523  0.1620
22581W        W37712  16.544   2.829  11.000  0.3798 -0.1041  0.1698
22582W        W37713  13.312   1.430   4.006  0.0834  0.0385  0.1326
22583W        W37714   7.606   1.585  11.835  0.0606  0.1576 -0.2146
22584W        W37715  11.409   2.805   0.231  0.0129 -0.0689  0.1703
22585W        W37716   8.374  10.788  16.359 -0.1392 -0.0555 -0.0587
22586W        W37717  17.527  15.220  15.247 -0.0117 -0.3005 -0.2330
22587W        W37718   7.037   0.154   5.060  0.3362 -0.0661 -0.0584
22588W        W37719  10.819   8.632  15.112 -0.4609  0.0205  0.0231
22589W        W37720   4.119   4.497   1.279 -0.0902 -0.0209 -0.0501
22590W        W37721   1.087  11.593  15.272 -0.1737  0.0067  0.0883
22591W        W37722  14.486   3.318  11.480 -0.2061  0.0659 -0.1737
22592W        W37723  15.404   6.981  14.060  0.2641  0.4629  0.2111
22593W        W37724   3.727  15.848   2.897 -0.1634 -0.0981 -0.0234
22594W        W37725  14.008  10.576  13.766 -0.1017  0.1612 -0.1570
22595W        W37726  11.253   0.296  15.289  0.1523  0.4641  0.0866
22596W        W37727  15.282  15.889   4.921 -0.0038 -0.1754  0.2745
22597W        W37728  11.230   7.877   3.443  0.1362  0.0013  0.0319
22598W        W37729  11.834  13.878   1.313  0.0794  0.0574 -0.1490
22599W        W37730  17.731   3.483   2.497 -0.0744  0.1571 -0.0950
22600W        W37731  13.125  10.328  12.540  0.0487 -0.2673  0.2306
22601W        W37732   8.773  17.560   2.820  0.0723 -0.0565  0.2131
22602W        W37733   5.396  13.855   0.865  0.0051  0.2291 -0.0121
22603W        W37734  11.506   2.351  15.223 -0.0573  0.0805 -0.0904
22604W        W37735  12.849  13.141  13.343 -0.1064 -0.0725 -0.0609
22605W        W37736  17.192  13.443  12.872  0.3431  0.0534  0.3184
22606W        W37737   6.847   9.315  13.179 -0.0707 -0.1074 -0.1151
22607W        W37738  17.668   3.334  15.214  0.3031 -0.0622  0.3059
22608W        W37739  15.090   0.996  13.153 -0.0127 -0.0253 -0.2462
22609W        W37740   6.921  15.705   4.846  0.2333  0.2226 -0.2127
22610W        W37741   0.343  12.049  12.526 -0.1803  0.1212 -0.0258
22611W        W37742   8.667  10.849  13.719 -0.0881 -0.2419 -0.0870
22612W        W37743   3.055  16.733  12.935  0.3345 -0.0010  0.0396
22613W        W37744   1.167   8.445  15.779 -0.1122 -0.3358  0.0702
22614W        W37745  15.767  10.432   0.546 -0.1188  0.0800 -0.1122
22615W        W37746   1.173   2.772  16.774 -0.0593  0.1922 -0.3529
22616W        W37747   6.778  16.792  11.809 -0.1238 -0.0209 -0.0574
22617W        W37748   9.116   6.228   3.380 -0.0916 -0.2901  0.3196
22618W        W37749  12.679  12.894  11.979 -0.0083 -0.1165 -0.0142
22619W        W37750  17.865  14.531  15.121 -0.0865 -0.2046  0.1481
22620W        W37751  10.006   1.318  12.556 -0.0631  0.3470 -0.1041
22621W        W37752  13.642   6.989  15.634  0.2110 -0.1327  0.1266
22622W        W37753   6.836   5.297   2.448 -0.0158 -0.0910 -0.0679
22623W        W37754   0.876   7.386   3.652  0.0915 -0.1808  0.0953
22624W        W37755  17.277  11.700   2.485  0.1182  0.0565  0.1305
22625W        W37756   9.423  17.624   0.633  0.0425 -0.2741 -0.2713
22626W        W37757   7.664   5.457   1.162 -0.3426 -0.0339  0.3396
22627W        W37758   1.824   6.839  13.659  0.0347  0.1703 -0.1651
22628W        W37759   2.368  10.119  13.423  0.3678  0.2853  0.2820
22629W        W37760   3.876  15.818  14.557 -0.0683  0.2220  0.2832
22630W        W37761  11.415   2.366  14.247 -0.3621  0.1459 -0.1700
22631W        W37762   8.247  17.279   5.704 -0.3693 -0.0038 -0.2059
22632W        W37763   5.393   4.202  13.164 -0.0787 -0.4259 -0.0050
22633W        W37764   9.479   0.091   3.764  0.1150  0.1491  0.1540
22634W        W37765   9.579   9.492  11.879  0.2881 -0.2198 -0.1893
22635W        W37766  15.654  16.778  13.969 -0.1012 -0.0845 -0.0788
22636W        W37767  17.259  15.248  11.769  0.0643  0.2612 -0.0497
22637W        W37768   1.709  17.308  15.838  0.1747 -0.1910 -0.1278
22638W        W37769   4.818   9.640   5.628 -0.2153 -0.2762 -0.2071
22639W        W37770  17.532  16.473  16.505 -0.1460 -0.1701  0.0041
22640W        W37771  10.236   1.628   4.056  0.0493 -0.1061 -0.0356
22641W        W37772   1.172   0.205   5.687  0.2294 -0.3100 -0.0452
22642W        W37773   1.383  17.244  12.519  0.0845  0.1158  0.0336
22643W        W37774   2.036  11.923   2.889 -0.2195  0.0293  0.1321
22644W        W37775   7.605   1.230   3.435  0.1260  0.2441 -0.1784
22645W        W37776  15.585   7.654  15.869  0.4620  0.0216 -0.0645
22646W        W37777   0.262   8.609  13.257  0.1852  0.2418 -0.0380
22647W        W37778  17.325   8.404   4.819 -0.1220  0.0142  0.0405
22648W        W37779  16.515   6.031  13.385  0.0174 -0.0256  0.1404
22649W        W37780   9.611  16.000   4.335  0.2082  0.0920  0.0404
22650W        W37781  10.604  11.475   0.189  0.2879  0.0885 -0.3441
22651W        W37782   6.541   5.393  15.549  0.0088 -0.2083 -0.0373
22652W        W37783  12.623  13.727  12.016  0.0434 -0.0051  0.0366
22653W        W37784   7.192   7.276   4.712 -0.1242 -0.0333 -0.2917
22654W        W37785   4.796  14.188   5.940 -0.0031 -0.0240 -0.1208
22655W        W37786   3.971   0.524  14.974  0.3815  0.2079 -0.2592
22656W        W37787   6.316  14.989  12.239 -0.2856 -0.0772  0.0511
22657W        W37788  10.933  13.686  13.047  0.3631  0.1434  0.1961
22658W        W37789  17.257   4.377   4.613  0.0504 -0.1736  0.1209
22659W        W37790  11.688  14.172  15.579  0.1348 -0.0789 -0.0596
22660W        W37791  15.118  13.242  13.198  0.0279 -0.1267  0.3122
22661W        W37792  14.999   5.862  14.126 -0.1332  0.3088  0.2108
22662W        W37793  11.906   0.598   0.624  0.3314 -0.4428  0.0886
22663W        W37794   4.032   0.255   0.593 -0.2798 -0.0348 -0.2665
22664W        W37795   2.981   8.267   5.023  0.1378 -0.0263 -0.1462
22665W        W37796  11.634  15.883  10.851 -0.0715 -0.1107 -0.1174
22666W        W37797  13.618   0.024  11.856  0.1458 -0.0351  0.1940
22667W        W37798   5.077   6.399   2.152  0.1278 -0.0219  0.0520
22668W        W37799   3.555   0.386  11.752  0.0780 -0.2333 -0.2109
22669W        W37800  10.354  16.738  13.124 -0.0994 -0.0729  0.1360
22670W        W37801   6.859  10.688   0.121 -0.0181  0.2052  0.1479
22671W        W37802   5.561   7.227  14.410 -0.3524 -0.1405 -0.3089
22672W        W37803  12.814   8.944   2.741 -0.0275 -0.0625 -0.0199
22673W        W37804   0.022  15.585  16.459  0.0320  0.2053 -0.0610
22674W        W37805   7.879   4.064   1.810  0.0296 -0.2207  0.0251
22675W        W37806   3.734   1.161  13.178  0.0379 -0.2165 -0.1385
22676W        W37807  11.131  13.014   4.714  0.0786  0.0049  0.2316
22677W        W37808  15.503   9.836  16.578  0.0493 -0.2800  0.1790
22678W        W37809   5.263   6.990  14.897  0.2539 -0.2975 -0.1117
22679W        W37810  11.218   5.409   1.403  0.3973  0.0450  0.3482
22680W        W37811  13.241   7.109   4.160  0.0334 -0.0324 -0.0399
22681W        W37812  15.886  13.914  14.108  0.2237 -0.2004  0.3054
22682W        W37813   2.424   8.542  12.223  0.0223  0.2883  0.1915
22683W        W37814  13.406   7.114   0.156  0.1193 -0.2726 -0.1093
22684W        W37815   3.777   6.880   6.181  0.1420  0.0588 -0.1779
22685W        W37816   3.138   8.000  15.304  0.0103 -0.2362  0.0250
22686W        W37817  10.792   6.292  13.433 -0.0054 -0.1024  0.0504
22687W        W37818   6.815   3.733  11.508  0.1256  0.0131  0.1624
22688W        W37819   5.700   9.889  13.052 -0.1668 -0.1282  0.0696
22689W        W37820   7.718   2.215   2.588 -0.3543 -0.2184  0.0173
22690W        W37821   1.528  11.807   4.729 -0.0726 -0.2056 -0.0286
22691W        W37822   2.222  11.747  13.975  0.0110 -0.0770  0.1907
22692W        W37823  11.625   6.064  12.259 -0.0631 -0.0764  0.0713
22693W        W37824   8.209   3.562   4.678 -0.1524  0.2485  0.0217
22694W        W37825  14.544   9.644  12.809  0.0281  0.1281  0.0924
22695W        W37826   5.105  15.483   4.054  0.1150 -0.1809 -0.0378
22696W        W37827   8.013   9.563   6.223 -0.2853 -0.2190  0.1155
22697W        W37828   7.331   4.077  13.573  0.2261  0.0934  0.0396
22698W        W37829   4.317   1.791  13.657  0.4896 -0.1327 -0.2598
22699W        W37830   1.907   0.886  12.300 -0.0723  0.4434 -0.0285
22700W        W37831  12.803   3.895  15.623  0.0832  0.3031  0.1538
22701W        W37832   2.784   9.677   0.662  0.1070 -0.2066  0.0993
22702W        W37833   8.231  17.881   2.163  0.2747  0.1730 -0.0785
22703W        W37834  13.479   6.929  10.769  0.0374 -0.0804 -0.1630
22704W        W37835   8.408   3.142   0.757  0.0968  0.0624  0.0400
22705W        W37836  16.370   3.767   0.176 -0.0201  0.0485  0.2526
22706W        W37837  15.561  10.461   4.420 -0.2410 -0.1136 -0.1567
22707W        W37838   7.128   8.346   5.863 -0.1195  0.2007  0.1002
22708W        W37839   3.891  14.079  15.663  0.3325 -0.0042  0.0131
22709W        W37840  13.767  10.157   2.129  0.3407  0.2059 -0.2975
22710W        W37841   9.361   0.845   2.220  0.0393 -0.2006  0.0112
22711W        W37842   1.693   6.275   0.717 -0.0584 -0.2540  0.0373
22712W        W37843   1.516  10.081   1.301  0.1047  0.0710 -0.0418
22713W        W37844   3.721  10.372  14.349  0.1996  0.2768 -0.1861
22714W        W37845   0.705   5.257  12.989  0.1053 -0.0979  0.2387
22715W        W37846  12.379   0.740  14.840 -0.0351  0.2352  0.2681
22716W        W37847   2.679   1.009   0.726  0.0672  0.0085  0.2810
22717W        W37848   2.291  11.139   3.099 -0.1629  0.0470  0.0585
22718W        W37849  17.768  11.474  10.981 -0.1274 -0.0106  0.2217
22719W        W37850   7.082   6.125   1.394 -0.0349 -0.0861  0.0380
22720W        W37851  14.422   7.978  16.699 -0.1720  0.4227  0.0603
22721W        W37852  11.186  15.046   1.187  0.0931  0.1962  0.0957
22722W        W37853  14.487   6.933   4.260 -0.2240  0.0470 -0.1130
22723W        W37854   7.321   7.697  12.981  0.1584 -0.0692  0.2756
22724W        W37855  16.248   7.876   2.722 -0.0825  0.1727 -0.1461
22725W        W37856   1.630   6.327   2.899 -0.0531 -0.2500  0.2216
22726W        W37857   3.206   1.541  16.145 -0.2215 -0.3264 -0.1355
22727W        W37858   7.960   4.022   1.301  0.1897 -0.5653 -0.0386
22728W        W37859  16.518   6.832  11.675  0.0003  0.0044  0.1047
22729W        W37860   3.962   4.470  14.468 -0.1435  0.1532 -0.0381
22730W        W37861   6.835   8.225   3.849  0.2224  0.0715  0.1502
22731W        W37862  12.492  15.851  13.279  0.0901  0.0785  0.0724
22732W        W37863   2.097   9.822  13.079 -0.0399  0.0660  0.0825
22733W        W37864   0.300   6.894   5.342 -0.1071  0.1942 -0.3057
22734W        W37865  17.111  13.045   2.188  0.0152 -0.2744  0.2228
22735W        W37866   1.190   0.503  13.389 -0.1848 -0.1725  0.0735
22736W        W37867  15.445  10.013   4.369  0.2111  0.2215 -0.0683
22737W        W37868   7.946   2.791   4.823 -0.0622  0.1794 -0.3365
22738W        W37869  14.870  12.842   1.053 -0.1848 -0.0847  0.2246
22739W        W37870  11.922   9.898   3.058  0.1648 -0.2381 -0.0298
22740W        W37871   9.897   9.124   4.798 -0.1899 -0.0646 -0.2144
22741W        W37872  14.305   9.419  10.210  0.1387  0.1090  0.1730
22742W        W37873  11.843   0.615   5.605  0.0289  0.0797 -0.1397
22743W        W37874  17.098   0.177   2.048 -0.0966  0.3269  0.0909
22744W        W37875   2.686   0.906  15.670 -0.1738  0.0207  0.1908
22745W        W37876  12.360   3.686  13.211 -0.2710 -0.0060  0.1470
22746W        W37877  10.259   5.953   1.367 -0.2148  0.0711 -0.1307
22747W        W37878  13.697   5.489   1.106 -0.1605 -0.0773 -0.0513
22748W        W37879   8.990  11.287  15.630 -0.0837  0.0759  0.1288
22749W        W37880   4.185   6.419   4.417 -0.0531  0.1610 -0.2658
22750W        W37881   2.896   0.891   3.632  0.3484 -0.1606 -0.0778
22751W        W37882  14.729   1.086  14.866  0.0205 -0.3637 -0.0123
22752W        W37883  12.347   5.879  15.449  0.2861 -0.4074 -0.0369
22753W        W37884   4.241   3.498   5.666  0.1532 -0.0567 -0.0785
22754W        W37885   2.671  12.281  15.959  0.0409  0.0240  0.5403
22755W        W37886   6.279   9.113  16.263  0.1322  0.0497  0.1616
22756W        W37887   0.975   3.394  13.406  0.1026  0.0172  0.2169
22757W        W37888   0.524   3.674  14.615 -0.0607  0.1434 -0.1291
22758W        W37889   7.904   8.471   0.421 -0.2239  0.2019  0.0163
22759W        W37890   4.706  10.267  13.852  0.0028  0.0776 -0.0760
22760W        W37891  10.548  14.938  15.419  0.1627  0.2696 -0.2555
22761W        W37892   2.383   0.054  14.601  0.0411  0.0610  0.2421
22762W        W37893  14.964   9.034   1.650  0.1756  0.0994  0.0882
22763W        W37894  14.517   4.377  13.347  0.0480 -0.2428  0.1245
22764W        W37895   2.420   3.294   4.791 -0.1333 -0.2373 -0.1563
22765W        W37896   3.438  15.607  16.582  0.3479  0.1156 -0.2937
22766W        W37897  11.235  13.546  12.624  0.0323 -0.1551 -0.0492
22767W        W37898  16.930  12.975  13.639 -0.0934  0.0206  0.0605
22768W        W37899  10.274   8.804  10.319  0.1256 -0.2442 -0.1018
22769W        W37900   9.370  14.089  11.624  0.3046 -0.1394  0.0457
22770W        W37901  10.156  17.584   4.498  0.2795  0.0357  0.2456
22771W        W37902   5.281   8.085   4.567 -0.0227  0.0078 -0.3519
22772W        W37903   7.216   6.472  16.362  0.1702 -0.0186  0.1926
22773W        W37904  13.807   7.719   2.423  0.1203 -0.0192  0.1722
22774W        W37905   0.259   4.477  15.785  0.1079 -0.2729  0.0389
22775W        W37906   8.519  14.330  15.753 -0.0133  0.1384  0.1670
22776W        W37907  17.532   9.639   0.661  0.1614  0.4473 -0.0647
22777W        W37908   0.111  13.110  13.109 -0.1406  0.0133 -0.1758
22778W        W37909   6.722  17.338   1.746 -0.1205  0.0592  0.0679
22779W        W37910  13.548  17.854  11.240  0.0844  0.2179  0.0184
22780W        W37911  10.278  10.103  14.288  0.2674  0.0120  0.1209
22781W        W37912  10.932   2.330   2.638  0.0803  0.0537  0.0588
22782W        W37913   6.455   7.978   4.291  0.0620 -0.0648  0.0262
22783W        W37914  12.607  12.895  16.525 -0.0718 -0.0788 -0.0541
22784W        W37915  14.016  17.595  11.107 -0.0456 -0.2382  0.1406
22785W        W37916   9.719   5.811   1.162 -0.0695  0.0445 -0.0712
22786W        W37917   5.369  11.740   2.623 -0.1241  0.0473  0.2305
22787W        W37918   7.696   7.875   4.893  0.0254  0.3021  0.0006
22788W        W37919   4.314  15.978  16.759 -0.1204  0.0172 -0.4795
22789W        W37920   8.771   5.311  10.952  0.1217 -0.0720 -0.1126
22790W        W37921  13.477   4.318   1.555 -0.2471  0.1396  0.2357
22791W        W37922  11.366  14.265  11.808  0.3980  0.0037  0.2367
22792W        W37923  14.404  12.235   0.876  0.0237 -0.5159  0.3249
22793W        W37924   5.925   5.554   4.325  0.1082 -0.0066 -0.0088
22794W        W37925  14.535  11.203  12.762 -0.1182 -0.4001 -0.0880
22795W        W37926   8.361  15.136   3.875  0.2023 -0.1183 -0.0191
22796W        W37927   6.678  15.998  15.258 -0.1880  0.0970 -0.0161
22797W        W37928   9.722  14.993  15.798  0.3116  0.0321  0.2403
22798W        W37929   1.886   6.992  14.674  0.1671  0.0738  0.1068
22799W        W37930   5.455  14.351   3.773  0.0720  0.0600  0.1260
22800W        W37931  13.050   9.687   3.118  0.1674 -0.1376 -0.1170
22801W        W37932  17.245  12.423   1.427 -0.1715  0.1154  0.0847
22802W        W37933   2.167  13.775   2.738  0.0995 -0.3653 -0.1491
22803W        W37934  12.589  15.978   0.422  0.1884  0.0509  0.2082
22804W        W37935   0.601   5.038   0.289  0.0235 -0.2578 -0.2190
22805W        W37936  12.976  10.497   5.736  0.0705 -0.0234 -0.0626
22806W        W37937  16.424   5.756  15.303  0.2140 -0.2448  0.0990
22807W        W37938   9.468   9.103   5.031 -0.2776 -0.3715 -0.0590
22808W        W37939  14.970   7.532  11.591  0.0790  0.2136 -0.0970
22809W        W37940  13.825  15.677  14.847 -0.0551 -0.1192 -0.0629
22810W        W37941   8.714   7.257  13.582 -0.1196 -0.1322 -0.2719
22811W        W37942  17.848   6.958   5.692  0.3100 -0.0816 -0.5062
22812W        W37943   8.697  12.655   3.872 -0.0899  0.0285 -0.3330
22813W        W37944   6.184   1.064   5.734  0.0212  0.0472 -0.1433
22814W        W37945  13.101  12.680   3.121  0.0611 -0.1780  0.1023
22815W        W37946   5.003  12.250  13.717  0.0220 -0.0315  0.0503
22816W        W37947  11.929  16.195   1.363 -0.2285  0.0363 -0.2252
22817W        W37948  16.931   8.161  12.228 -0.2963  0.3414 -0.0111
22818W        W37949   2.961  14.931   4.884 -0.1032  0.1445  0.1713
22819W        W37950   0.453   3.984   3.765  0.1191 -0.0728 -0.0893
22820W        W37951  14.324  17.574  13.007 -0.1836 -0.0513 -0.1681
22821W        W37952  12.716  13.174  13.841  0.2128  0.3145  0.0551
22822W        W37953  11.340  12.496   4.625  0.0770 -0.1579  0.0781
22823W        W37954   1.158  17.330   0.449 -0.1507  0.0184  0.1379
22824W        W37955   6.758   9.583  13.598  0.2842  0.0547  0.1000
22825W        W37956  13.511  15.521   4.399 -0.1740  0.3323  0.2523
22826W        W37957  13.359   2.273  16.215 -0.0186 -0.1637  0.1898
22827W        W37958   4.778   3.691   0.266 -0.3009 -0.1516  0.0918
22828W        W37959  14.336   2.485  11.532 -0.0740 -0.0510  0.0649
22829W        W37960   3.395   9.066  16.194  0.0213  0.1929 -0.1494
22830W        W37961  15.572   9.425  15.981  0.2412  0.2186 -0.0236
22831W        W37962  17.048  11.498  13.941  0.3342  0.4853 -0.0386
22832W        W37963   2.453  15.615  12.617 -0.2124 -0.0953  0.0850
22833W        W37964   3.406  10.878   0.656  0.0803 -0.0905  0.2820
22834W        W37965   5.108  10.269  15.829  0.0336 -0.0263  0.3101
22835W        W37966   6.194   2.648  14.340 -0.0797  0.0087 -0.2398
22836W        W37967  13.695   3.100   0.701  0.0154 -0.0629 -0.2770
22837W        W37968  16.186  13.974   4.299  0.1366 -0.2470 -0.0176
22838W        W37969  11.063   1.881  16.290  0.2239  0.4352  0.0297
22839W        W37970   7.460   9.035   2.907  0.1369 -0.1823  0.3019
22840W        W37971  15.945  12.205   4.022 -0.1795  0.0137 -0.3418
22841W        W37972  11.469   5.720  11.281  0.1419  0.1068  0.1877
22842W        W37973  13.585   2.988   2.080  0.3471  0.0258  0.0768
22843W        W37974   9.536  15.316  12.153 -0.0978 -0.1791  0.3092
22844W        W37975   0.060   7.321  11.713 -0.3175  0.0294  0.0284
22845W        W37976  10.125   7.671  14.725  0.0218 -0.1777 -0.4317
22846W        W37977   2.951   3.348  11.906  0.1953  0.1069  0.0470
22847W        W37978   6.627  15.157  13.704 -0.1323 -0.1718 -0.0079
22848W        W37979   5.150   8.150   5.948  0.1705 -0.0359  0.1355
22849W        W37980   5.336  13.238  15.158 -0.0976 -0.3096  0.0337
22850W        W37981   2.289   3.848   2.690 -0.1085  0.0193  0.0424
22851W        W37982  15.652   7.330   5.046  0.0784 -0.1843 -0.1292
22852W        W37983  12.869   3.336  11.602 -0.0551 -0.0324  0.0984
22853W        W37984   2.826   9.305  11.102  0.0695 -0.0386 -0.1034
22854W        W37985   4.068  11.474   3.762  0.1200  0.0380  0.0367
22855W        W37986   0.843  16.461  16.207 -0.1050  0.3787 -0.0168
22856W        W37987   9.521  11.204   2.364  0.0849 -0.1321 -0.0801
22857W        W37988  16.897   7.541   1.414 -0.1226 -0.1197  0.1739
22858W        W37989   7.939  11.959   3.416 -0.0504 -0.2105 -0.0375
22859W        W37990  14.281   2.874  11.224  0.0226 -0.2202  0.0777
22860W        W37991  15.054   3.819   2.535 -0.1575 -0.0380 -0.2077
22861W        W37992   3.258   8.755  16.616 -0.0633  0.0972  0.0109
22862W        W37993   6.428  17.789  14.893  0.2586 -0.1887 -0.0309
22863W        W37994   2.784  15.397  13.828 -0.2229 -0.1483 -0.0822
22864W        W37995   7.638   7.414  11.833  0.1548  0.2041 -0.1516
22865W        W37996   6.087  14.008  12.672  0.0923  0.0404 -0.0533
22866W        W37997  17.385   5.495   1.898 -0.0262 -0.1273  0.0053
22867W        W37998   6.634  12.119   4.515 -0.0245 -0.2055 -0.0702
22868W        W37999  15.084   2.458   6.104 -0.3028  0.2002  0.1580
22869W        W38000  16.770   2.365  14.565 -0.1623  0.0825  0.0495
22870W        W38001  17.633   6.277  14.798  0.0428  0.1119  0.1638
22871W        W38002  14.163  14.073  10.233  0.2919 -0.0004 -0.0959
22872W        W38003   5.703   2.276  13.592  0.0768 -0.2706 -0.3058
22873W        W38004  17.459   2.221   1.620 -0.3032  0.0317 -0.2210
22874W        W38005   0.091  16.124   3.606 -0.1814 -0.2919 -0.1433
22875W        W38006  16.299  14.501   2.465 -0.0022 -0.0742 -0.1043
22876W        W38007   7.628  10.780   1.519  0.0667  0.1479  0.1992
22877W        W38008  16.703   1.824  15.616  0.1703 -0.1364 -0.0759
22878W        W38009   0.097   7.359  11.206 -0.0212  0.0178  0.0544
22879W        W38010   0.950  12.473   3.663 -0.0281  0.1400  0.2822
22880W        W38011  11.657  10.326   5.363 -0.0483 -0.2662 -0.0400
22881W        W38012  11.336  11.238  11.454 -0.0558 -0.1442 -0.1671
22882W        W38013   8.623   8.981   3.798 -0.0027 -0.4416  0.3036
22883W        W38014   2.227   9.470  15.929 -0.0969 -0.1296  0.0939
22884W        W38015   4.938   9.679   2.757 -0.3550 -0.1376 -0.0949
22885W        W38016   2.603   5.374  15.913 -0.0733  0.0047  0.2174
22886W        W38017  12.595   8.744  14.869  0.2370  0.0446  0.1208
22887W        W38018   9.616   6.811  13.797 -0.1472  0.0078  0.1722
22888W        W38019  16.687  11.694   2.428 -0.0147  0.1600 -0.0294
22889W        W38020  16.160   3.637  16.137 -0.1644  0.3046 -0.4148
22890W        W38021  16.038  17.507   2.889 -0.0764  0.1440 -0.1412
22891W        W38022  16.413   1.819  11.389 -0.1384 -0.0349  0.1345
22892W        W38023   6.361   5.072   1.852 -0.0085 -0.2246 -0.2380
22893W        W38024   0.505   2.387   2.442 -0.5084  0.0709 -0.0048
22894W        W38025   2.424  15.565  14.870  0.2180  0.1067 -0.2120
22895W        W38026   3.545   5.071   2.089 -0.0841 -0.1470 -0.0767
22896W        W38027   8.676   7.624  12.560 -0.1223  0.1293 -0.1407
22897W        W38028  12.594   6.509   2.331  0.2894 -0.2912  0.0364
22898W        W38029   1.997  10.454  13.629  0.1246 -0.0501  0.1386
22899W        W38030  10.315  10.742   0.593 -0.0648  0.0232 -0.0698
22900W        W38031  13.396  14.234   5.537 -0.1784  0.1037 -0.0339
22901W        W38032   6.768   8.913   1.205 -0.3954  0.1416  0.0544
22902W        W38033   9.224   6.831   1.961  0.0482  0.0811  0.0105
22903W        W38034   0.368   7.301   0.714 -0.1872  0.0364 -0.2375
22904W        W38035   8.985   5.871  14.134  0.0167  0.3080 -0.1864
22905W        W38036   7.621   8.230  13.829 -0.3346  0.1678  0.3331
22906W        W38037   2.757  11.167   1.810  0.0209  0.0399 -0.1001
22907W        W38038   7.375   2.836  12.674 -0.1330 -0.3319 -0.1328
22908W        W38039  17.429   4.883   3.981  0.0435  0.0188  0.1472
22909W        W38040   7.674   9.955   1.541 -0.3573 -0.0291 -0.1356
22910W        W38041   1.801   8.215   4.531  0.0214  0.2963 -0.0528
22911W        W38042   3.969  12.790   4.308  0.0624  0.0783  0.1587
22912W        W38043   9.390   9.096  15.589  0.0179  0.1874  0.0781
22913W        W38044   2.471  17.530   3.522 -0.1170 -0.1514 -0.1610
22914W        W38045  16.183   6.654  15.490  0.0174 -0.0708  0.2315
22915W        W38046  14.499   8.922   5.500  0.0161  0.1028 -0.3429
22916W        W38047   6.588   3.075   2.604 -0.0295  0.1044 -0.1037
22917W        W38048  12.981   6.630  12.882  0.0508 -0.1932  0.0533
22918W        W38049   8.406  11.891   3.199  0.2289  0.4549 -0.0041
22919W        W38050   2.454   3.734  11.247 -0.1342 -0.2338  0.3479
22920W        W38051  13.972   6.250   4.163  0.0802 -0.0563 -0.0111
22921W        W38052   2.707   7.352  14.774  0.3178 -0.0613 -0.2922
22922W        W38053  11.193  14.136  10.191  0.0920  0.0514  0.0969
22923W        W38054   3.985  15.923  15.354  0.0584 -0.1209 -0.0299
22924W        W38055   6.204  13.895  15.166  0.1293 -0.1228  0.2190
22925W        W38056   0.123   9.120  11.848 -0.0368 -0.1574  0.2329
22926W        W38057   4.979   4.200  12.147 -0.0395  0.1923  0.1731
22927W        W38058   7.115   2.322  11.243  0.0913 -0.2902  0.2409
22928W        W38059  16.321   6.076   3.517 -0.1085  0.2001 -0.1783
22929W        W38060  15.970  16.815   5.867  0.0382  0.1595  0.2634
22930W        W38061   2.510   4.078  12.739  0.0389  0.1126  0.1928
22931W        W38062  15.211  10.432   2.722 -0.1081 -0.2092 -0.1594
22932W        W38063   5.155   5.085  14.428  0.1256 -0.1399 -0.1840
22933W        W38064   2.622  10.910   3.466 -0.1984 -0.0460  0.1003
22934W        W38065  13.790  15.017  14.183  0.1045 -0.2235  0.0741
22935W        W38066  12.147  15.851   5.246  0.1020  0.0759 -0.0000
22936W        W38067  16.381   2.642   3.531 -0.2182 -0.2692  0.0696
22937W        W38068   3.188   0.389   4.270  0.0185 -0.0310 -0.0752
22938W        W38069   8.148  15.518   6.320  0.2216  0.2487 -0.0331
22939W        W38070   7.038   8.802   3.233  0.0731  0.0577 -0.2006
22940W        W38071   8.547  11.717  12.453  0.1914  0.0769 -0.0768
22941W        W38072   5.214  17.013  12.743 -0.2099 -0.1319 -0.0173
22942W        W38073  10.857   2.507  11.712  0.0372 -0.3030  0.1432
22943W        W38074  11.018  11.805   0.331 -0.0684 -0.1219  0.3131
22944W        W38075  10.917   1.348  12.370 -0.0643  0.2269  0.2970
22945W        W38076  14.059   2.572   4.927 -0.1014  0.1333 -0.0915
22946W        W38077   8.805   9.133   2.216  0.0080  0.0085 -0.1421
22947W        W38078  12.286  13.166  16.183  0.1641  0.2682  0.1583
22948W        W38079  11.601   1.847  12.033 -0.3714  0.3911  0.1677
22949W        W38080  16.390  16.927   4.031 -0.2128  0.1518 -0.0669
22950W        W38081  15.254  16.492  13.989 -0.1961 -0.2887  0.0528
22951W        W38082   5.954   4.953  15.509  0.0983  0.1832  0.1760
22952W        W38083   3.222  13.961   1.975 -0.0107 -0.0379  0.3685
22953W        W38084   7.688   6.347   5.388 -0.0707  0.0784 -0.0444
22954W        W38085   2.243  12.116  16.271 -0.3323  0.1145 -0.1711
22955W        W38086   5.565   8.564   5.198  0.1748 -0.2197  0.1713
22956W        W38087   1.252  15.310  13.294 -0.5138 -0.0592 -0.1783
22957W        W38088  11.655  15.877  12.701 -0.2664  0.0380  0.1713
22958W        W38089   7.626  16.005   5.008 -0.0409 -0.2917  0.2445
22959W        W38090   8.698   0.727  11.556  0.0299 -0.1513 -0.2011
22960W        W38091   5.409   3.904   3.214  0.0326  0.1204 -0.1226
22961W        W38092   8.823   6.466  15.412  0.0380  0.2648  0.1875
22962W        W38093  11.781   0.164   2.326  0.0458  0.1599  0.1441
22963W        W38094   8.463  14.283  13.052  0.0499 -0.0727 -0.1497
22964W        W38095   7.910  13.015   6.336 -0.0977  0.5045 -0.0953
22965W        W38096  16.863   0.409   1.070  0.1379 -0.1515  0.4913
22966W        W38097  11.913   1.693  16.374 -0.1274 -0.0290 -0.0047
22967W        W38098  10.978  14.672  16.208 -0.1143  0.2688 -0.1769
22968W        W38099  10.596  16.864   1.817  0.0395  0.3960 -0.0595
22969W        W38100   9.489   8.634  10.910 -0.0970  0.1577  0.1976
22970W        W38101  11.505   0.568   4.943  0.2379 -0.1499  0.1964
22971W        W38102  17.829  12.278   1.348 -0.2019 -0.2978  0.0892
22972W        W38103   9.385   7.219  11.807 -0.1796 -0.4433 -0.0300
22973W        W38104  12.771  10.516  15.305 -0.0591 -0.2168 -0.1106
22974W        W38105   8.306   5.646   2.555 -0.0938  0.2061  0.0161
22975W        W38106  10.050   5.669  15.339  0.1414  0.1598 -0.0678
22976W        W38107   8.266  14.135   0.988  0.1391 -0.1999  0.2897
22977W        W38108   8.696   8.422   4.461  0.1705  0.4450  0.1358
22978W        W38109   5.771  17.327   1.221  0.1441 -0.1342 -0.0552
22979W        W38110  10.772   0.684   1.179 -0.1275 -0.0320 -0.2256
22980W        W38111  12.382  16.990   2.231 -0.2672 -0.3195 -0.4834
22981W        W38112   6.386   9.301   1.192  0.1635 -0.3615  0.2417
22982W        W38113  16.782  14.823  12.587 -0.1144 -0.2602  0.1703
22983W        W38114   8.571  13.890   1.593  0.1005 -0.2171  0.2371
22984W        W38115  14.428   5.374   5.496  0.1710 -0.1098 -0.1642
22985W        W38116   1.741  14.933  12.286  0.1356 -0.0982 -0.1260
22986W        W38117   8.742   4.118   1.931 -0.4142 -0.0292 -0.0544
22987W        W38118  15.441  16.276   3.178  0.2180  0.0893 -0.0485
22988W        W38119  14.348   5.079   4.837 -0.1999 -0.0813 -0.1789
22989W        W38120   9.535  15.609  14.337 -0.4278 -0.2153 -0.0040
22990W        W38121  13.922   4.414  15.592 -0.1822  0.0391  0.1788
22991W        W38122  12.162  15.984   2.101 -0.0220 -0.2139 -0.3055
22992W        W38123  13.370   2.280   6.142 -0.1452 -0.2700  0.4834
22993W        W38124  13.865   5.319   4.334  0.2550 -0.1633 -0.0276
22994W        W38125  13.348  15.716  13.024  0.0011 -0.1003  0.0596
22995W        W38126   4.976   0.800  13.912 -0.1640  0.0729 -0.0662
22996W        W38127  14.234  12.962  15.140  0.0711  0.0438 -0.2573
22997W        W38128  11.092  14.358  14.795 -0.2396  0.3246 -0.1821
22998W        W38129  14.336  15.926  14.215  0.0180 -0.0956 -0.0509
22999W        W38130   5.087   9.306   5.085 -0.2754  0.0673  0.1932
23000W        W38131   2.488   7.377   2.927  0.0407 -0.0272 -0.1887
23001W        W38132  13.871   5.659   4.790 -0.0131  0.3487  0.0127
23002W        W38133   5.013   5.015  12.590  0.2239  0.0998 -0.1059
23003W        W38134   5.600  12.937   5.011  0.0588  0.1603 -0.1639
23004W        W38135   5.992   5.381  14.669 -0.0397  0.1815 -0.1861
23005W        W38136  10.775  10.025   1.519 -0.0174  0.0587 -0.0875
23006W        W38137  11.992  13.544  16.374 -0.2880  0.1242  0.0820
23007W        W38138  10.272  13.169  15.824 -0.0621 -0.0200 -0.1211
23008W        W38139  17.255  10.455  16.719 -0.0965 -0.2503  0.2091
23009W        W38140   1.054  17.293  12.918 -0.1818 -0.3407  0.0174
23010W        W38141   4.136   5.394   0.951  0.1819  0.0819  0.2153
23011W        W38142  17.212  11.433  16.549  0.1281 -0.0825 -0.1575
23012W        W38143   6.548  14.986   5.426 -0.2798 -0.1060 -0.0999
23013W        W38144   9.795   5.382  11.621  0.0809 -0.0966 -0.0648
23014W        W38145   9.003   7.903   1.219 -0.0085  0.2060 -0.1085
23015W        W38146  11.255   1.146   1.662  0.0961  0.3326  0.0355
23016W        W38147  15.467  17.538   3.246  0.0987  0.1958  0.2219
23017W        W38148   8.876   1.651  15.317  0.3216  0.1187  0.0070
23018W        W38149  10.833   8.731   0.144  0.0545 -0.0483  0.2074
23019W        W38150  13.998   3.262  15.910  0.0009 -0.0909 -0.1507
23020W        W38151   5.777  11.265  10.443  0.4620  0.2739  0.0818
23021W        W38152   8.537  14.367  12.545  0.0955 -0.0420 -0.0919
23022W        W38153   3.222   7.873  16.236  0.0361 -0.1706  0.2522
23023W        W38154  11.354   0.647  11.382  0.0038  0.0648  0.2003
23024W        W38155   9.730   7.609   5.910  0.0002  0.1542 -0.1986
23025W        W38156   0.529   2.309  13.176 -0.0959  0.3132 -0.2670
23026W        W38157   7.900  10.505  14.632  0.1395 -0.2081  0.1621
23027W        W38158   3.620   3.526  15.614 -0.0352  0.0744 -0.1231
23028W        W38159   2.133  11.499  16.673 -0.1079  0.0141 -0.0405
23029W        W38160  11.478   3.528  13.313 -0.0564 -0.1799  0.2703
23030W        W38161   6.954  16.642   5.273  0.1325  0.0152  0.0975
23031W        W38162  13.399  10.208   0.662 -0.1052 -0.0817  0.0148
23032W        W38163   4.583  16.483   5.635 -0.1603  0.0892  0.3193
23033W        W38164   9.644   5.122   2.655 -0.0482  0.2390 -0.1210
23034W        W38165   5.626   2.291   4.537  0.1129  0.1122 -0.0599
23035W        W38166   5.339   2.162  16.106  0.3005 -0.0559 -0.1226
23036W        W38167   1.295   7.426  16.509  0.2843 -0.1312 -0.0271
23037W        W38168   4.598  17.499  13.400  0.0899  0.0412  0.0262
23038W        W38169  15.201  11.348  11.831 -0.0388 -0.0030 -0.2620
23039W        W38170  15.923   2.062   0.183  0.1220  0.0115  0.0126
23040W        W38171   0.891   7.428  14.413 -0.0840 -0.2215  0.1022
23041W        W38172  13.250   7.458   1.510  0.2338 -0.0926 -0.2349
23042W        W38173   9.496   1.338  16.414 -0.1408  0.1745  0.0228
23043W        W38174  12.069  15.777   0.574  0.0081 -0.1299  0.3802
23044W        W38175   6.755   2.222   1.042  0.0240  0.2036  0.2571
23045W        W38176   6.829  13.460   1.596  0.2525 -0.3210  0.0354
23046W        W38177   7.676   0.697  12.639  0.0267  0.0525 -0.1545
23047W        W38178   3.552   4.527  11.557 -0.1644  0.2581 -0.1744
23048W        W38179   5.526   4.382   4.182 -0.0793 -0.2239  0.3071
23049W        W38180  11.568  17.233  11.680  0.1447  0.0995 -0.2460
23050W        W38181  13.849   8.476  16.684  0.0868  0.1588 -0.0603
23051W        W38182   4.451  11.212  10.641 -0.0523  0.1857  0.1725
23052W        W38183  11.054  12.328  11.635 -0.0709 -0.1275 -0.1650
23053W        W38184  16.986  16.869   0.383 -0.1293  0.0840  0.0753
23054W        W38185  14.387  16.480  13.347  0.0255 -0.0157  0.0533
23055W        W38186  11.011  11.197   2.207  0.1598 -0.0920  0.1714
23056W        W38187   0.688   1.487  15.499 -0.1970 -0.0430 -0.0739
23057W        W38188   4.407   8.215  13.796 -0.1212  0.0509  0.0949
23058W        W38189   3.408  15.932  14.395  0.0729  0.1648 -0.0002
23059W        W38190   4.667  14.897   4.286 -0.2235 -0.0629 -0.0793
23060W        W38191  15.460  11.829   0.553  0.1406  0.2920 -0.1117
23061W        W38192   4.093  16.994  16.642 -0.1724 -0.1486 -0.1939
23062W        W38193   7.926   0.149  16.674 -0.0004  0.0388  0.0456
23063W        W38194  17.285  10.279  16.152 -0.4087  0.0749 -0.0295
23064W        W38195  15.544  12.301   2.867 -0.0269 -0.1996 -0.0235
23065W        W38196   9.979  13.327  12.914 -0.1158  0.1277  0.1977
23066W        W38197  17.632  15.552  13.540  0.0962 -0.0725  0.1696
23067W        W38198  15.853   6.657  10.297 -0.1630  0.0486 -0.0740
23068W        W38199  12.256   7.539   4.029 -0.0011  0.2950 -0.0441
23069W        W38200  13.422   4.744  12.427  0.1672  0.0367 -0.0864
23070W        W38201   7.807  15.160   5.096 -0.0342 -0.0479 -0.1184
23071W        W38202   9.770  14.603  13.585 -0.2425  0.3596 -0.3412
23072W        W38203   9.805   2.986  16.622  0.3022  0.0383  0.1264
23073W        W38204   9.856   6.324  11.118 -0.1019 -0.0859  0.0908
23074W        W38205   6.486   0.166  14.394 -0.0484  0.0600  0.1733
23075W        W38206  10.511   7.806  16.486 -0.2504  0.5570  0.0626
23076W        W38207   4.772  17.118  14.416  0.0537  0.1240 -0.1574
23077W        W38208   0.385  10.920  15.305 -0.1421  0.0885  0.0282
23078W        W38209   8.510   3.982   3.343  0.3443 -0.0014  0.3389
23079W        W38210  14.061  16.663   3.217 -0.1491  0.3942 -0.0512
23080W        W38211  15.168   3.336   5.459  0.0874 -0.1158  0.0453
23081W        W38212  13.015  15.578  11.556  0.0690  0.1705  0.0378
23082W        W38213  11.174   2.118   4.551 -0.0313  0.1664 -0.2235
23083W        W38214   0.415   0.748   6.253 -0.2586  0.0808 -0.0164
23084W        W38215  11.336   7.727   4.816  0.1180 -0.1358  0.1050
23085W        W38216   6.323   5.371  16.566 -0.1412  0.1490 -0.0709
23086W        W38217   0.538  15.023   2.306 -0.0638 -0.1701  0.1350
23087W        W38218  15.875  11.844   6.077 -0.1033  0.2126  0.1323
23088W        W38219  11.461   6.958   4.586  0.1172  0.1079 -0.0333
23089W        W38220   7.394   6.557  11.809  0.1027  0.1580  0.0074
23090W        W38221  15.642  15.733  14.243 -0.1886  0.1615 -0.1067
23091W        W38222  14.240  10.110  11.595 -0.1560  0.1664 -0.0516
23092W        W38223  12.391   4.161   2.010 -0.1521 -0.1130  0.0362
23093W        W38224  12.857  11.427   2.944  0.0271 -0.1939 -0.3560
23094W        W38225  14.147  14.653  12.111 -0.3421  0.2059 -0.2443
23095W        W38226   6.208  13.131   0.346  0.1596 -0.1706  0.0071
23096W        W38227  17.246  11.933  16.491 -0.1860 -0.0793 -0.1503
23097W        W38228  17.351   1.563  11.417 -0.1094 -0.0851 -0.2891
23098W        W38229  12.469   4.381   4.480 -0.1343 -0.0540 -0.0325
23099W        W38230   2.008   1.958  16.688  0.1435 -0.0961  0.0349
23100W        W38231  15.359  14.679   4.627  0.0977 -0.2706  0.1111
23101W        W38232  15.928   8.844  11.380 -0.1293 -0.0473 -0.0884
23102W        W38233   1.220  14.144   5.667  0.1077 -0.0456  0.0781
23103W        W38234  16.798   2.466   1.558  0.0892  0.0532 -0.2598
23104W        W38235   0.774   1.858   1.649  0.0668  0.0414 -0.2215
23105W        W38236   4.970   7.498  14.872 -0.1741 -0.1091 -0.0185
23106W        W38237   0.432  15.207  14.646  0.0509 -0.2885  0.0543
23107W        W38238   6.961  15.670  14.926 -0.0831 -0.1754  0.0594
23108W        W38239   1.811  13.860   4.777 -0.3260  0.1965  0.1900
23109W        W38240   5.968   8.878   0.420 -0.1357  0.4302  0.0871
23110W        W38241  12.658   0.159  13.463 -0.0537  0.1021 -0.2612
23111W        W38242   6.494  14.666   5.763 -0.1016 -0.1449 -0.2182
23112W        W38243   8.097  15.697  15.570 -0.3114 -0.1703 -0.1995
23113W        W38244   6.890   3.406  11.986 -0.2963 -0.0674 -0.0379
23114W        W38245   6.094   4.937  12.161 -0.0852  0.2314  0.0185
23115W        W38246   5.773  17.003  13.030  0.1761  0.1923 -0.0166
23116W        W38247  12.523   8.318  12.950 -0.0894 -0.0598 -0.0932
23117W        W38248   1.817   4.124  11.636  0.1045  0.1978 -0.0078
23118W        W38249  13.969   4.129   2.463 -0.0453 -0.1236 -0.0797
23119W        W38250   3.929   0.073  11.810  0.1023 -0.3653 -0.1443
23120W        W38251  12.165   7.646   0.672 -0.0604  0.2370 -0.0587
23121W        W38252  10.151  13.565   5.541 -0.2018 -0.0956 -0.0597
23122W        W38253  17.763  16.270  15.303  0.0151 -0.2954  0.1416
23123W        W38254  15.774   0.949   2.636 -0.1296  0.2389  0.0083
23124W        W38255  14.329   9.100   1.509  0.3342  0.1918  0.1684
23125W        W38256   8.870   2.700   3.764 -0.2194  0.1633  0.0317
23126W        W38257  12.593  10.734   2.902  0.1980  0.0250 -0.1069
23127W        W38258  17.876  14.717  13.375 -0.3445  0.1035  0.1330
23128W        W38259  10.692  15.084   0.709  0.2793 -0.1960  0.0837
23129W        W38260   2.576   5.610  11.799 -0.4589  0.1676  0.3773
23130W        W38261  10.254  15.298  14.725  0.0617  0.1736 -0.1171
23131W        W38262   6.616   7.953  11.407 -0.1715 -0.2207  0.0100
23132W        W38263  13.026  14.693  11.201  0.0231 -0.1931  0.0736
23133W        W38264   1.673   3.890  16.519  0.0120 -0.2583 -0.0534
23134W        W38265  11.534  14.577  13.291 -0.0909 -0.0641 -0.2121
23135W        W38266  12.877   1.435  13.980  0.1472  0.0016  0.0429
23136W        W38267  14.382   1.408  12.204 -0.1694  0.1405 -0.3591
23137W        W38268   8.071  16.991  14.906 -0.3281  0.4030 -0.1371
23138W        W38269  17.586   6.660  13.094  0.0757  0.0647 -0.1734
23139W        W38270  10.593   9.706   3.131 -0.0748 -0.1953 -0.0746
23140W        W38271   0.104   7.636   0.331 -0.0979  0.0156 -0.0169
23141W        W38272  14.278  13.847   2.194  0.1848 -0.1707  0.0655
23142W        W38273  14.925   2.960  14.412  0.1848  0.1359  0.1458
23143W        W38274  14.159   6.136  15.025 -0.0050 -0.5677 -0.1015
23144W        W38275  10.600  16.546  13.500 -0.1867  0.2707  0.1037
23145W        W38276  14.920   6.594  11.832  0.1700 -0.1362  0.0340
23146W        W38277  17.740   7.503  12.432  0.2086  0.4561  0.0738
23147W        W38278  16.324   9.467   0.213  0.1400  0.0796 -0.1059
23148W        W38279   5.041   1.834  13.270 -0.0921 -0.0874  0.1208
23149W        W38280  14.164   5.232  14.567  0.1799 -0.3290  0.0251
23150W        W38281   2.314  17.497   0.815  0.0458 -0.1310  0.2282
23151W        W38282   9.605   3.198   3.482 -0.1213 -0.0019 -0.0552
23152W        W38283  12.864   8.837  14.472 -0.0611 -0.0533  0.1165
23153W        W38284   8.933  10.635   3.773 -0.1563 -0.1778 -0.2207
23154W        W38285  15.659  16.632  12.505 -0.0307  0.2495  0.2075
23155W        W38286  13.524   9.405   3.664  0.0554  0.1741 -0.1611
23156W        W38287   0.609  16.504  13.752 -0.2164 -0.1178  0.1818
23157W        W38288   6.022   5.349   2.414  0.0631 -0.2414  0.0603
23158W        W38289   7.942   9.369   1.006 -0.1384  0.0876  0.1690
23159W        W38290   7.971  12.590   1.372 -0.2799 -0.1406 -0.0187
23160W        W38291   5.845  15.292   2.174 -0.3489 -0.1246  0.1700
23161W        W38292  15.255  15.405  15.651  0.1251  0.0902  0.1288
23162W        W38293   3.310  10.797  13.669 -0.1511  0.2391  0.2105
23163W        W38294  16.715   0.981  16.734 -0.1033  0.1590 -0.1227
23164W        W38295   5.822  17.391   3.875 -0.0720 -0.2989 -0.2004
23165W        W38296  13.458   6.293  16.495  0.4571  0.1749  0.3179
23166W        W38297  15.687  12.299  11.512  0.2750 -0.1187  0.4820
23167W        W38298  16.026   3.607   5.767  0.1486  0.0250  0.0749
23168W        W38299  14.249  13.383   5.139 -0.2148  0.0687 -0.1110
23169W        W38300   2.382   3.804  15.434 -0.2448  0.0966 -0.0079
23170W        W38301   4.133  10.595  16.679  0.1832  0.0574  0.1674
23171W        W38302   9.297  15.263  15.790  0.0373  0.1238  0.1146
23172W        W38303  13.387   3.723   3.265 -0.3615  0.0038 -0.3348
23173W        W38304   4.002   2.852   3.488 -0.1283  0.0563 -0.2240
23174W        W38305   9.662   0.378  11.831 -0.0538  0.0696 -0.2816
23175W        W38306   6.882  11.925   0.958  0.1747  0.0247 -0.0148
23176W        W38307  14.352  12.928  12.975  0.0747 -0.0023 -0.0296
23177W        W38308  10.402  13.276   5.219  0.0109 -0.0727 -0.0426
23178W        W38309   7.269   8.128   0.250 -0.1749 -0.0228 -0.0809
23179W        W38310   1.377   5.349   0.819  0.0416 -0.1429  0.4893
23180W        W38311   9.400   5.219  13.648  0.1380 -0.2317 -0.1285
23181W        W38312  14.128  15.398  14.136 -0.2430  0.1986  0.0460
23182W        W38313  15.299   4.483  11.513 -0.2440  0.1907  0.0187
23183W        W38314  15.621   2.251   0.547 -0.0548 -0.0244 -0.1204
23184W        W38315   9.681   8.607   4.892  0.1019 -0.2168  0.1927
23185W        W38316  14.145   2.446   2.717  0.0057  0.0625 -0.2171
23186W        W38317   0.132   0.705   4.172 -0.2408 -0.6034  0.1391
23187W        W38318  12.261  16.250  16.600 -0.1991 -0.1199  0.0258
23188W        W38319  12.988  16.569  12.576  0.0877 -0.2179  0.0986
23189W        W38320  14.355   4.776  16.520  0.1373  0.2145 -0.1110
23190W        W38321  12.691  15.160   1.785  0.0027  0.0699  0.1672
23191W        W38322   7.132   3.429   5.629  0.0112 -0.0511 -0.1302
23192W        W38323  12.483  17.714   1.618 -0.0664 -0.0784  0.0164
23193W        W38324  15.922  14.689   5.866 -0.1756  0.0608 -0.0184
23194W        W38325  11.815   6.980  13.462  0.3003 -0.0185 -0.3915
23195W        W38326  15.843   9.469  13.368 -0.0720 -0.1737 -0.1088
23196W        W38327  13.602  15.261   1.347 -0.0676 -0.3130  0.1195
23197W        W38328   8.987   2.831   2.872 -0.0702 -0.2002 -0.0332
23198W        W38329  14.877   7.500   4.517 -0.1033  0.2270 -0.3460
23199W        W38330   3.589   7.411   2.542 -0.2430  0.2066  0.0018
23200W        W38331   0.693   8.207  12.436 -0.1650  0.1284  0.0932
23201W        W38332   6.660  14.087  11.855 -0.3900 -0.3517 -0.3146
23202W        W38333  12.826   5.483  11.782  0.1495 -0.0751  0.0841
23203W        W38334   9.105  14.548   0.993  0.1333  0.0591  0.0103
23204W        W38335   8.470   0.155   3.834 -0.2873 -0.0208 -0.0857
23205W        W38336  16.875   1.609  11.619 -0.0480  0.0413  0.0724
23206W        W38337  15.075   3.174  12.256 -0.2114 -0.1812 -0.1233
23207W        W38338   1.300   1.618  16.145 -0.0792 -0.0651  0.1080
23208W        W38339  14.817   5.195  15.279  0.0272 -0.1296  0.0374
23209W        W38340   5.077  16.456   5.537 -0.0200 -0.1261  0.3041
23210W        W38341  16.583  17.476   2.701 -0.1331 -0.0245  0.0953
23211W        W38342  13.884  10.072   2.635  0.1240 -0.3063  0.0253
23212W        W38343   1.519  16.250  11.818  0.1557 -0.2580  0.2062
23213W        W38344  14.941  16.426   5.646  0.1690  0.0942  0.3317
23214W        W38345  13.291   9.875   3.654  0.3736 -0.0326  0.1452
23215W        W38346   0.862   1.611   4.763  0.0531  0.2176 -0.0365
23216W        W38347   1.836  14.713   3.460  0.0200 -0.3663 -0.1106
23217W        W38348  15.138   0.887  14.169  0.3243 -0.1134  0.2792
23218W        W38349  15.404   5.927   3.410  0.2235 -0.1781  0.3251
23219W        W38350  15.676  12.540   3.279  0.0260  0.2466 -0.2231
23220W        W38351  17.491   8.305  15.642 -0.1725  0.1025 -0.0128
23221W        W38352  13.057  11.045   5.757 -0.1644  0.2282  0.2910
23222W        W38353  12.956  16.676   1.880  0.0207 -0.1729  0.1087
23223W        W38354  10.882  12.700  12.639  0.2139 -0.3824 -0.2687
23224W        W38355   2.352   8.518  16.290 -0.0647  0.1542  0.0492
23225W        W38356   0.437   9.425  15.793  0.0122 -0.0484 -0.0261
23226W        W38357  15.377   3.564   4.393 -0.0942 -0.2948 -0.3052
23227W        W38358  14.415   5.076   3.558 -0.3751 -0.0003  0.1972
23228W        W38359   2.107  15.659   1.221  0.1273 -0.0172  0.1397
23229W        W38360   7.296   7.848   1.598  0.1720  0.2439  0.0238
23230W        W38361   3.042  15.753  12.556 -0.0812  0.3551  0.0666
23231W        W38362   4.131   7.491   1.244  0.2900  0.2468 -0.0075
23232W        W38363   7.127   2.134  13.319  0.0837 -0.1883  0.0634
23233W        W38364   2.393   2.858   0.123 -0.2445  0.0053  0.1023
23234W        W38365   4.576   1.422  16.420 -0.1435 -0.0694 -0.0610
23235W        W38366  16.676   5.139  11.019 -0.1461  0.2246 -0.1263
23236W        W38367   8.945  11.179  14.622  0.1953 -0.2014  0.1570
23237W        W38368  12.349   3.554   4.247  0.0652  0.0048 -0.1869
23238W        W38369  14.967   2.079  15.613  0.1078  0.2174  0.0059
23239W        W38370  10.822  10.467   2.847 -0.1777 -0.3299  0.2061
23240W        W38371   3.884   3.993   4.059 -0.1271  0.2853  0.6986
23241W        W38372   2.431   2.287   4.574  0.0444  0.1884  0.1644
23242W        W38373  13.818   1.437  15.726  0.0265  0.0840  0.1346
23243W        W38374   4.661   2.911   1.460 -0.2430 -0.2085  0.1074
23244W        W38375   5.179   5.145   2.524 -0.3080 -0.2225 -0.0009
23245W        W38376   6.778   0.550   4.930 -0.0456  0.0248 -0.0089
23246W        W38377   3.513   8.494   2.057  0.1683 -0.0705  0.1295
23247W        W38378  10.439   0.319  10.800  0.1431  0.1389 -0.1980
23248W        W38379   0.130   0.781  16.265 -0.0278 -0.1478  0.0026
23249W        W38380  11.624   7.046   3.567 -0.0689  0.1335  0.2777
23250W        W38381   4.134   9.060  12.766  0.2362 -0.2124  0.1911
23251W        W38382   7.570   3.759  11.177 -0.0811  0.1282 -0.1360
23252W        W38383  16.897  13.919  14.337 -0.2325 -0.0509  0.3160
23253W        W38384  13.604  16.717  16.260  0.1101  0.0536 -0.0564
23254W        W38385   9.640  13.626  14.639  0.0744  0.0074 -0.2449
23255W        W38386   4.193  10.242   4.485 -0.1010  0.0244  0.1626
23256W        W38387   7.625  14.486  16.585  0.1656  0.0158  0.2070
23257W        W38388   3.289   6.036   3.061  0.0214 -0.4380 -0.0924
23258W        W38389   2.575  14.499   2.189 -0.0727  0.3105 -0.1226
23259W        W38390   5.137   7.882   1.597 -0.0361 -0.3207  0.1244
23260W        W38391   3.320  17.153  15.937 -0.0351 -0.3411  0.1451
23261W        W38392  12.043  16.561  15.766 -0.1316 -0.2209 -0.0940
23262W        W38393   5.275   8.964   2.363 -0.0807  0.2160  0.1832
23263W        W38394  16.746  10.370   2.887 -0.1965 -0.0948 -0.4032
23264W        W38395   2.333   2.477  15.674 -0.1261 -0.2149  0.1229
23265W        W38396   8.630  15.979   4.215  0.2042 -0.0837 -0.1399
23266W        W38397   5.277  16.956  16.262 -0.1099  0.1246  0.3883
23267W        W38398   6.690   6.153   1.080  0.3432  0.2566  0.0017
23268W        W38399  14.115  17.015  14.896 -0.1686 -0.4505  0.3039
23269W        W38400   4.658  13.033   0.024  0.0076 -0.5130 -0.0446
23270W        W38401   5.861  15.742  16.767  0.0330 -0.0458 -0.0253
23271W        W38402   1.474  11.945  14.422  0.1191 -0.1508 -0.0178
23272W        W38403  16.783  16.552   5.540 -0.1645  0.0047  0.2843
23273W        W38404   7.469  13.935  16.623 -0.0063 -0.1772  0.3508
23274W        W38405   4.325  12.478   4.589 -0.0521  0.0447  0.2656
23275W        W38406  13.236   2.584  15.430 -0.2927 -0.1401  0.2996
23276W        W38407   0.671   2.745  15.038  0.1352 -0.2036  0.2323
23277W        W38408   5.620  13.650  12.392  0.3185 -0.0455 -0.1164
23278W        W38409   1.892  11.936  13.173 -0.1534 -0.2251 -0.1839
23279W        W38410   3.325  16.379   4.152  0.3401  0.3335  0.0085
23280W        W38411  14.298  10.122   1.717 -0.0727  0.0143  0.0466
23281W        W38412  10.314   8.443  12.108  0.2226  0.4550 -0.2781
23282W        W38413  11.817  16.157   0.747  0.0766  0.0985 -0.2119
23283W        W38414  17.202   9.164  14.408  0.0103 -0.0618 -0.2598
23284W        W38415   6.795  15.888  11.612 -0.1617  0.1261 -0.3233
23285W        W38416  13.332   2.218  11.715  0.0693 -0.0736  0.0150
23286W        W38417   2.108  16.617   1.870 -0.1598  0.0343  0.1313
23287W        W38418   0.757   6.974  12.820 -0.0675  0.3741  0.1095
23288W        W38419  13.561   4.403   3.919  0.1107 -0.0168 -0.3514
23289W        W38420   2.728   1.646   4.444  0.2554  0.0944 -0.2665
23290W        W38421  13.725  12.207   2.400  0.2359  0.1795  0.2386
23291W        W38422  16.172  15.175   1.790  0.0378  0.2033  0.1937
23292W        W38423   8.665  14.537  11.983 -0.1835 -0.2858  0.4834
23293W        W38424   7.072  16.705  11.428  0.0274  0.0972 -0.1843
23294W        W38425   8.034  13.558   6.174  0.0512 -0.0882 -0.0372
23295W        W38426  15.356  17.770   2.319  0.2578  0.1302 -0.2258
23296W        W38427   3.558   3.326   2.166 -0.3729  0.1309  0.0365
23297W        W38428  12.647   3.564   2.801 -0.2806  0.0371  0.0314
23298W        W38429   3.242   5.134   2.461 -0.2858 -0.2124  0.1001
23299W        W38430   9.452   4.313  13.810 -0.3982 -0.1313  0.1448
23300W        W38431   3.531  13.862  12.094  0.1225 -0.1029  0.2678
23301W        W38432  13.846  15.098   2.259  0.0513  0.5196 -0.1942
23302W        W38433  14.880  11.912   3.625 -0.0695 -0.2227 -0.1168
23303W        W38434  11.553  13.316   4.854  0.0758 -0.4722  0.0233
23304W        W38435  15.088  16.814   0.543 -0.3582 -0.1161  0.0622
23305W        W38436   6.624   9.278   1.976 -0.1632 -0.2294  0.3104
23306W        W38437  11.792   5.485   0.791 -0.1610  0.0600  0.2032
23307W        W38438  10.469   4.113   2.139 -0.0636 -0.1616  0.0622
23308W        W38439   7.015   3.597  15.354 -0.0711 -0.3474 -0.1754
23309W        W38440  13.677   5.801   2.935  0.0283 -0.3908  0.1241
23310W        W38441   2.306   7.608  13.959 -0.2498  0.2171 -0.0798
23311W        W38442   0.026  13.535   0.205 -0.0704 -0.0027 -0.2230
23312W        W38443   3.132   4.777  11.072 -0.0008  0.2363 -0.1874
23313W        W38444  10.188  11.490  16.119  0.0963  0.0461  0.1889
23314W        W38445   6.509  12.975   0.780 -0.1063  0.0172  0.0649
23315W        W38446   5.775   8.627   1.779 -0.1060 -0.1044 -0.0621
23316W        W38447  14.120   6.316   5.881  0.4193  0.0015 -0.0622
23317W        W38448  15.174  16.551   0.144  0.0674 -0.4985 -0.3359
23318W        W38449  11.218   8.455   0.003 -0.0283 -0.1306 -0.4221
23319W        W38450   2.768   5.113  11.969 -0.6553  0.0128 -0.2254
23320W        W38451  14.679   0.374   2.531  0.0483 -0.1055 -0.0756
23321W        W38452   7.278   1.916  11.014 -0.0490 -0.1324  0.2768
23322W        W38453   0.778   8.781  14.560  0.1209  0.1273 -0.2531
23323W        W38454  13.072  14.246   3.207 -0.1948  0.1020  0.0734
23324W        W38455   3.859  16.253  13.786  0.3322 -0.1340 -0.0777
23325W        W38456   7.990  10.104   1.947  0.0870 -0.1453 -0.1190
23326W        W38457   7.749  11.603  15.305 -0.4213 -0.2340 -0.0991
23327W        W38458  17.634  14.106   2.773 -0.0511 -0.0901 -0.0855
23328W        W38459   7.275  10.737   2.319 -0.1139  0.2775 -0.5646
23329W        W38460   9.273  17.652  16.211 -0.3405 -0.1074  0.0494
23330W        W38461   3.748  12.030  13.667  0.2701 -0.2385 -0.0300
23331W        W38462  12.580  12.715  15.846  0.0897  0.0522 -0.3337
23332W        W38463  14.139   0.580  16.738  0.0493 -0.3151 -0.0689
23333W        W38464  15.172  15.415   2.537 -0.0126 -0.0208 -0.0632
23334W        W38465  14.520   5.660  16.430 -0.2209  0.2121 -0.1605
23335W        W38466  16.275   4.184   1.612  0.1838  0.0223  0.0387
23336W        W38467   9.815   4.778  11.640 -0.2226 -0.1993 -0.0641
23337W        W38468   4.345   4.589   0.278  0.0581  0.2566 -0.0326
23338W        W38469   5.934   9.545   0.310  0.1289 -0.0902  0.0643
23339W        W38470  15.366   9.238   1.937 -0.0461 -0.2668  0.1669
23340W        W38471  12.229  14.631  12.120 -0.3734  0.1225  0.3223
23341W        W38472  12.776  10.069  16.474  0.0627 -0.0959 -0.3360
23342W        W38473   6.738   6.737   2.922 -0.3284  0.1133 -0.0869
23343W        W38474  13.736   4.096  13.032  0.1034  0.1715  0.1232
23344W        W38475   2.169   8.915   2.038  0.0735  0.0473 -0.0460
23345W        W38476  17.222   2.580  16.250 -0.3298 -0.1237  0.1277
23346W        W38477   6.507  12.457   2.335  0.1331  0.0217  0.0195
23347W        W38478  11.179   9.599   2.664 -0.0557 -0.0108  0.1065
23348W        W38479   3.367   6.609  14.793 -0.1263  0.1734  0.0097
23349W        W38480  14.681   7.186   3.469 -0.1796 -0.5089 -0.0408
23350W        W38481  16.459   5.850   4.423  0.0913  0.2267 -0.2125
23351W        W38482   5.927  12.677   3.522 -0.0115 -0.1752 -0.0062
23352W        W38483  16.436   1.567   0.050  0.0916 -0.0926 -0.0775
23353W        W38484  13.438   8.422   0.443  0.0126 -0.4043 -0.1791
23354W        W38485   7.898  10.703   0.153 -0.1727  0.1571 -0.0732
23355W        W38486   9.423   8.754   3.424  0.0408 -0.0126 -0.1161
23356W        W38487   9.730   7.585  13.173 -0.0693  0.2178 -0.3104
23357W        W38488  16.848  11.724  11.459  0.3095 -0.0533  0.0595
23358W        W38489  11.589  12.615  14.286 -0.0564 -0.0679  0.0022
23359W        W38490  12.002  13.783   0.828 -0.1481  0.1804  0.2689
23360W        W38491   8.431   8.802   0.493  0.1486 -0.2422  0.2983
23361W        W38492   3.135   2.471  12.966 -0.1350  0.3148 -0.2777
23362W        W38493   1.281  10.253  12.548  0.1697  0.3062  0.0291
23363W        W38494   7.789   5.830   5.161  0.5726 -0.2639  0.3993
23364W        W38495   5.199  15.218   5.493 -0.0712 -0.0282  0.1555
23365W        W38496   9.417   7.505   3.717 -0.1781  0.0628  0.0872
23366W        W38497   7.548  16.307  11.373  0.0253  0.1083  0.1641
23367W        W38498   8.982  14.264   0.378  0.2095  0.2846 -0.0081
23368W        W38499   3.064   8.791  10.162  0.1387  0.5021  0.1156
23369W        W38500   8.474   1.958   0.102 -0.3747 -0.1630  0.2235
23370W        W38501  14.168   9.240  12.001 -0.0522 -0.1866  0.0738
23371W        W38502   3.846  15.946  15.794 -0.1176  0.1734 -0.1232
23372W        W38503   5.061  16.322   1.747  0.1470  0.0464  0.2297
23373W        W38504  13.664  10.466  16.578  0.1008  0.1327 -0.1382
23374W        W38505   5.264  12.464  15.661  0.0345 -0.2273  0.3006
23375W        W38506   6.765   8.224  12.375  0.2824 -0.1719 -0.3733
23376W        W38507   8.431   0.003   0.665  0.0109  0.1969 -0.1812
23377W        W38508   0.367   3.505  15.862  0.2764  0.3522 -0.0461
23378W        W38509   7.729   2.990  13.747 -0.1374 -0.1898 -0.0894
23379W        W38510  15.392  13.163   4.116 -0.1532  0.0874  0.0953
23380W        W38511   5.230  10.880   2.172 -0.0019 -0.0510  0.1022
23381W        W38512  16.714  15.449  13.165  0.0277 -0.1143 -0.5152
23382W        W38513   1.106  12.899  13.578 -0.1087 -0.1379 -0.3409
23383W        W38514  15.963   2.076   1.367 -0.0681 -0.0199 -0.1679
23384W        W38515  15.662   6.969   0.363  0.0169 -0.0683  0.2486
23385W        W38516   1.371   3.035  11.645  0.1204 -0.2341  0.1229
23386W        W38517  13.134   3.164  12.004 -0.0723 -0.0350 -0.0160
23387W        W38518  11.842  15.573   2.097 -0.1097 -0.1524 -0.3756
23388W        W38519   1.054  15.149  13.860 -0.0278  0.1050 -0.0184
23389W        W38520  11.446   5.892   3.508 -0.1702  0.0236 -0.2299
23390W        W38521   0.402  15.965   1.952 -0.3559 -0.0849  0.0980
23391W        W38522   8.323  13.005   0.513 -0.1527 -0.2098  0.0993
23392W        W38523  16.152   9.528  14.365  0.1257  0.0517 -0.1111
23393W        W38524   9.521   4.783  13.740  0.3102  0.0344 -0.0753
23394W        W38525   9.671   4.629   2.550 -0.0621  0.1790  0.0866
23395W        W38526   1.609   4.895   1.356 -0.1669  0.0868 -0.0373
23396W        W38527   0.656   3.046   5.431 -0.2589 -0.3987  0.1655
23397W        W38528   0.863   2.334   0.981 -0.2948 -0.1637 -0.4863
23398W        W38529  14.630  10.717   4.234 -0.0685 -0.1043 -0.0466
23399W        W38530   3.998   6.974   1.194  0.2317 -0.0510 -0.0117
23400W        W38531   4.076   1.772   2.317 -0.1218 -0.0457 -0.1906
23401W        W38532  12.515  15.537  11.891  0.1293 -0.1588 -0.5129
23402W        W38533  17.377   1.675   4.989  0.0326 -0.2131 -0.1385
23403W        W38534  15.381  13.841   0.131  0.2916 -0.2344 -0.2444
23404W        W38535   5.058   1.654   2.658 -0.1563 -0.1443 -0.0793
23405W        W38536   1.744  12.141  12.623 -0.0359  0.2055 -0.0936
23406W        W38537   4.621  12.228   0.772  0.0763  0.1910  0.3711
23407W        W38538   7.016  16.420   2.229  0.1524  0.0347 -0.2179
23408W        W38539  15.878  12.237  13.818  0.0034 -0.0073 -0.4812
23409W        W38540  13.695   7.504  12.345 -0.2085  0.1328  0.1295
23410W        W38541  10.561  10.099   5.147 -0.3346 -0.3164  0.1365
23411W        W38542   9.335   9.122  14.331 -0.0263  0.2190 -0.1730
23412W        W38543   4.977  11.933  15.025 -0.0742 -0.2542  0.1298
23413W        W38544   7.647  15.601  12.132 -0.0894 -0.0126  0.0903
23414W        W38545  10.421   1.250  11.182 -0.1779 -0.0904 -0.0967
23415W        W38546  11.849   6.257   0.700  0.1460  0.1388  0.0558
23416W        W38547  12.840  13.670  13.264 -0.0090  0.0058 -0.0949
23417W        W38548   6.991  10.220  15.518  0.0739 -0.4932 -0.0827
23418W        W38549   0.985  14.533   3.225  0.0335 -0.2381  0.1254
23419W        W38550   7.344   0.715   5.054  0.1850  0.1720  0.2692
23420W        W38551   9.048  13.191  15.262 -0.3089 -0.0161 -0.0781
23421W        W38552   9.700  14.618   4.498 -0.2517 -0.1209  0.1559
23422W        W38553   7.385   1.399  10.925  0.2566 -0.2906  0.2286
23423W        W38554   5.701   0.507  10.431  0.0158 -0.2741 -0.1808
23424W        W38555  13.325  15.826  15.096 -0.3954  0.0715 -0.1768
23425W        W38556   8.534   0.689  10.707 -0.5040  0.0807  0.1628
23426W        W38557   5.444   4.711   6.052 -0.3227 -0.3286 -0.0195
23427W        W38558  10.367   9.869   4.268  0.2866  0.1630 -0.0086
23428W        W38559  16.010  16.315   4.844 -0.1609  0.0720 -0.2905
23429W        W38560  13.954   9.699   5.970 -0.0903  0.1613  0.2303
23430W        W38561  14.161   1.974  16.128 -0.0828 -0.1250  0.2766
23431W        W38562   5.430  14.002   4.242  0.0373 -0.4232  0.0192
23432W        W38563   1.826   1.381  16.655 -0.0609  0.1026  0.1925
23433W        W38564   2.536   1.089   5.532  0.0865  0.0219 -0.0451
23434W        W38565  15.720   6.574   0.634 -0.0346  0.0269  0.2144
23435W        W38566   7.432  10.805  16.178 -0.0398 -0.2851  0.1542
23436W        W38567  10.099   9.562   3.419 -0.0638 -0.0573  0.0341
23437W        W38568   6.375   9.873   2.785 -0.1686  0.4756  0.0073
23438W        W38569  12.280   0.874   4.820  0.1700  0.2531  0.3649
23439W        W38570   9.930  13.317   2.399  0.3197  0.0968  0.2973
23440W        W38571   1.901   0.230   3.061 -0.0729  0.1219  0.2702
23441W        W38572   2.589  13.400   4.676  0.0306 -0.1961  0.0068
23442W        W38573  14.088  11.070  13.656  0.0967 -0.0363 -0.1697
23443W        W38574   9.307  12.804  15.168  0.0217  0.0156 -0.2395
23444W        W38575   5.951   1.249   5.018  0.1788 -0.0078 -0.1361
23445W        W38576  17.014   2.659   2.915 -0.1976  0.2465  0.0741
23446W        W38577   2.762  13.369  14.152 -0.3856 -0.5891 -0.0579
23447W        W38578  10.715   3.803  11.144 -0.5292 -0.0079 -0.4014
23448W        W38579  17.631   1.153   0.851  0.1042  0.1453  0.0358
23449W        W38580   2.609   3.896  16.703 -0.0658  0.1519 -0.0351
23450W        W38581   7.856   5.830   3.966  0.0760 -0.1489  0.3782
23451W        W38582   1.836   2.236   0.325 -0.2417  0.0829 -0.0647
23452W        W38583   6.635   4.858   5.407  0.2018 -0.1510 -0.1686
23453W        W38584   9.846  13.218  15.564 -0.2102  0.0497 -0.1276
23454W        W38585  10.698   7.503   3.965 -0.2503  0.3635  0.0283
23455W        W38586   4.685   5.018  14.607  0.0010  0.0019 -0.0264
23456W        W38587   2.298   0.508   1.210  0.0761 -0.2062 -0.1371
23457W        W38588   4.454  16.002  13.567 -0.3465 -0.0499  0.0446
23458W        W38589   8.942  16.394   6.213  0.3711  0.2369 -0.1562
23459W        W38590  13.808   0.525  14.224  0.1951  0.0769 -0.1996
23460W        W38591   0.877   9.706  11.541 -0.0072 -0.2316 -0.2683
23461W        W38592   7.315  11.930  10.462 -0.2457 -0.0371  0.1649
23462W        W38593   7.434  10.341   1.614  0.4978  0.1229 -0.0051
23463W        W38594   5.863   5.322  12.390  0.3240 -0.1162 -0.0710
23464W        W38595  16.025   3.800   1.834  0.0461  0.4214 -0.1829
23465W        W38596   7.717   7.145   0.455 -0.0965 -0.1050 -0.0170
23466W        W38597  14.170  12.604  14.745 -0.0428  0.0160  0.0177
23467W        W38598   6.862   0.819  13.477 -0.1335 -0.0021  0.1246
23468W        W38599  12.884   2.439  16.065 -0.0167  0.2838  0.0216
23469W        W38600  14.719   4.210  12.098 -0.1923 -0.0081  0.0215
23470W        W38601   5.428  10.096   0.508  0.1013  0.2357 -0.3061
23471W        W38602  15.559  12.650   5.018 -0.1127  0.1329  0.0003
23472W        W38603   7.568   1.593   4.964 -0.2435  0.1211  0.0037
23473W        W38604   2.002   2.122   5.124 -0.1293  0.1309 -0.0468
23474W        W38605  13.057   8.375  14.221 -0.3127  0.2744 -0.3249
23475W        W38606   5.975   3.899   1.789 -0.0427  0.3015  0.1920
23476W        W38607  10.692   4.367  12.698 -0.1252 -0.0238 -0.1100
23477W        W38608   5.089   4.840  14.878  0.2271  0.2070 -0.1565
23478W        W38609   4.220   1.590  11.448  0.0834  0.1782 -0.2489
23479W        W38610  14.657  15.622   1.038 -0.0900 -0.3612  0.0967
23480W        W38611  17.376  12.798  11.670  0.0716  0.2171  0.1538
23481W        W38612   0.877  14.681   1.960  0.0133  0.1059  0.2502
23482W        W38613   1.792  11.769   2.486  0.2174  0.0461  0.0701
23483W        W38614  15.325   2.346  13.257 -0.0456 -0.0574  0.0908
23484W        W38615  13.615  14.119  12.637 -0.1478 -0.2050  0.2369
23485W        W38616  13.685  16.852   6.031 -0.0203 -0.2381 -0.0018
23486W        W38617  16.439  15.883   1.005  0.0835 -0.0928  0.0092
23487W        W38618   8.008  11.784  14.530 -0.0440 -0.2131  0.1294
23488W        W38619   6.658  12.895  15.000  0.0076  0.0679 -0.1259
23489W        W38620  13.646   3.244  12.884  0.1321  0.2462 -0.1724
23490W        W38621  12.656  16.263  14.176 -0.0065 -0.1579 -0.1199
23491W        W38622   8.409   3.178   3.094 -0.0589  0.0311 -0.1071
23492W        W38623   7.807   2.995   0.874  0.0672 -0.2604 -0.0330
23493W        W38624  12.904  17.614  13.204  0.2756 -0.2450  0.1332
23494W        W38625   2.709   1.772  16.116 -0.0614 -0.2935 -0.1744
23495W        W38626  12.545  17.092  11.763  0.1759 -0.2408 -0.0484
23496W        W38627   1.491   0.523  14.895  0.2029  0.0966  0.0378
23497W        W38628  12.803   7.061  14.182 -0.2204  0.0853  0.0671
23498W        W38629   3.289   1.690  13.795 -0.1756 -0.1621 -0.1781
23499W        W38630  13.547   8.982  12.818 -0.1149 -0.1754  0.1477
23500W        W38631  14.489   1.429  11.228  0.2035  0.2196 -0.2317
23501W        W38632  16.552  12.207   1.369  0.2896  0.0187  0.0008
23502W        W38633   3.583   8.086  14.851  0.2123 -0.2116  0.2904
23503W        W38634   8.253   6.158   5.186 -0.1466  0.0784 -0.1004
23504W        W38635   4.134   7.107  13.302  0.2517 -0.0955  0.1129
23505W        W38636   3.286   5.121   3.020 -0.1324  0.0127 -0.0374
23506W        W38637  16.053   9.714   2.206 -0.1039  0.1758 -0.1714
23507W        W38638   1.158   6.663   0.014 -0.1662  0.1323  0.1037
23508W        W38639   5.009   8.388  12.039 -0.0903 -0.0456 -0.0894
23509W        W38640  12.970   0.770   6.559 -0.0193  0.1152 -0.1823
23510W        W38641  10.432  12.444   4.763  0.0280  0.1441 -0.0516
23511W        W38642   1.239   4.972   0.009 -0.1048 -0.2281  0.0054
23512W        W38643   5.771   5.787  15.296 -0.2004 -0.2879 -0.1023
23513W        W38644   9.105   2.829  11.226  0.1986 -0.0974 -0.1398
23514W        W38645   5.772   0.418  14.986 -0.1123  0.1758  0.4637
23515W        W38646  15.050  14.712  12.033 -0.1484  0.0624  0.0115
23516W        W38647   7.649  15.459  15.530  0.0047 -0.2430 -0.3418
23517W        W38648   8.597   1.998   3.059 -0.0725  0.0986 -0.1078
23518W        W38649  11.948   3.956   0.595  0.0360 -0.4625  0.5253
23519W        W38650   8.052   4.318   2.186 -0.1397  0.1460  0.2722
23520W        W38651  12.841   2.964  16.110 -0.0697 -0.0016 -0.0415
23521W        W38652  10.018  14.441  14.732 -0.0620  0.1204 -0.1572
23522W        W38653  16.188  14.467  12.100 -0.2019 -0.1994 -0.1652
23523W        W38654   9.881  17.561   1.533  0.3126 -0.4814 -0.0310
23524W        W38655   0.189   4.201   0.280 -0.1079  0.1170 -0.0275
23525W        W38656  17.801  15.277   2.592  0.1910  0.0125  0.1436
23526W        W38657   0.806  16.609  14.312  0.0841 -0.0566 -0.1482
23527W        W38658  10.497   7.830  13.930  0.1456 -0.0137 -0.1682
23528W        W38659   0.223  15.708  15.989  0.1901 -0.0718  0.2795
23529W        W38660  10.984  10.579   4.250 -0.1344 -0.0109  0.0948
23530W        W38661   7.608   2.231   3.155  0.1167  0.1655  0.0434
23531W        W38662  12.199   4.216  13.271 -0.2005 -0.2834 -0.1357
23532W        W38663  10.515  12.984  16.695 -0.1294 -0.0101  0.1214
23533W        W38664  12.120   6.165   1.437  0.0089  0.2611  0.0605
23534W        W38665  14.178   8.237   3.039  0.0120 -0.1360 -0.3160
23535W        W38666   9.000  15.525   0.946 -0.1136 -0.0133 -0.2704
23536W        W38667  12.657  17.685  11.712 -0.2057  0.2207 -0.1873
23537W        W38668   1.529  16.867   1.191 -0.2369  0.2537 -0.1153
23538W        W38669   2.490  13.894  16.241  0.0587  0.0137  0.1310
23539W        W38670  12.095   3.708   1.979 -0.0327  0.1578 -0.0562
23540W        W38671  12.490   0.148  15.688  0.0682 -0.2849  0.0347
23541W        W38672   9.591   4.843   3.079  0.2023  0.0357 -0.1288
23542W        W38673  15.617   5.829   0.115  0.2424 -0.2244  0.0052
23543W        W38674  11.956   1.764   5.003 -0.0726 -0.2191  0.2052
23544W        W38675   0.285   8.220   6.581 -0.0481  0.1733  0.1967
23545W        W38676   5.089   5.896  16.330 -0.1774 -0.0950  0.1065
23546W        W38677  14.763   3.403   2.562  0.1616 -0.0614 -0.1840
23547W        W38678   1.646   8.654   2.347 -0.2705 -0.0920  0.2679
23548W        W38679  14.162  12.363   4.712 -0.1404  0.0129  0.2929
23549W        W38680   6.470  17.344  12.960  0.4589  0.0407  0.0429
23550W        W38681   0.417  12.113   5.599 -0.1210  0.2254  0.3488
23551W        W38682  14.614   8.919   2.938  0.1305 -0.0264 -0.0371
23552W        W38683  14.671   5.776   4.244  0.2468 -0.1209  0.0986
23553W        W38684   6.095  15.048  14.060 -0.0542 -0.1818 -0.0213
23554W        W38685   4.968   0.772  12.637 -0.0507  0.1939  0.3125
23555W        W38686  12.879   4.805  12.277 -0.2204  0.1231  0.1034
23556W        W38687   4.400   6.516  15.630  0.2617 -0.0367  0.1767
23557W        W38688   7.274  12.742   2.956  0.1492 -0.3574  0.0193
23558W        W38689  11.540  13.888  13.560 -0.1158 -0.1069 -0.0947
23559W        W38690  17.614  14.840   5.294 -0.0801  0.0444 -0.0489
23560W        W38691  12.845   2.410  14.068 -0.0952  0.0433  0.1587
23561W        W38692  16.171   3.179   4.966 -0.0367 -0.3503  0.2237
23562W        W38693  15.558   6.510  12.820 -0.2558  0.2805 -0.0822
23563W        W38694   5.648  13.807   1.269 -0.1374  0.1690  0.0223
23564W        W38695  16.716  10.178   0.189  0.0450 -0.0075 -0.0666
23565W        W38696  16.563  17.429  12.586  0.1199  0.0136 -0.2228
23566W        W38697   1.042  16.164  15.335 -0.0355  0.1650  0.1053
23567W        W38698  10.787   0.519  16.088  0.1594 -0.1887 -0.1398
23568W        W38699   4.275  15.596  12.028 -0.0260 -0.0067 -0.3454
23569W        W38700  14.746   2.389  11.801 -0.2651  0.0953  0.0794
23570W        W38701  17.548  16.605  16.031 -0.0253 -0.0798 -0.2670
23571W        W38702   9.817  11.871  12.989  0.3359  0.0515 -0.2239
23572W        W38703   6.600   5.349   0.218  0.1287 -0.1125  0.3433
23573W        W38704  15.430   7.664  14.834  0.0938  0.0126  0.2912
23574W        W38705  13.291   1.866  11.317  0.0338 -0.2001 -0.2802
23575W        W38706  10.884   4.553  11.786  0.0670 -0.0585  0.1616
23576W        W38707   1.182  11.153   1.543  0.1753  0.1418 -0.2710
23577W        W38708  11.568  15.737   4.122 -0.0990 -0.2316  0.0081
23578W        W38709   7.021  14.339  15.844  0.2069  0.0460  0.0804
23579W        W38710   7.290  10.510   3.825 -0.0699 -0.2713 -0.1137
23580W        W38711   9.876   1.247  12.103  0.1675  0.2612  0.1761
23581W        W38712   4.210  15.282   2.814 -0.1650  0.3997 -0.2424
23582W        W38713  14.346   7.461  16.733 -0.0500 -0.1745 -0.2013
23583W        W38714   1.530   3.726   2.424  0.0072 -0.1667  0.0924
23584W        W38715   1.967   5.476   6.095 -0.0096 -0.0216 -0.0551
23585W        W38716  14.126  16.831  14.313  0.1624 -0.0901 -0.0642
23586W        W38717   2.977   1.855   3.983 -0.0581  0.0539  0.2348
23587W        W38718  14.146  11.386   1.311 -0.0278  0.2445  0.0068
23588W        W38719  14.783   4.312   5.868 -0.3032 -0.0399  0.1937
23589W        W38720  13.337  10.385   2.377  0.1446 -0.2871  0.1419
23590W        W38721   0.483   1.738   5.167  0.1721 -0.0711  0.3252
23591W        W38722  10.233   5.542   1.093 -0.2226 -0.2098  0.1846
23592W        W38723   9.235  13.620  15.590 -0.1198  0.1386 -0.1277
23593W        W38724  17.213   9.193   3.653 -0.3933 -0.1872  0.0082
23594W        W38725   8.870   6.523  14.431  0.1597  0.1216 -0.0244
23595W        W38726   2.502   6.015   5.121  0.2205 -0.0013  0.2472
23596W        W38727  11.747   2.548  11.626  0.1929 -0.1230 -0.2067
23597W        W38728  13.917  11.825   2.014 -0.1676 -0.0765  0.1883
23598W        W38729   8.551  16.158   0.812 -0.1204  0.0629 -0.1550
23599W        W38730   1.671  17.295   0.620  0.0070 -0.0231  0.3284
23600W        W38731   0.661  13.918   5.516 -0.1755  0.3369 -0.1291
23601W        W38732  11.302   6.010   5.263  0.2429 -0.0509 -0.1305
23602W        W38733  16.635   2.521  16.461 -0.0677  0.1026  0.0179
23603W        W38734   6.560   7.225   5.367  0.3697  0.1821 -0.1320
23604W        W38735   6.161  16.919   4.091  0.0845 -0.4772 -0.1769
23605W        W38736  12.961  11.554  15.006 -0.3479  0.2309  0.0777
23606W        W38737  10.940  14.727   4.587 -0.2698  0.3527 -0.1290
23607W        W38738   7.402  17.507  13.928 -0.3383 -0.0751 -0.1031
23608W        W38739   4.308   2.064   4.808 -0.3245  0.1147 -0.0179
23609W        W38740  13.915  11.642   5.290  0.1445  0.0482 -0.0859
23610W        W38741   6.691   5.169   4.141 -0.0598 -0.2423 -0.1382
23611W        W38742   1.459   9.554   3.740 -0.2088  0.0805  0.3624
23612W        W38743   6.664  16.986   3.958 -0.2584  0.2340 -0.1603
23613W        W38744   1.084  16.298   5.133 -0.1335 -0.0761 -0.2355
23614W        W38745  17.490   1.577  16.659  0.1864  0.2207 -0.4464
23615W        W38746  14.381   7.778   5.543 -0.0776 -0.0076 -0.3212
23616W        W38747   2.051  11.413  11.409 -0.0358  0.1108  0.0203
23617W        W38748   8.655  11.058   3.580 -0.1309 -0.2607  0.2409
23618W        W38749   3.466  14.909   2.051 -0.0557 -0.0947  0.0178
23619W        W38750  16.611   4.658  13.799 -0.0548  0.1631 -0.2813
23620W        W38751   7.761   6.367   2.499 -0.1281  0.2973  0.1406
23621W        W38752   6.303  13.564  11.163 -0.0178 -0.0220  0.0116
23622W        W38753   6.877   0.234   4.498 -0.1520 -0.2907 -0.1265
23623W        W38754   7.046   0.751  14.887 -0.1304  0.2077  0.0871
23624W        W38755   7.784  17.395  14.285 -0.0245 -0.1500  0.3150
23625W        W38756  17.153   9.392   1.410 -0.0190 -0.0249  0.2623
23626W        W38757   3.799   2.296  14.060  0.1773 -0.0996 -0.3813
23627W        W38758  13.860   3.695   6.217 -0.2746 -0.2010  0.0962
23628W        W38759   0.463   0.112   1.133  0.0881 -0.0361 -0.3057
23629W        W38760  10.033   2.709  11.725  0.0364 -0.1666  0.1645
23630W        W38761   6.921  10.873  14.945  0.0626  0.1006  0.1460
23631W        W38762   4.587  11.631   5.403  0.2184 -0.3375 -0.0833
23632W        W38763  17.364   5.183   2.272  0.1925 -0.0133  0.0794
23633W        W38764   4.411  12.831  14.304  0.0825  0.2123  0.0213
23634W        W38765   1.772  16.977   3.902 -0.0713 -0.0178 -0.0908
23635W        W38766  11.511   6.222  15.247  0.1815  0.1101 -0.3427
23636W        W38767   2.218  13.604   0.887  0.3161 -0.0062 -0.0589
23637W        W38768   4.237  15.589  13.850 -0.2641 -0.1473 -0.1557
23638W        W38769   1.834   2.599   2.874 -0.0571 -0.0271  0.0599
23639W        W38770   9.206  14.872  16.535  0.1860 -0.1267  0.0156
23640W        W38771  10.025   0.081  16.667 -0.1442 -0.5205  0.3056
23641W        W38772  14.735   2.416   0.870  0.1410  0.1179 -0.1559
23642W        W38773   2.756  16.316  14.870  0.0064  0.0330  0.2675
23643W        W38774  16.652  16.774   2.745 -0.0180  0.1858  0.1412
23644W        W38775   7.606  10.265   1.149  0.3526  0.3070  0.2304
23645W        W38776   8.690   9.172   3.235 -0.1903  0.0311 -0.1850
23646W        W38777  12.142  14.004  13.936  0.2053 -0.1686  0.0888
23647W        W38778  11.727  17.449  13.548 -0.1960 -0.1982  0.4140
23648W        W38779  13.896   1.386  15.224  0.0388 -0.0219 -0.2742
23649W        W38780   6.456  13.112   4.487  0.2313 -0.0535 -0.0066
23650W        W38781   0.845   4.579  14.241  0.3911 -0.1560 -0.1304
23651W        W38782   8.436   9.721   2.749  0.1489  0.2656 -0.3079
23652W        W38783   8.621   7.179   3.371 -0.0091  0.0036 -0.3634
23653W        W38784   8.271  13.261  13.100 -0.2445 -0.0429 -0.2644
23654W        W38785   8.699   5.989  13.642  0.1670  0.2203  0.4120
23655W        W38786  10.087   5.392   4.883 -0.2179  0.0901  0.2584
23656W        W38787   8.364  11.247  14.615  0.1228  0.0729  0.1333
23657W        W38788  13.549  16.048  14.651 -0.1050 -0.5219  0.0335
23658W        W38789   7.530   0.168  12.486  0.0860 -0.2404  0.1629
23659W        W38790   8.633   0.315   2.009 -0.2998  0.0795  0.0654
23660W        W38791  14.650   4.144  10.874 -0.2147  0.1520 -0.0365
23661W        W38792  11.488   8.307  15.845 -0.1894 -0.0370 -0.1168
23662W        W38793  13.525   6.211   0.893  0.1786 -0.0319  0.0763
23663W        W38794  13.379  11.323   3.849  0.1066 -0.2100 -0.0479
23664W        W38795   8.631  15.165   0.944  0.0359 -0.1172 -0.1674
23665W        W38796  10.705  17.842  13.651 -0.0346  0.0701 -0.1468
23666W        W38797  15.178   8.262   5.115  0.0043 -0.0442  0.2640
23667W        W38798   6.397   3.104   3.452 -0.2379  0.1595 -0.2439
23668W        W38799  14.307   7.383   4.234 -0.2047  0.0536 -0.2016
23669W        W38800  17.446   7.076   0.718 -0.1263 -0.0050  0.2295
23670W        W38801   2.660  11.198  10.596 -0.0152  0.0738 -0.2518
23671W        W38802   4.653   8.093   4.592 -0.1082 -0.2252 -0.0751
23672W        W38803   9.558  16.295   1.221 -0.3020  0.2705 -0.3178
23673W        W38804   6.233  13.483  13.869 -0.0740 -0.3325  0.1104
23674W        W38805   2.084   7.130   4.490 -0.2582  0.0895 -0.3927
23675W        W38806   8.147  11.677  15.979 -0.3118 -0.1369 -0.2287
23676W        W38807  15.209   5.636   2.813 -0.1638 -0.0549 -0.2796
23677W        W38808  14.960  15.262  12.024  0.1919 -0.0292  0.1517
23678W        W38809  15.092   6.900   0.078 -0.2248  0.0791 -0.2700
23679W        W38810  17.647  10.189  16.557  0.1164  0.0122  0.1425
23680W        W38811  11.974   1.372   0.407  0.0129  0.1561 -0.1929
23681W        W38812  14.848   2.151  14.505 -0.1514 -0.2076 -0.0242
23682W        W38813   9.122   0.783  12.263 -0.0068 -0.0155 -0.0132
23683W        W38814  13.780   6.312   0.491  0.3001  0.3487  0.0708
23684W        W38815  10.418  10.165   2.865 -0.0680  0.2232  0.0085
23685W        W38816  10.706   4.950   2.178  0.0600 -0.0201  0.0342
23686W        W38817  14.383   8.761   4.053  0.0344 -0.3236  0.1336
23687W        W38818  11.385   8.265   2.620  0.4750 -0.2930  0.1235
23688W        W38819   7.151   6.061   0.837  0.0251 -0.2152  0.0503
23689W        W38820   4.900  12.757  12.100 -0.1175 -0.1314  0.1769
23690W        W38821  16.142  13.063   6.180 -0.0700  0.1830 -0.1409
23691W        W38822   8.197  11.915   5.350 -0.1055 -0.2013  0.2996
23692W        W38823   2.189   8.668  13.177  0.1273 -0.1331 -0.0014
23693W        W38824   6.313   2.714   3.064 -0.2629  0.4473 -0.0351
23694W        W38825   6.702   0.198   0.537  0.1556  0.1394 -0.1209
23695W        W38826   2.148   9.990  15.884 -0.0170  0.2479 -0.1178
23696W        W38827   3.392  14.815  15.210 -0.1086 -0.1661 -0.0846
23697W        W38828   9.912   5.651   2.889 -0.0594  0.0897  0.2811
23698W        W38829  13.113  11.493   1.137 -0.2571  0.1010  0.2061
23699W        W38830   1.959   3.381   0.303 -0.0249 -0.5608 -0.2747
23700W        W38831   8.007   5.271  11.965  0.1890  0.2183  0.2502
23701W        W38832  17.568   1.683   5.991  0.0215 -0.1249  0.0620
23702W        W38833   1.534   8.825  12.347 -0.0863 -0.1336  0.0948
23703W        W38834  15.246   0.755  13.666 -0.2950  0.0590  0.0344
23704W        W38835   8.186   9.436  12.782  0.3750 -0.1109 -0.2149
23705W        W38836   7.049  16.508  12.182  0.1700 -0.0326 -0.0533
23706W        W38837  13.287   4.707   5.051  0.0146  0.0912  0.2813
23707W        W38838   5.901  16.896   5.604  0.3387  0.2685  0.2503
23708W        W38839   7.576  13.783   0.314  0.0141  0.2531 -0.1105
23709W        W38840   2.444   5.992   3.465  0.0297  0.2189  0.0640
23710W        W38841   4.734  17.580  15.905  0.0307  0.1016  0.1890
23711W        W38842   2.133  16.176   4.207  0.0356 -0.1409  0.1391
23712W        W38843   8.671  11.626   5.223 -0.5003 -0.3768  0.2399
23713W        W38844   0.461  14.459   6.259 -0.0062  0.4719 -0.0566
23714W        W38845   4.816   7.752   0.894 -0.0280  0.1883  0.2299
23715W        W38846  14.353   6.132  16.339 -0.0407  0.1047 -0.1689
23716W        W38847   3.887   3.845   2.297  0.1920 -0.2215 -0.0833
23717W        W38848   5.645  15.267  13.989 -0.1258 -0.2057  0.1076
23718W        W38849   5.315  11.671   4.277  0.0914 -0.0540 -0.3359
23719W        W38850   5.021   2.182   5.559  0.0713 -0.0092 -0.1188
23720W        W38851   7.138   1.793  12.909  0.0376  0.0923  0.0346
23721W        W38852  16.849   6.118   2.659  0.2819 -0.0965 -0.0815
23722W        W38853   1.369  11.433   2.110 -0.2035 -0.1360  0.0117
23723W        W38854   0.492   4.953   2.981  0.1313 -0.1474 -0.1690
23724W        W38855   5.306   5.136  15.350  0.2161  0.2122  0.0247
23725W        W38856  10.722  13.279   0.926 -0.1378 -0.0743  0.1381
23726W        W38857   3.835   3.947   0.448 -0.2595 -0.0524  0.1035
23727W        W38858   5.085   6.187   3.676  0.1258 -0.0267  0.1351
23728W        W38859  11.877   8.024   4.259 -0.0587  0.3394 -0.0516
23729W        W38860  14.306  17.653  14.367  0.1591  0.0939  0.1523
23730W        W38861  16.065  10.616   1.456  0.1581  0.0894 -0.1107
23731W        W38862  16.928   4.823   1.238  0.0636  0.3336  0.1863
23732W        W38863   0.236   6.837  11.208  0.0158  0.0066 -0.0222
23733W        W38864  13.216   5.535  15.895 -0.0533 -0.1770  0.0133
23734W        W38865  16.573   5.367  11.988  0.5274  0.0856  0.4330
23735W        W38866   4.792   4.545  10.854 -0.0393 -0.0341 -0.1585
23736W        W38867   2.449   9.554   1.028  0.1837 -0.1335  0.0299
23737W        W38868   9.312   2.772   3.306 -0.1641 -0.0417  0.3075
23738W        W38869  15.817   6.267  11.814 -0.3750  0.0433 -0.0076
23739W        W38870  14.742  15.707  12.830  0.1191  0.0272  0.0641
23740W        W38871   2.874   4.419   4.704 -0.3712  0.0406  0.2793
23741W        W38872  12.723   6.476  14.802  0.1321  0.1057  0.0787
23742W        W38873   6.611   1.599   4.456  0.0633 -0.3329 -0.1296
23743W        W38874   3.781  10.192  13.378 -0.2828  0.5319 -0.1563
23744W        W38875   2.121  17.526  14.266 -0.0453  0.1354  0.1120
23745W        W38876  13.166  13.241  14.098 -0.2025  0.1169  0.1598
23746W        W38877   3.614   9.814   1.387 -0.1399  0.0421 -0.1600
23747W        W38878  13.925  15.077  11.178 -0.0076 -0.2045  0.2345
23748W        W38879   5.548   3.590  11.295  0.0764 -0.0602  0.1097
23749W        W38880   1.310   9.763  12.645 -0.0190 -0.0054 -0.0782
23750W        W38881   3.256  11.880   3.594  0.0433  0.1352  0.1252
23751W        W38882   4.489  11.471  16.699  0.5645  0.0215  0.0046
23752W        W38883   8.733  11.233  12.565 -0.0246 -0.2157 -0.1173
23753W        W38884   0.614   9.201   3.629 -0.1297 -0.0480 -0.0708
23754W        W38885   5.899  16.366  14.187  0.3008  0.1340 -0.0340
23755W        W38886  10.094   0.574   0.069  0.1933 -0.0957  0.0951
23756W        W38887   7.220   2.372   0.407  0.0286  0.2757  0.0797
23757W        W38888   8.446  13.360  12.548 -0.0014 -0.2692 -0.0858
23758W        W38889  12.499  13.530  15.333  0.3908  0.1293  0.1775
23759W        W38890  17.375   0.321   0.376  0.2816  0.0175  0.0305
23760W        W38891  16.738   3.048  12.068  0.3731 -0.1727 -0.0928
23761W        W38892   9.505   0.853  15.372 -0.1581  0.1941  0.2306
23762W        W38893  16.152  11.444   1.084 -0.1398 -0.1430  0.2414
23763W        W38894   7.863   8.966  15.154  0.0767 -0.1359 -0.0269
23764W        W38895   8.395   9.326  16.536 -0.3037  0.2157 -0.1244
23765W        W38896   8.430  16.637   2.421  0.0828 -0.0646  0.0304
23766W        W38897   5.256  11.811   6.005 -0.0594 -0.2126  0.0183
23767W        W38898   3.266   2.368  11.678 -0.3819  0.1703 -0.0825
23768W        W38899  12.247  11.847  16.426 -0.0377 -0.1016  0.0790
23769W        W38900   6.644  12.326   3.375 -0.3708 -0.5917  0.2000
23770W        W38901   8.589  12.702  11.214  0.2865  0.0043 -0.2317
23771W        W38902  10.127   1.681   0.792 -0.0250 -0.2932  0.4563
23772W        W38903  15.607  16.099   2.676 -0.0788  0.1657 -0.2113
23773W        W38904   1.756   1.921  12.070 -0.4580 -0.2342 -0.0728
23774W        W38905   8.759  13.059   5.591  0.0667 -0.3000 -0.1821
23775W        W38906  16.085  11.176   5.641  0.1104  0.0451 -0.0002
23776W        W38907  15.388  13.328  12.236  0.0942 -0.2000  0.2796
23777W        W38908   8.897   1.118  15.253 -0.0740  0.0069  0.0155
23778W        W38909   5.403   5.508  16.458  0.1380 -0.0528 -0.1499
23779W        W38910   5.830  14.388  13.373 -0.0216 -0.1319 -0.0194
23780W        W38911   9.191   4.332   3.891 -0.1358  0.3090 -0.0041
23781W        W38912  12.911   8.029   6.144  0.0425  0.0690 -0.0213
23782W        W38913  14.553  10.866   2.853  0.1072  0.0124 -0.2156
23783W        W38914  14.250   9.954  14.663 -0.0658 -0.0049  0.2464
23784W        W38915  15.240   0.366  13.300 -0.4248 -0.0585  0.2315
23785W        W38916  15.309  13.143  13.948  0.1385  0.1216  0.0857
23786W        W38917  11.347   9.564   3.630  0.1362  0.1315  0.0537
23787W        W38918   2.737   9.350   4.273 -0.0194 -0.0106  0.1937
23788W        W38919   9.340  15.715  15.607 -0.0829  0.3334 -0.1707
23789W        W38920   1.444  16.908  15.665  0.2826  0.0729 -0.5970
23790W        W38921  15.382   9.539   1.107  0.1150 -0.1629 -0.2139
23791W        W38922   7.182   8.636   5.404 -0.1661  0.1299  0.3495
23792W        W38923   1.649   3.094   0.652 -0.1080 -0.1318 -0.0389
23793W        W38924   2.030   5.916   0.916  0.0024  0.1149  0.3625
23794W        W38925   7.379  13.298   0.470  0.2524 -0.2419 -0.1213
23795W        W38926   9.742   7.646  15.056 -0.0051  0.0354  0.0229
23796W        W38927   8.960  12.915  16.533 -0.3310  0.0823  0.1734
23797W        W38928  16.515  16.169  14.435 -0.0684  0.1042  0.4012
23798W        W38929  17.551   4.580  12.051  0.1467 -0.1200  0.1368
23799W        W38930   6.928  12.733   2.138  0.1092  0.0960  0.0093
23800W        W38931   4.900   5.393  16.245  0.0775 -0.1304  0.2589
23801W        W38932   2.133   8.189  13.128  0.1030  0.0367  0.0597
23802W        W38933  10.177  12.730  15.568  0.1685 -0.0765 -0.0436
23803W        W38934   3.516   9.406  13.333 -0.0859 -0.0635 -0.0664
23804W        W38935   2.510   2.074  13.613 -0.2716  0.3692  0.1549
23805W        W38936  13.087  10.620   3.255  0.0803  0.3416 -0.0170
23806W        W38937  11.778  14.267   4.986  0.1162  0.0378  0.3786
23807W        W38938  16.454  17.232   4.466 -0.0962  0.0334  0.0383
23808W        W38939  17.182   0.853   1.057 -0.0066 -0.1019 -0.1611
23809W        W38940  14.190   2.039   0.548  0.0507 -0.2561 -0.1793
23810W        W38941  10.560  15.565   2.004 -0.0869 -0.2610  0.0933
23811W        W38942  16.419   8.010  14.960  0.0261  0.2184 -0.2307
23812W        W38943   6.218   6.182  11.798  0.0509  0.2291 -0.1722
23813W        W38944   1.102  13.313  16.626 -0.0079  0.2036  0.0615
23814W        W38945   1.705   1.454   4.625  0.0888 -0.1460  0.0468
23815W        W38946   8.164   3.734  16.338  0.4076 -0.0512 -0.3370
23816W        W38947   7.241  17.727   2.315  0.1368  0.1601 -0.1336
23817W        W38948  15.290  17.234   6.185  0.2688 -0.1333 -0.2405
23818W        W38949   2.653   5.246  12.552  0.1344 -0.0121  0.2627
23819W        W38950  10.258   4.333  15.088  0.2411 -0.2840 -0.1226
23820W        W38951  11.395   5.006  12.482  0.1310  0.0676  0.0368
23821W        W38952  17.838   5.288   2.599  0.0989  0.0491 -0.0515
23822W        W38953  11.769   3.866   4.744 -0.1511 -0.5136 -0.1263
23823W        W38954  15.357  11.815   3.759 -0.0914  0.1128  0.0808
23824W        W38955   9.374   0.301  10.274  0.2442  0.1718 -0.0266
23825W        W38956  16.475  13.582  12.249  0.0228 -0.0353 -0.0341
23826W        W38957  10.770   2.815   3.995 -0.0928  0.2528 -0.1529
23827W        W38958   0.227  14.894  12.371 -0.0914 -0.1950  0.2064
23828W        W38959  13.094  10.132  15.259 -0.1769 -0.2531 -0.0732
23829W        W38960  16.660  11.080  15.194  0.0827 -0.3125  0.0403
23830W        W38961  10.796  10.817  14.660 -0.0964 -0.1805 -0.1273
23831W        W38962  15.713  16.004   5.087 -0.2611  0.1320 -0.2245
23832W        W38963  15.078   4.867  15.973 -0.2002 -0.1476 -0.1667
23833W        W38964   7.722   2.118   1.654  0.1646 -0.0365 -0.0895
23834W        W38965   2.036   3.358   5.246 -0.1492  0.3068 -0.0380
23835W        W38966  17.436  11.002   5.055  0.0493  0.0490 -0.2010
23836W        W38967  11.128  13.735   0.253 -0.1947 -0.0987 -0.1048
23837W        W38968   2.480   5.724   4.327 -0.1787  0.1756  0.0520
23838W        W38969   7.019   3.146   1.854  0.2606 -0.3201 -0.1863
23839W        W38970   4.329  17.485  14.998 -0.4300 -0.0172 -0.1795
23840W        W38971   9.422   8.944   0.722 -0.2104  0.1144  0.0334
23841W        W38972   8.941  14.667   2.539  0.0196 -0.1171 -0.1257
23842W        W38973  11.739  11.444   5.449 -0.0557  0.1439  0.0122
23843W        W38974  13.151   3.309  14.325  0.0480 -0.2351  0.0776
23844W        W38975  11.060   7.843   3.963 -0.2542 -0.2537  0.0045
23845W        W38976  10.929   2.038  11.625  0.1511 -0.1216 -0.0321
23846W        W38977   1.527  12.453   4.508 -0.1262  0.0388 -0.3576
23847W        W38978   8.622   4.546  14.132 -0.0899 -0.2063  0.0325
23848W        W38979   4.546  15.016   4.758 -0.0148 -0.2402 -0.3076
23849W        W38980  15.183   9.491   5.242 -0.0465  0.2726 -0.0221
23850W        W38981  16.417   2.539  13.147 -0.1435 -0.0210 -0.1870
23851W        W38982   0.239   8.141  13.544  0.0434 -0.0290  0.1870
23852W        W38983  16.840  15.926   2.950 -0.0808  0.1010 -0.0373
23853W        W38984   4.597   7.427  14.458  0.2228  0.1559 -0.0627
23854W        W38985  16.482  13.468   0.286  0.0487  0.0806  0.0984
23855W        W38986  12.848   1.387  12.377  0.3226 -0.2721 -0.3283
23856W        W38987   2.792  13.058   4.977 -0.1144  0.2110 -0.3195
23857W        W38988  13.524   5.611   5.994 -0.0852  0.0818  0.3152
23858W        W38989   9.758  16.957   5.215  0.3164 -0.0429 -0.0583
23859W        W38990  14.684   4.231   1.564 -0.0257 -0.0452  0.1765
23860W        W38991   6.874   4.435   5.245  0.0754 -0.1680 -0.0220
23861W        W38992   1.607   5.023   5.331 -0.0646  0.3353  0.1286
23862W        W38993   9.218   0.825  14.949  0.0274 -0.0300  0.2784
23863W        W38994  11.287   1.269   0.076  0.0428 -0.1075  0.2466
23864W        W38995   1.984  13.202   2.208  0.2221 -0.0973  0.1985
23865W        W38996   2.363  14.899   0.197  0.2133 -0.0179  0.2436
23866W        W38997   8.394  15.782   4.644  0.3699 -0.3007 -0.1574
23867W        W38998   0.765  14.978   1.014 -0.1375  0.1354  0.1002
23868W        W38999  14.221  14.414   1.283 -0.0102 -0.1677 -0.1221
23869W        W39000  13.513   1.722  11.759 -0.2860 -0.1410  0.1455
23870W        W39001   6.290   0.687  12.743 -0.0142  0.0799 -0.0731
23871W        W39002  14.477  10.329  12.329  0.0110 -0.0480  0.0040
23872W        W39003   1.784   9.175   4.047  0.1319 -0.1766  0.0272
23873W        W39004  16.487   9.873   0.514 -0.3314 -0.0726 -0.0046
23874W        W39005  11.989   3.157  14.847  0.0707 -0.0550  0.0581
23875W        W39006  16.395   1.713   1.360 -0.1022  0.2783 -0.1264
23876W        W39007   3.849  15.342  14.780 -0.0334 -0.3579 -0.0336
23877W        W39008  11.460   6.764  13.896 -0.3283 -0.3865  0.0530
23878W        W39009   7.919   7.922  15.613  0.5961  0.0405 -0.0346
23879W        W39010  13.167  14.500   4.749 -0.0458 -0.1087  0.0798
23880W        W39011   7.682   6.184   3.319 -0.0840  0.2010 -0.0499
23881W        W39012   5.397   5.530  15.035 -0.1652 -0.1883 -0.1388
23882W        W39013  17.709  16.796  14.040  0.1739  0.2368  0.0040
23883W        W39014  12.261  12.251  14.040  0.3877  0.4339  0.0582
23884W        W39015   1.830  13.525  15.883 -0.0986  0.1217 -0.2377
23885W        W39016  14.863  16.371  13.727  0.0150 -0.3458  0.0141
23886W        W39017  12.183  10.192  10.466  0.1374  0.1534 -0.1954
23887W        W39018  15.644   0.597   5.567  0.1501 -0.2060  0.2964
23888W        W39019  16.806   8.946   4.988  0.2198 -0.1203  0.0080
23889W        W39020   6.855   4.849  16.156 -0.0230 -0.0169  0.1041
23890W        W39021   9.634  16.621  13.638 -0.1252  0.0491 -0.0318
23891W        W39022  11.823  12.304   4.945  0.1770 -0.1142 -0.0449
23892W        W39023  10.185   3.307  14.011  0.0464 -0.1133 -0.0714
23893W        W39024   9.792   7.250   5.577  0.0602  0.0113  0.1462
23894W        W39025   4.711   0.998   1.953  0.1233 -0.2722 -0.0490
23895W        W39026  15.228  17.834  14.900  0.0912 -0.1439  0.0350
23896W        W39027   6.167   7.141  15.417 -0.1912 -0.2091  0.0069
23897W        W39028   4.468  13.478  15.918  0.0745  0.1966  0.1471
23898W        W39029   5.561   2.536  14.347  0.2095 -0.0010 -0.0996
23899W        W39030   4.909  11.889   2.773 -0.3239  0.1207  0.2162
23900W        W39031   9.359  16.239   3.926  0.2287 -0.0374  0.1886
23901W        W39032  15.007   4.345  14.274 -0.0044  0.0389  0.0343
23902W        W39033  17.271   6.594  14.663  0.1518  0.1090  0.1033
23903W        W39034  15.027   3.003   1.575  0.0111 -0.1208  0.0806
23904W        W39035   0.269   4.507  12.333  0.2673 -0.0573  0.3181
23905W        W39036   5.969   4.602   1.105 -0.1566 -0.0155  0.1596
23906W        W39037  17.002   9.621   2.121  0.1536 -0.0156 -0.2590
23907W        W39038  13.972   5.102   0.989  0.0860  0.1495  0.0140
23908W        W39039   4.212   8.041   5.331 -0.1061 -0.2039  0.3791
23909W        W39040  12.185   3.958   3.916  0.0370 -0.0528  0.0149
23910W        W39041   9.719   8.702  13.306  0.1301 -0.1642  0.1356
23911W        W39042   8.558   7.927   1.032  0.2291  0.2849  0.1118
23912W        W39043   2.555  13.964  13.513 -0.0714  0.2084  0.0032
23913W        W39044   2.004  15.075   5.982 -0.0888  0.0978 -0.0171
23914W        W39045  17.604  17.491  12.150  0.0463 -0.0772  0.1173
23915W        W39046   6.330  10.414  11.646  0.0490  0.0375 -0.1640
23916W        W39047   2.281  10.173  12.018  0.5135  0.0112  0.1272
23917W        W39048   3.653   9.537  16.013  0.2712 -0.3210 -0.2062
23918W        W39049  16.359  17.217  16.212  0.2122 -0.1025 -0.0976
23919W        W39050  15.986  15.159  15.456 -0.0994  0.0460 -0.0651
23920W        W39051   8.143   9.329   3.642 -0.2489  0.1467  0.0050
23921W        W39052  13.401  14.077   1.431  0.2256 -0.1056 -0.0605
23922W        W39053   3.570   1.137   5.112  0.3551  0.1576 -0.1646
23923W        W39054  11.538  13.158  11.693 -0.1043  0.2159  0.0511
23924W        W39055   1.844   2.087  12.928  0.0491  0.0427 -0.1504
23925W        W39056   0.883  11.773  14.030  0.0908  0.0828 -0.0830
23926W        W39057  17.022   2.799   2.426 -0.1047 -0.2197  0.0703
23927W        W39058  12.415   6.623  16.124  0.1601 -0.3314 -0.2089
23928W        W39059   4.472  12.538  12.004 -0.0832 -0.1759 -0.0207
23929W        W39060  13.269  13.965  13.361 -0.2598 -0.1817  0.2322
23930W        W39061  14.597  14.212  15.427 -0.1013 -0.1418  0.4089
23931W        W39062  14.255  17.446   0.429 -0.0356 -0.2866  0.0436
23932W        W39063  11.261  15.452  10.617 -0.0118  0.0157  0.1005
23933W        W39064   3.253   8.741  11.658  0.3766 -0.1526 -0.2532
23934W        W39065   9.821   5.001  12.180  0.0182  0.0535  0.0285
23935W        W39066  16.171   3.917  14.941 -0.2832  0.1449  0.2411
23936W        W39067  14.076   9.229  13.610 -0.0187  0.2408  0.1584
23937W        W39068  17.408   6.256  15.915 -0.0178  0.0061  0.1073
23938W        W39069  10.948   7.495  16.366 -0.1534 -0.0844  0.1210
23939W        W39070   2.791   8.167  12.628 -0.0046 -0.1685 -0.1259
23940W        W39071  10.100   5.502  15.905  0.1126  0.0464  0.0652
23941W        W39072  13.198   5.133  15.396  0.1608  0.3202  0.0298
23942W        W39073   1.415   9.436  11.528 -0.1286  0.1537  0.2832
23943W        W39074   4.444  11.886  15.814 -0.2674  0.2950 -0.1684
23944W        W39075   8.405  12.439   0.508  0.0571 -0.1087 -0.0498
23945W        W39076  16.041   3.425   1.039  0.1090 -0.1480 -0.0531
23946W        W39077   8.374  16.086   1.722  0.1073  0.2347 -0.4913
23947W        W39078  16.415   4.555   3.915 -0.0740  0.0981  0.1119
23948W        W39079   2.803  14.036  13.915  0.1050 -0.0738 -0.1308
23949W        W39080  12.175   5.664  15.942  0.1101  0.2005 -0.1296
23950W        W39081   6.532   9.737  11.815 -0.0247 -0.1208 -0.1403
23951W        W39082   8.847  14.732   0.129  0.1422 -0.0344 -0.0157
23952W        W39083  16.644   4.380   2.848 -0.1619  0.0097 -0.2128
23953W        W39084  11.439   3.179   2.443  0.1378  0.2245 -0.1183
23954W        W39085   1.894   4.430   3.849 -0.1266  0.3558  0.1455
23955W        W39086   3.375  15.009   4.188  0.0214 -0.2053 -0.1573
23956W        W39087   8.656  16.643  11.431  0.2590 -0.2797  0.4896
23957W        W39088  15.800   9.820   5.859 -0.1479  0.0201  0.1619
23958W        W39089   9.354   9.976   5.904 -0.0511  0.1960 -0.0719
23959W        W39090   5.453   0.510  16.670 -0.0291  0.0044  0.2172
23960W        W39091  12.987   0.108  11.307  0.1838  0.0195 -0.2503
23961W        W39092   8.781  11.929  13.939 -0.1719  0.1256  0.3062
23962W        W39093   4.731   3.501   1.183  0.1952  0.1223  0.3329
23963W        W39094   3.932  12.507   3.843 -0.0113 -0.4200  0.0749
23964W        W39095  12.326   4.355  11.573 -0.1036 -0.4013 -0.0320
23965W        W39096   2.642   9.912  11.083 -0.1614  0.3984  0.1010
23966W        W39097   7.515   2.449  13.591 -0.2965  0.4481 -0.1561
23967W        W39098   4.633   5.473  10.925 -0.0756  0.1825 -0.0828
23968W        W39099   2.534  13.696  12.612 -0.0348  0.1247  0.1818
23969W        W39100   5.949   6.510  14.005  0.1387  0.0145 -0.0488
23970W        W39101   7.293   3.644  11.598 -0.0803 -0.1637 -0.1227
23971W        W39102   8.226  10.213   5.101 -0.0376  0.4169 -0.0521
23972W        W39103  17.880   7.398  15.926 -0.1810 -0.0004 -0.2102
23973W        W39104   2.855  13.820  15.415 -0.3539  0.0905 -0.0768
23974W        W39105  11.174  12.765  13.090  0.1323 -0.0769 -0.3687
23975W        W39106  13.383   2.956   0.228 -0.2349  0.2101  0.0310
23976W        W39107   4.855   7.128   5.932  0.1711 -0.0175  0.1506
23977W        W39108  14.257   0.580   5.842 -0.1467 -0.0957 -0.3915
23978W        W39109  13.601   4.613   3.478 -0.2683  0.1843  0.0648
23979W        W39110   2.183   5.212   3.225  0.1183 -0.0545 -0.0869
23980W        W39111   8.264   7.651   2.724 -0.1335  0.4317 -0.0142
23981W        W39112  12.871   3.668   4.293  0.0391 -0.0910 -0.0597
23982W        W39113   0.226   1.324  14.628  0.0085 -0.1697  0.1858
23983W        W39114  13.556   0.782   2.272  0.1312  0.2347  0.0687
23984W        W39115   9.073   2.677   4.720 -0.0216 -0.2451 -0.0616
23985W        W39116   5.127   8.199   2.715 -0.2768 -0.1851  0.1831
23986W        W39117  17.371   4.403   0.840 -0.1610 -0.1323  0.0888
23987W        W39118   3.552  17.121  15.346 -0.1769  0.1362 -0.1471
23988W        W39119   6.095   3.615   5.740  0.2247 -0.2356 -0.0666
23989W        W39120  13.607   4.005  14.134 -0.3058 -0.2206 -0.4794
23990W        W39121  15.157  15.860   2.807 -0.1199  0.1037  0.1019
23991W        W39122  16.372  10.463  13.779 -0.0680 -0.0769 -0.1861
23992W        W39123   0.029   1.908  13.683  0.0573  0.4308  0.1900
23993W        W39124   7.925   9.050  16.447  0.0297  0.2417 -0.1720
23994W        W39125   7.392   8.132  15.302  0.0920  0.0465  0.1898
23995W        W39126  14.005  12.716  14.268 -0.1134  0.1845 -0.0435
23996W        W39127   1.345  12.449  11.717 -0.0082 -0.2150 -0.1563
23997W        W39128  12.977   5.393   5.248 -0.0203 -0.0114 -0.1632
23998W        W39129  15.095   5.572  12.866 -0.1648  0.0018  0.1666
23999W        W39130   2.000   9.264  11.630 -0.3011  0.1458  0.1221
24000W        W39131  17.547   8.894  15.970 -0.0862  0.2715 -0.3368
24001W        W39132   2.464   5.086   4.731 -0.0178  0.2104 -0.4050
24002W        W39133   2.198   0.627   3.066 -0.2897 -0.0522 -0.0612
24003W        W39134   5.211   8.134  15.194  0.0709 -0.2152  0.0805
24004W        W39135   0.795  13.976   5.037 -0.0305 -0.2819  0.1587
24005W        W39136  14.567  17.601  15.418 -0.1052  0.3338  0.2508
24006W        W39137  15.843   3.574  12.457  0.2496 -0.2410  0.0967
24007W        W39138   6.102   9.586  15.128  0.0889  0.2295  0.2334
24008W        W39139  16.593  16.790  16.194  0.0070  0.2019 -0.2200
24009W        W39140  11.298  11.363   4.115  0.0487 -0.1346  0.0969
24010W        W39141   7.358  12.075   4.979  0.3031  0.0393  0.1973
24011W        W39142  17.025  11.965  11.038  0.1598  0.1443 -0.0225
24012W        W39143  15.955   9.860   5.359 -0.0894  0.0216 -0.0745
24013W        W39144  11.043   6.388  15.422 -0.2398  0.1093  0.0066
24014W        W39145  12.384   3.923  16.393 -0.0852 -0.0937 -0.1715
24015W        W39146   7.151   3.210  15.623  0.1220 -0.0828  0.1148
24016W        W39147   9.275   6.609   2.998 -0.0943  0.0573  0.0246
24017W        W39148   0.855  17.548  11.340 -0.0989 -0.0486  0.0669
24018W        W39149   8.118   8.800  16.038 -0.2865 -0.1156 -0.0951
24019W        W39150  10.748   2.336   4.627 -0.4273 -0.1193 -0.2090
24020W        W39151   0.946   9.913   2.015 -0.1235 -0.2730  0.0980
24021W        W39152  11.343  13.711  11.802 -0.0514 -0.0639 -0.0316
24022W        W39153  11.763  14.341  11.550 -0.2442 -0.1655  0.0717
24023W        W39154  12.345  15.268  12.754  0.0326 -0.0326  0.3478
24024W        W39155   1.732  16.960  12.822 -0.1720 -0.1599  0.0559
24025W        W39156  17.032   3.449   0.861  0.0873 -0.0608  0.1530
24026W        W39157  10.239   9.324   1.246  0.2183 -0.0795  0.2358
24027W        W39158  14.832  11.826  16.433  0.2264  0.1390 -0.1338
24028W        W39159  12.111   2.493   1.337 -0.1877  0.0293  0.0321
24029W        W39160   8.934   7.023  14.529  0.2962 -0.2002 -0.0415
24030W        W39161   9.451   6.489  10.465 -0.1412 -0.4187  0.1062
24031W        W39162   2.777  17.377  14.092  0.0364  0.0226 -0.1394
24032W        W39163  12.628   8.684   2.381  0.1081 -0.0048  0.2993
24033W        W39164   2.668   4.177   3.833  0.1464  0.0376  0.3452
24034W        W39165   1.176   5.021   0.480  0.3515  0.2495 -0.2500
24035W        W39166  17.293  14.998   4.748 -0.0489 -0.2250 -0.0092
24036W        W39167  12.968   8.507  11.102  0.0078 -0.4676  0.0226
24037W        W39168  11.572   8.409  14.715  0.2214  0.1458 -0.1243
24038W        W39169  13.107  10.012  10.926 -0.3162  0.1331  0.0088
24039W        W39170  16.571   9.968   2.176  0.0528  0.1675  0.2574
24040W        W39171  12.736  14.599  11.896  0.2376  0.0107  0.1402
24041W        W39172   9.655  12.984  11.919  0.1801 -0.2127 -0.1283
24042W        W39173   0.620  15.599   2.323 -0.0376  0.3290 -0.1729
24043W        W39174   2.429  10.692  14.843 -0.0156  0.0815 -0.1982
24044W        W39175  10.460  10.244   4.611  0.0363 -0.1175 -0.5245
24045W        W39176   9.048   4.139   4.772 -0.0266 -0.2339 -0.1096
24046W        W39177  12.621  10.295   2.585  0.2172  0.1926 -0.0307
24047W        W39178   5.145   5.429  13.988 -0.1993  0.3162  0.1325
24048W        W39179  13.643  10.954  11.438  0.1321 -0.0701 -0.0866
24049W        W39180   5.499  11.744  13.485 -0.0578  0.1877 -0.0059
24050W        W39181   2.311  16.275  12.339 -0.1186 -0.2672 -0.1607
24051W        W39182   0.526   7.200  11.543 -0.1688  0.1028  0.2614
24052W        W39183   7.788   9.818   1.035  0.2155 -0.0659  0.0687
24053W        W39184  10.309   9.211   5.389  0.1102 -0.0258  0.1114
24054W        W39185  12.384  16.961   2.799  0.1951 -0.2723 -0.1007
24055W        W39186  15.295   0.393  16.333 -0.0116 -0.3141 -0.0451
24056W        W39187   5.890  12.682  13.339 -0.0095  0.0621 -0.0698
24057W        W39188   8.429   3.690   0.065  0.1565 -0.4629  0.1992
24058W        W39189   6.735   2.732   3.645 -0.0037 -0.1187  0.2109
24059W        W39190   4.075  17.225  15.479  0.1603 -0.1273 -0.2506
24060W        W39191  15.547   9.043  13.548 -0.2713 -0.1407  0.0727
24061W        W39192  17.057  12.064   1.017  0.3210  0.1968 -0.0383
24062W        W39193  16.575  14.356   1.142  0.1275 -0.0280  0.1309
24063W        W39194   7.701   4.138  14.532  0.1102 -0.3368  0.2016
24064W        W39195   8.611  11.494  12.929  0.0596 -0.2773  0.0449
24065W        W39196   0.372   0.848  14.433 -0.1743  0.0163 -0.0687
24066W        W39197  12.746   3.807  15.112 -0.1435 -0.0056  0.3206
24067W        W39198   5.464   4.437  16.143  0.1286  0.0116  0.3706
24068W        W39199   2.794   9.442  12.086  0.1476 -0.1356  0.4298
24069W        W39200   5.971  11.917  13.007 -0.0791  0.1082  0.1128
24070W        W39201  10.857  13.215  12.727  0.0374  0.0851  0.0180
24071W        W39202  16.678  12.671   4.314 -0.2106  0.2000 -0.0054
24072W        W39203   2.425   0.270  16.110 -0.0839  0.1809 -0.1818
24073W        W39204  14.792  10.522  12.701 -0.0976  0.2067 -0.4137
24074W        W39205   4.863  10.411   2.213 -0.1137  0.0912  0.0167
24075W        W39206  17.270   7.289   1.615 -0.0393  0.0739 -0.0644
24076W        W39207   5.413  12.003  13.033 -0.1383  0.0703  0.1209
24077W        W39208  10.522  13.743   4.331  0.4541 -0.2104 -0.0510
24078W        W39209   9.053   3.374   5.065 -0.0482  0.0628 -0.0940
24079W        W39210  14.470   3.609   2.143  0.4048 -0.1159 -0.0271
24080W        W39211   0.545  11.005   3.927 -0.0119  0.2536 -0.2247
24081W        W39212   4.548  17.265  12.429 -0.1059  0.1385  0.1719
24082W        W39213  16.067   9.664  11.918 -0.0090 -0.1272  0.2362
24083W        W39214   5.082   7.297   0.805 -0.2653  0.1172 -0.0532
24084W        W39215   6.114  17.723  12.891  0.2534  0.2518  0.0560
24085W        W39216  16.672  10.939  12.675  0.0013  0.3820  0.1683
24086W        W39217   8.601  13.177   0.920  0.3074  0.0508  0.2432
24087W        W39218   1.485   8.690   0.020  0.0662 -0.0986 -0.0640
24088W        W39219  12.953   8.409   0.610 -0.0437  0.1314  0.0664
24089W        W39220  13.353  16.784  12.839 -0.2531  0.3292 -0.0814
24090W        W39221   0.754  13.072  13.945 -0.3165 -0.1398 -0.1502
24091W        W39222   0.665  13.943   0.951  0.0406 -0.1363 -0.0053
24092W        W39223   3.400   9.207   4.997 -0.0993  0.0218  0.2267
24093W        W39224   4.773   2.415  11.737  0.1306  0.3506  0.1870
24094W        W39225  10.164  10.890  10.358 -0.3005  0.2940  0.1814
24095W        W39226  13.025  14.147   2.715  0.1358  0.2759 -0.0702
24096W        W39227  12.989   3.620  12.036  0.0308 -0.0035 -0.0343
24097W        W39228  17.871  16.651   3.843 -0.3580 -0.2827  0.2767
24098W        W39229   0.256   9.458   5.623 -0.1030 -0.1093  0.0460
24099W        W39230   1.338  15.427   3.295 -0.1623  0.1383 -0.0040
24100W        W39231   7.330   0.315   1.918  0.0075  0.0686 -0.1542
24101W        W39232   0.632   0.904   4.249 -0.2305  0.2444  0.0342
24102W        W39233  17.677   7.553   5.048  0.0958 -0.2276 -0.0156
24103W        W39234   8.102   2.352  13.607  0.0110 -0.0210  0.1095
24104W        W39235  10.763  10.400  15.541 -0.0552  0.3913 -0.1584
24105W        W39236   0.246   7.827  11.817  0.1920 -0.0770 -0.0963
24106W        W39237   5.761   7.587  13.877 -0.0887 -0.0214  0.3514
24107W        W39238   9.824  11.584   5.220 -0.1953  0.0733 -0.0797
24108W        W39239  14.006  17.424   2.027  0.0066  0.2285  0.1868
24109W        W39240  15.067   4.275   0.839  0.2223 -0.2109  0.0950
24110W        W39241   6.079  16.867   2.298 -0.2802  0.2180 -0.1099
24111W        W39242  16.446   5.178  16.413  0.2120 -0.1481  0.0995
24112W        W39243  17.835  12.899  11.863  0.0679  0.1772 -0.1777
24113W        W39244  17.192  17.325   0.542 -0.1527 -0.1256  0.3556
24114W        W39245  16.166  12.271   3.016  0.3904  0.0572 -0.0136
24115W        W39246   9.773  10.453   0.608  0.1234 -0.2440  0.0899
24116W        W39247  17.561  14.086  11.777 -0.2808 -0.0615 -0.3063
24117W        W39248   2.117   6.707   0.610  0.2221 -0.1858  0.0247
24118W        W39249   8.724   3.252  15.868  0.0372 -0.0832 -0.0238
24119W        W39250  15.856   0.611  16.294 -0.0362 -0.1115  0.2081
24120W        W39251  13.328   5.715  11.716 -0.1994 -0.1382 -0.1953
24121W        W39252   4.378   7.977  13.107  0.2597  0.2463  0.2600
24122W        W39253  14.634   8.223  14.331  0.0131  0.1671  0.0206
24123W        W39254  11.135   3.135  12.381  0.1088 -0.1298 -0.1312
24124W        W39255   8.060  13.757   1.446  0.1097 -0.0173  0.1007
24125W        W39256  16.784  15.531   0.715  0.0371  0.2763 -0.2389
24126W        W39257  14.465  16.748  14.690 -0.0267  0.0938 -0.0201
24127W        W39258  15.276  12.043   3.295 -0.2828  0.0571  0.0898
24128W        W39259  15.783  11.215  13.459 -0.2081 -0.2380 -0.4493
24129W        W39260   9.891   0.991  13.266 -0.0635 -0.2057  0.0535
24130W        W39261  14.158   1.005  15.006  0.3015  0.1741  0.2950
24131W        W39262  12.671   4.610  13.181  0.0891  0.4786 -0.2153
24132W        W39263   4.190   2.315   2.075 -0.0422 -0.1987 -0.3463
24133W        W39264  10.813   5.073  15.434 -0.0709 -0.0193  0.2968
24134W        W39265  12.175   0.839   1.685 -0.1866 -0.0400 -0.1476
24135W        W39266  17.429   1.757  16.210  0.2041 -0.2259 -0.3404
24136W        W39267   0.732   8.078  11.409 -0.1849 -0.0567  0.0531
24137W        W39268   0.248   3.502   0.499 -0.4642 -0.1695  0.3135
24138W        W39269   7.121   2.056  10.572  0.0399  0.3019 -0.0248
24139W        W39270  13.468   6.718   1.978  0.0885 -0.3532 -0.2004
24140W        W39271   3.879  16.217  13.307  0.3914  0.1105  0.0041
24141W        W39272  13.200  12.490  12.028  0.0228  0.4005  0.2068
24142W        W39273  15.405   0.555   1.052  0.0233 -0.0021 -0.3013
24143W        W39274   5.474  14.004  15.180 -0.1253 -0.2474  0.2140
24144W        W39275   5.213   6.316   5.283  0.0593  0.0702 -0.4925
24145W        W39276   9.049   1.265   4.139  0.0630  0.0806  0.0918
24146W        W39277   0.561  11.420   2.251  0.0861  0.0926  0.1308
24147W        W39278   3.790   3.328  13.116 -0.0875 -0.2477 -0.1283
24148W        W39279  11.586  13.038   1.412 -0.0188  0.0830 -0.2272
24149W        W39280  10.827  13.804  14.782 -0.0662 -0.0161 -0.2564
24150W        W39281  12.486  17.635  14.958  0.0542  0.1139  0.1577
24151W        W39282  15.358   8.181  12.121 -0.1084 -0.0682  0.2525
24152W        W39283  17.404  17.458  13.670 -0.0020 -0.1735  0.1926
24153W        W39284  15.761  11.430  11.692 -0.1745 -0.1279  0.0681
24154W        W39285   7.460   3.448   4.360  0.0224  0.1228  0.1801
24155W        W39286   3.780   6.203   3.290 -0.4605 -0.4205 -0.3043
24156W        W39287  15.964  15.867   0.857 -0.0855 -0.3794 -0.2407
24157W        W39288   9.587  14.750  12.292 -0.3783 -0.3422  0.0750
24158W        W39289  14.363   2.510  12.799 -0.0841 -0.0046  0.0787
24159W        W39290   5.766   5.817   2.447  0.3142  0.1219 -0.1933
24160W        W39291  16.850  14.275   5.357  0.0312  0.0003  0.0404
24161W        W39292  16.103   5.412  15.559 -0.0640  0.0182  0.0361
24162W        W39293  11.697  16.266  15.953 -0.0488  0.0923  0.2034
24163W        W39294   8.869  13.957  15.724  0.0428 -0.0214  0.0614
24164W        W39295  15.941  15.168  13.058 -0.0464  0.0480  0.0676
24165W        W39296   8.495   5.770  16.093 -0.1097 -0.0064  0.0078
24166W        W39297   1.880  12.433  15.036  0.0598 -0.0371  0.3796
24167W        W39298  11.234   3.242   0.482  0.1131  0.3027 -0.0377
24168W        W39299   8.379   4.751  15.966 -0.0696 -0.0395 -0.1249
24169W        W39300   3.573  15.478  11.329 -0.0930  0.2395  0.0463
24170W        W39301   0.452  13.183  11.570  0.1385  0.1741 -0.1549
24171W        W39302   2.628   3.494   1.995  0.2392 -0.1522  0.0137
24172W        W39303  13.583   8.699   2.218 -0.0591  0.1420 -0.1117
24173W        W39304   2.115   6.568   5.891  0.0117 -0.0612 -0.1762
24174W        W39305   3.142   0.904   4.079 -0.2694  0.2358  0.1774
24175W        W39306   5.309   3.264  12.255 -0.0619 -0.1842 -0.0349
24176W        W39307  14.880  14.957  12.456  0.1858  0.1039 -0.0445
24177W        W39308  13.532  16.102  15.522  0.4374  0.2960 -0.0183
24178W        W39309  14.753   6.053   3.619 -0.0118 -0.0969  0.0567
24179W        W39310   0.893   0.950   5.485  0.1302  0.1376  0.0276
24180W        W39311  12.616  16.313  15.237 -0.1104  0.0826 -0.2475
24181W        W39312   0.513  13.547   5.125  0.0141  0.1653  0.1477
24182W        W39313   5.946   2.695   6.144  0.0002  0.0356  0.2419
24183W        W39314   3.497   9.859   0.039 -0.3140  0.1453 -0.2945
24184W        W39315  10.423  11.151   1.529 -0.1037 -0.0179  0.1252
24185W        W39316   7.911   4.307  10.863  0.2592  0.0453  0.0640
24186W        W39317   4.484   2.106   5.471 -0.1660 -0.2199  0.0380
24187W        W39318  11.195  14.580   2.937 -0.1091  0.0538  0.0232
24188W        W39319  15.734   5.264   0.131  0.1929 -0.3858  0.2530
24189W        W39320   2.136   8.837  13.639 -0.1376 -0.1802  0.0617
24190W        W39321   9.508  12.577   0.423  0.0549 -0.0312  0.0528
24191W        W39322  10.542  14.049  13.843  0.2119  0.0024  0.0064
24192W        W39323   3.602  11.295  12.312 -0.0261 -0.0958  0.0057
24193W        W39324  15.843  10.323   1.068  0.3102 -0.0045 -0.2807
24194W        W39325   4.933  11.040   4.889  0.0620  0.2009  0.0451
24195W        W39326   2.001   5.613  14.275 -0.1762 -0.1826 -0.0050
24196W        W39327   1.457   9.253   1.398  0.0012  0.1263 -0.2026
24197W        W39328   2.481   0.445  12.122  0.0727  0.1465 -0.1094
24198W        W39329   6.015   0.642   3.719  0.0854  0.0367  0.0521
24199W        W39330   4.405   6.642  11.756 -0.0934  0.2074 -0.1235
24200W        W39331   4.021   7.220  16.386  0.1655 -0.1785 -0.0942
24201W        W39332   6.929   1.337  15.480 -0.3313  0.1816 -0.0682
24202W        W39333  12.844   4.128   2.392  0.1236 -0.0533 -0.2460
24203W        W39334   6.076   7.432  14.528  0.2364  0.0108 -0.1944
24204W        W39335   9.438  16.277  13.293 -0.0047 -0.0908 -0.3631
24205W        W39336  15.094   3.704   0.856 -0.0957  0.0613 -0.2835
24206W        W39337   7.211   8.629   1.968 -0.0233 -0.0318  0.0055
24207W        W39338   2.578   9.294   0.038  0.1215 -0.3143  0.3042
24208W        W39339  14.596  10.625  13.569  0.1352 -0.2497 -0.0818
24209W        W39340  17.572  13.958   1.941  0.1890  0.4870  0.0176
24210W        W39341   2.998  10.819   1.488  0.0021  0.3018 -0.2155
24211W        W39342  17.347  14.449   6.301  0.0837 -0.0402 -0.1645
24212W        W39343   6.039   1.876  11.585 -0.0756 -0.1648 -0.0392
24213W        W39344   2.121   8.429  16.735 -0.2179 -0.4171  0.0244
24214W        W39345   5.944   3.572  15.177 -0.1590  0.0558  0.0115
24215W        W39346  13.160  17.425  16.304  0.0130  0.0088  0.1765
24216W        W39347  13.487  12.598   5.542 -0.0220 -0.2548 -0.0264
24217W        W39348   1.703   0.303   0.334 -0.0135  0.0066  0.2060
24218W        W39349   0.793   2.077  14.451 -0.0279 -0.1493  0.1163
24219W        W39350  16.754   9.938  13.696 -0.2026  0.1221  0.0571
24220W        W39351   7.077  12.945  16.230  0.1913 -0.1351  0.0042
24221W        W39352   2.933   7.063   2.872 -0.1003  0.1514  0.1388
24222W        W39353   2.001  14.771   2.893  0.1117  0.1438 -0.2845
24223W        W39354   6.788  17.734  15.813  0.0292  0.0117 -0.3263
24224W        W39355   2.193   1.133   0.629 -0.0575  0.4279  0.0830
24225W        W39356  14.531   6.599  16.142 -0.0219 -0.1064 -0.0724
24226W        W39357  12.291   5.497   5.822  0.2298 -0.2812  0.3222
24227W        W39358   7.040   7.242   5.595 -0.1070  0.0388 -0.4489
24228W        W39359   3.704   2.735  14.344  0.3139  0.4717 -0.0477
24229W        W39360   1.775   6.235  12.198  0.0319  0.2042 -0.0405
24230W        W39361  15.861   3.875   0.780 -0.0234 -0.0142  0.0335
24231W        W39362  10.097  13.525  13.373  0.2072 -0.0466  0.0939
24232W        W39363   2.017  14.996   0.583 -0.0708 -0.0098 -0.0062
24233W        W39364  13.334   8.635   4.123 -0.0259  0.1883 -0.3206
24234W        W39365  15.872   9.901  14.122 -0.1116 -0.0789  0.2834
24235W        W39366  13.057  11.135  11.513 -0.0070  0.1167  0.0232
24236W        W39367   1.011   4.644   4.542  0.2272  0.1442 -0.0883
24237W        W39368   2.802   7.719  12.888  0.1775  0.2035 -0.1321
24238W        W39369   2.740   6.110  13.181  0.1479  0.2552 -0.1844
24239W        W39370  13.070   3.009   2.199  0.0222 -0.0625 -0.0950
24240W        W39371  10.242   6.423   0.343 -0.0973  0.2775 -0.1032
24241W        W39372   9.171  14.191  12.064  0.0930 -0.0766  0.0394
24242W        W39373   0.178  14.231   4.692 -0.0472  0.0266 -0.1362
24243W        W39374  10.759   9.938  12.188 -0.2032  0.1440 -0.0418
24244W        W39375   3.858  11.145  13.989 -0.1165  0.0506 -0.0285
24245W        W39376  14.884   0.798   3.264 -0.2530  0.1752 -0.1084
24246W        W39377   9.262  11.630  15.455 -0.1249  0.2866 -0.2576
24247W        W39378   2.461   6.167  11.831 -0.0675  0.2852  0.0582
24248W        W39379   0.155  12.446  16.740  0.1305 -0.0885  0.2162
24249W        W39380   1.749  10.943  15.881  0.2937 -0.2437  0.1911
24250W        W39381  10.061  16.765  14.916 -0.2266 -0.2496  0.2118
24251W        W39382  16.786   5.313  16.027  0.1984 -0.0500 -0.0711
24252W        W39383   7.733   5.204  12.827  0.1433 -0.1977 -0.0420
24253W        W39384   2.979   3.404   4.975  0.0245 -0.2638 -0.0975
24254W        W39385  13.692   1.030   5.225 -0.0155  0.0893 -0.2098
24255W        W39386   2.330   7.975   1.360  0.1642 -0.1674  0.2667
24256W        W39387  12.847  15.162  13.581  0.1667 -0.0688  0.0123
24257W        W39388  17.063   8.263   0.623 -0.2376 -0.0537  0.1835
24258W        W39389  11.266  16.043  12.382  0.0878  0.0991  0.2267
24259W        W39390  16.311  11.306   5.106 -0.1477 -0.0277  0.0683
24260W        W39391   8.696  10.833   1.691 -0.3418 -0.1866 -0.0290
24261W        W39392  12.949   2.095  16.586 -0.1783  0.4454  0.0496
24262W        W39393  14.049   8.487   2.103 -0.1215 -0.0174  0.0056
24263W        W39394  14.255   1.385   4.722 -0.0302  0.3115 -0.0774
24264W        W39395   1.369   7.540   1.210  0.0639  0.0126 -0.1845
24265W        W39396  10.680   3.145  16.567 -0.1408  0.0160 -0.0793
24266W        W39397   6.342   0.162   1.564 -0.2082  0.1440 -0.1566
24267W        W39398   9.614  12.298  16.099  0.1315 -0.0024 -0.0166
24268W        W39399   8.025  14.862  14.129  0.0253 -0.0287  0.2947
24269W        W39400  15.811  13.173   3.816 -0.3591 -0.0937 -0.0561
24270W        W39401  17.072   4.028  15.723  0.2465 -0.1824 -0.3386
24271W        W39402  17.109  17.380   0.982  0.0849  0.3236  0.0051
24272W        W39403  11.207   4.197  15.969  0.0520 -0.2302  0.1242
24273W        W39404   4.286   7.204  10.621  0.0408  0.1158  0.1126
24274W        W39405  11.617  14.775  12.465 -0.3169  0.4627  0.1396
24275W        W39406   8.615   3.182   3.775 -0.0011 -0.0754  0.1384
24276W        W39407  14.463  12.729   5.783 -0.0195 -0.2742 -0.1295
24277W        W39408  11.919   0.012  13.351  0.0084 -0.2853 -0.0473
24278W        W39409  15.738  15.077  13.557  0.0840  0.0282  0.2065
24279W        W39410  14.089   6.696  11.318  0.1790  0.0375  0.1042
24280W        W39411  13.919   2.660   2.336  0.0748  0.0753  0.0171
24281W        W39412   0.492   5.696  15.117 -0.0646 -0.1033  0.2524
24282W        W39413  15.244  13.750   3.509  0.2470  0.2209  0.2135
24283W        W39414   4.538   2.854   2.933 -0.2234 -0.0230  0.0201
24284W        W39415   9.978   2.052   4.255 -0.0269 -0.0167 -0.0661
24285W        W39416  15.341   4.920  10.740  0.0397 -0.0908 -0.3238
24286W        W39417   0.567   1.415   5.636  0.2392 -0.2901 -0.2080
24287W        W39418  15.570   2.313  14.066 -0.2260  0.5053  0.4914
24288W        W39419   7.232   2.325  15.539  0.0195  0.0110  0.0576
24289W        W39420   8.890   9.199   0.660 -0.0819 -0.0497  0.2963
24290W        W39421   3.308   5.774  14.100 -0.0763  0.0498 -0.1296
24291W        W39422  13.085   4.758  16.078  0.1119  0.2074 -0.0512
24292W        W39423   3.116   5.674  11.463 -0.1885  0.0358 -0.0166
24293W        W39424   1.529   6.639   0.356  0.0371  0.2175  0.1014
24294W        W39425   9.056   4.626   4.912  0.4188  0.0454  0.0172
24295W        W39426   7.768  15.910   4.473  0.3637 -0.1602  0.2875
24296W        W39427  16.731   3.933   3.086 -0.3179  0.0856 -0.0501
24297W        W39428  13.138   0.004  14.052  0.0572  0.0651  0.1207
24298W        W39429   4.222  13.072   4.723  0.0565  0.1151 -0.0376
24299W        W39430  10.140   6.233  12.188  0.0955 -0.3256 -0.1002
24300W        W39431  10.047  15.713  13.865 -0.1707  0.0237 -0.0182
24301W        W39432   7.403   1.079   2.929 -0.2110  0.0544  0.2025
24302W        W39433   5.801   1.729   5.254 -0.0009  0.1141  0.1624
24303W        W39434   4.638   3.958   1.326 -0.1484 -0.1943  0.0183
24304W        W39435   0.836  12.284  14.009  0.2209  0.2328 -0.1017
24305W        W39436   3.456   1.910   4.438  0.4146  0.1603 -0.0997
24306W        W39437   4.452   3.917   5.023  0.1468  0.3529 -0.0284
24307W        W39438   8.481   4.386   2.310  0.1194 -0.1426  0.0540
24308W        W39439  10.461  16.402   0.716  0.0768 -0.0257 -0.1319
24309W        W39440   1.107   9.598   2.882  0.1124  0.0543 -0.2208
24310W        W39441  16.640  12.995  15.631 -0.0640 -0.1895  0.2619
24311W        W39442  15.439  17.191   2.122  0.4156 -0.1767  0.1994
24312W        W39443   0.747  14.683  12.153 -0.2126  0.4067  0.0702
24313W        W39444   7.516   2.800  15.451 -0.0645  0.2061 -0.0293
24314W        W39445  10.772   3.822   4.050 -0.0767 -0.2354  0.0673
24315W        W39446   6.519  10.484  13.074 -0.0592  0.0508  0.0286
24316W        W39447   1.655  10.942  12.712 -0.4015 -0.2328 -0.0529
24317W        W39448  11.375   6.200   0.746  0.3199 -0.0199 -0.1483
24318W        W39449   0.883   5.945   4.631  0.2564  0.1050 -0.4126
24319W        W39450   1.451  14.440   3.804 -0.2494  0.0421 -0.0997
24320W        W39451   1.303   4.532   4.140  0.0580 -0.1221  0.2908
24321W        W39452  11.906  11.863   5.123  0.0681  0.2683  0.0249
24322W        W39453   5.140  12.112  12.502 -0.3569 -0.0560 -0.0349
24323W        W39454   5.484   4.090  13.671  0.2629 -0.0847 -0.2207
24324W        W39455  14.553  12.079  15.350  0.1510 -0.1198  0.3504
24325W        W39456   6.733  11.399   4.933  0.0613  0.2132  0.0036
24326W        W39457  10.693   7.816  16.005 -0.0122  0.0487 -0.0327
24327W        W39458   4.041  11.442  12.088 -0.0720  0.0934  0.1791
24328W        W39459   4.016   2.171   5.290 -0.0416  0.0151  0.1510
24329W        W39460   6.972   1.655  16.029  0.1213  0.1605  0.1436
24330W        W39461  15.827   6.326  15.380  0.0059  0.0639 -0.0173
24331W        W39462  10.546   4.313   5.375  0.2532  0.0249  0.0914
24332W        W39463   4.084   7.487  15.900  0.1373  0.0988 -0.0561
24333W        W39464   6.021   3.980  15.403  0.0450 -0.2017  0.1032
24334W        W39465   9.370   4.712  11.863  0.2332  0.0901  0.3354
24335W        W39466   7.332   0.711   3.256 -0.0531 -0.1800  0.2018
24336W        W39467   3.398   7.041   4.772  0.2380 -0.2030 -0.0700
24337W        W39468  13.441  11.663  15.328  0.0952 -0.0786 -0.4154
24338W        W39469  10.111   2.292   0.622  0.0809  0.0153 -0.2881
24339W        W39470   2.446   3.388   0.054  0.2773 -0.1973 -0.4104
24340W        W39471  15.271   8.250   1.097  0.1987  0.2787 -0.1761
24341W        W39472   4.950  13.476  15.256  0.2835  0.0491 -0.0120
24342W        W39473   7.822  16.264  13.221  0.0482  0.2862 -0.1558
24343W        W39474   9.589  15.832   0.988 -0.1404  0.0065 -0.2123
24344W        W39475   2.312   7.648  15.775 -0.1452  0.2755 -0.1675
24345W        W39476  13.548  15.888   0.817  0.3116 -0.0078  0.2221
24346W        W39477   3.149  17.195  12.817 -0.1856 -0.0295 -0.0351
24347W        W39478  14.565  15.430   3.944 -0.2442  0.0053 -0.1122
24348W        W39479  17.291   2.335  11.063 -0.0740 -0.1200 -0.1388
24349W        W39480   6.749  11.076   3.928 -0.1033  0.1821  0.2132
24350W        W39481   7.726   0.096   2.152 -0.3411  0.1104  0.0532
24351W        W39482   2.376   3.694   1.591  0.1347 -0.3005  0.0378
24352W        W39483   5.979   0.404  11.237  0.1696  0.1563 -0.2796
24353W        W39484  16.126   6.880   0.483 -0.0865  0.0900 -0.0819
24354W        W39485   5.180   3.857   5.971  0.0046 -0.0526  0.1300
24355W        W39486   2.515  16.813  15.510 -0.0878 -0.1037 -0.0583
24356W        W39487   0.348   6.575  13.748 -0.2642  0.0354 -0.0746
24357W        W39488  11.509   3.131  15.207  0.0855  0.0036 -0.0886
24358W        W39489  10.724   2.612  16.622 -0.2099  0.2856  0.2083
24359W        W39490  12.000  15.417  11.538  0.0676 -0.2660  0.3106
24360W        W39491   3.434   3.752  13.034 -0.0711  0.3016 -0.0080
24361W        W39492   6.349   6.338  13.746  0.0716 -0.2966 -0.2954
24362W        W39493   6.901   5.273   5.315 -0.1909  0.1062  0.0642
24363W        W39494  11.128  13.128   4.114  0.2617 -0.3017 -0.1788
24364W        W39495  13.657  13.633  13.291  0.1062  0.1384 -0.1568
24365W        W39496   6.425   5.053   5.030 -0.1915  0.4164 -0.2805
24366W        W39497  16.225   2.174   3.295 -0.0967 -0.0924 -0.0253
24367W        W39498   7.639   1.190   0.618  0.4674  0.1970  0.0234
24368W        W39499  11.732  15.478   5.320  0.3536 -0.0449  0.1632
24369W        W39500   1.425  16.606   5.307  0.0899  0.0435 -0.3309
24370W        W39501   1.628  16.754  11.789 -0.0040 -0.0901  0.0108
24371W        W39502   7.810  16.428   3.507 -0.0283  0.0119  0.1188
24372W        W39503   3.131  10.120   3.927 -0.0164  0.2410 -0.2871
24373W        W39504   8.252  13.136  12.170  0.0917  0.2405 -0.2008
24374W        W39505   7.813  17.012  16.604 -0.0228  0.0016  0.0412
24375W        W39506  17.662  13.652  13.149 -0.0892  0.1041 -0.3074
24376W        W39507   9.771   6.296  13.529  0.0338  0.0803  0.0876
24377W        W39508   0.259  10.107  13.504 -0.2644 -0.1979 -0.0938
24378W        W39509   8.237  13.596   5.671 -0.1119  0.1319  0.1983
24379W        W39510   6.524   9.845   4.174  0.1344  0.1231 -0.4939
24380W        W39511  16.451   2.956  12.819  0.2448  0.0127  0.3043
24381W        W39512   9.242  16.684  12.095  0.0268  0.1259  0.0108
24382W        W39513  12.037  14.167   1.716  0.0605 -0.1679  0.1907
24383W        W39514  10.236   5.410  16.374 -0.2411 -0.2189 -0.0244
24384W        W39515  16.643   4.861  13.059  0.2645  0.1092  0.2246
24385W        W39516   0.287  13.880   2.856  0.0127  0.3310 -0.2852
24386W        W39517   1.706   8.790   1.255  0.1118  0.0345  0.3489
24387W        W39518   9.476   7.664  14.629 -0.1490  0.0135  0.3172
24388W        W39519   0.309   8.317  11.575  0.0303 -0.1043 -0.2475
24389W        W39520  16.508   6.460   2.177 -0.0378 -0.1581 -0.0859
24390W        W39521   9.864  14.428   1.468  0.0619 -0.2295 -0.1544
24391W        W39522   7.183  13.192  11.435 -0.1455 -0.2665  0.0445
24392W        W39523  13.328   6.265  13.077  0.1370 -0.3057 -0.2656
24393W        W39524  10.665   5.118  11.815 -0.1333  0.2845 -0.0083
24394W        W39525   5.282   5.898  14.026 -0.1939  0.0468 -0.0629
24395W        W39526   0.326   2.969   0.564  0.1073 -0.4130  0.2258
24396W        W39527  12.791   5.875  11.399 -0.0266 -0.2217  0.1608
24397W        W39528   5.122  14.351  12.592  0.0082  0.0636 -0.0142
24398W        W39529  12.179   2.140   2.811 -0.1332  0.0497 -0.0938
24399W        W39530   1.445  10.877   2.953  0.1623  0.1154 -0.0653
24400W        W39531  15.492   9.949  14.437  0.0342 -0.0533 -0.2042
24401W        W39532   7.642   5.044  13.678  0.1441  0.0148 -0.1187
24402W        W39533  16.597   7.826  11.890 -0.3231  0.2430  0.1766
24403W        W39534  12.976  14.945   2.732 -0.0806  0.4609 -0.2827
24404W        W39535   0.829  15.823  12.944 -0.1917 -0.0693  0.0869
24405W        W39536  15.615  12.458  11.930  0.2326 -0.0249 -0.0607
24406W        W39537  14.862  15.113  14.385 -0.3559 -0.1418  0.2416
24407W        W39538   8.256   8.291   0.051  0.0037  0.0507 -0.0570
24408W        W39539  15.280  16.639   4.356  0.5290  0.2913  0.2186
24409W        W39540  15.735  17.044  11.701  0.1113  0.2037 -0.0864
24410W        W39541  14.947  17.413  16.409  0.1294 -0.0854 -0.1496
24411W        W39542  15.127  13.671  14.834  0.0852 -0.0954  0.0585
24412W        W39543  17.638   4.075  16.599  0.1763 -0.1435  0.2999
24413W        W39544  15.443   8.214   0.520 -0.1484 -0.1219  0.2248
24414W        W39545   2.332   1.408   1.531 -0.2380 -0.0738 -0.1079
24415W        W39546   9.308  17.538  14.482  0.0977 -0.2350  0.1569
24416W        W39547  10.567   1.637  13.646 -0.2186 -0.0005  0.2570
24417W        W39548  15.665   8.480  15.600 -0.0353  0.2473  0.0144
24418W        W39549   9.560   6.211   5.675  0.0502  0.0748 -0.0584
24419W        W39550  17.558   7.592   0.687 -0.0768  0.2774 -0.2228
24420W        W39551   7.974  13.323   3.510 -0.2298  0.2812 -0.0123
24421W        W39552  14.212   1.085  11.585  0.2244 -0.0937  0.0949
24422W        W39553  11.147   4.950   1.935 -0.3190  0.2342 -0.3420
24423W        W39554   0.118   8.807  13.790  0.1619  0.1210  0.1927
24424W        W39555  14.897   1.937   1.618 -0.3933 -0.1110 -0.2802
24425W        W39556   4.953   4.249  16.064  0.2146  0.2007  0.0623
24426W        W39557   9.662  16.080   0.584  0.2139 -0.0305  0.3089
24427W        W39558   7.298   9.243   0.359 -0.2914 -0.1034  0.0680
24428W        W39559   8.159  16.686   5.772  0.0340  0.0422  0.0174
24429W        W39560   3.288  11.111   1.859 -0.2852 -0.1922 -0.0242
24430W        W39561  10.399   9.248   4.868  0.0377 -0.0580  0.3121
24431W        W39562  12.852   5.336   2.373 -0.1216  0.2616 -0.0582
24432W        W39563  10.597  14.300   2.854  0.0726 -0.1642  0.0812
24433W        W39564  10.781   7.013  12.321 -0.0008 -0.1655 -0.0492
24434W        W39565   6.107   2.647  13.503  0.0595  0.1246 -0.1385
24435W        W39566   9.053  13.608   0.888 -0.0546  0.4855  0.0261
24436W        W39567   7.531  13.618   1.443  0.0572 -0.0837 -0.0218
24437W        W39568   6.215  16.718  14.136  0.2059 -0.0352  0.0526
24438W        W39569   5.212  13.036   2.719  0.0998 -0.2694 -0.0523
24439W        W39570  11.023  11.304  15.203 -0.1798  0.2845 -0.2187
24440W        W39571   9.358   7.151  14.755  0.1149 -0.2125  0.1849
24441W        W39572   6.934   0.724   5.983 -0.1153 -0.0337 -0.2194
24442W        W39573   9.170  10.866   5.123 -0.1309  0.1376 -0.4534
24443W        W39574  10.018  15.053   4.225  0.1610  0.1118 -0.0773
24444W        W39575  10.875   5.508  13.722 -0.2664 -0.2908 -0.1800
24445W        W39576  15.590   6.877   3.594 -0.0703  0.0847 -0.5857
24446W        W39577   8.948  10.690   0.255  0.0150  0.1130 -0.5473
24447W        W39578   9.860  10.427  12.088  0.0124  0.3123 -0.0950
24448W        W39579   5.833  12.790   0.343  0.0395  0.1327  0.2797
24449W        W39580  14.584   7.498   1.853  0.3214  0.0602 -0.1809
24450W        W39581  13.500  17.189  12.487  0.1209  0.2744  0.0815
24451W        W39582  14.652   1.893  11.758 -0.1940  0.1344 -0.0007
24452W        W39583   6.048   7.061  15.962  0.0709  0.3418 -0.1660
24453W        W39584  11.801   2.183  12.338 -0.3782  0.0887  0.2623
24454W        W39585  13.398   7.685   3.018 -0.0131  0.1645 -0.1551
24455W        W39586   8.992   8.448  14.881 -0.0735  0.0767  0.0393
24456W        W39587  16.712  10.371  15.931  0.1125 -0.0407 -0.0828
24457W        W39588   9.615   5.132   1.276 -0.0243  0.1879  0.0304
24458W        W39589   0.247  15.576  13.673 -0.0147 -0.4250  0.2603
24459W        W39590   0.017  12.537   4.136 -0.1619 -0.0466 -0.1526
24460W        W39591   4.551  16.456  12.024 -0.0714 -0.2145 -0.0479
24461W        W39592  14.593  13.385  16.521  0.1095 -0.1203  0.0363
24462W        W39593   4.658  14.132  12.274  0.1423 -0.2467 -0.1049
24463W        W39594   5.451   2.740   3.853 -0.3051 -0.1913  0.1818
24464W        W39595   1.253  15.824  13.297  0.1318  0.0627 -0.0034
24465W        W39596   3.511   8.920  15.176 -0.1231  0.1403  0.1586
24466W        W39597   9.682   9.194   5.532 -0.1248 -0.0185  0.3012
24467W        W39598   1.992   7.875   3.360  0.1388 -0.1922  0.1273
24468W        W39599   2.709   1.905   5.052 -0.0952 -0.0923  0.0943
24469W        W39600  15.309   0.167   5.549 -0.0221 -0.1793  0.1233
24470W        W39601   9.477  10.609   2.276 -0.0353  0.0542 -0.0482
24471W        W39602  10.161  10.824  12.129 -0.2741  0.1849  0.1415
24472W        W39603   7.682   4.759  14.474  0.0335  0.1549  0.2033
24473W        W39604   6.703   3.842  14.042  0.2396 -0.0008  0.2107
24474W        W39605  13.162  17.226   0.552  0.1981  0.0437 -0.2980
24475W        W39606  16.608   9.045   0.275  0.0005 -0.2595  0.0667
24476W        W39607   3.428  16.367   5.790 -0.3210  0.0571  0.0605
24477W        W39608  17.501   2.557  13.079  0.1761 -0.0368  0.2033
24478W        W39609  15.722   6.317   1.928 -0.0200 -0.2701  0.1315
24479W        W39610   7.493   5.149   4.220  0.1589  0.3420 -0.0486
24480W        W39611   3.786   9.640  15.525 -0.0190 -0.2973  0.0820
24481W        W39612   2.837   0.001   4.743  0.1478  0.0734 -0.1342
24482W        W39613   4.182   2.748  14.663 -0.0615  0.0892  0.0369
24483W        W39614  16.907  14.979   1.715 -0.1970 -0.2654  0.0323
24484W        W39615   4.822  16.801  12.449 -0.1570 -0.1389  0.2107
24485W        W39616   0.036  16.372   5.105  0.0500 -0.1506 -0.0478
24486W        W39617  15.186   7.374   3.628  0.0922  0.2878 -0.1088
24487W        W39618  15.461  10.850  16.268 -0.1649 -0.1032 -0.1755
24488W        W39619  13.159   0.585  12.649 -0.1628 -0.0697 -0.2773
24489W        W39620  13.517   4.459  15.217 -0.1423  0.2812 -0.1185
24490W        W39621   1.355  17.518  12.139  0.1036 -0.0027  0.4062
24491W        W39622  13.015   5.867   1.534 -0.1554 -0.3184  0.0939
24492W        W39623   3.458   2.795   3.506  0.0618  0.2641  0.2364
24493W        W39624   7.186   0.224   3.126  0.2152 -0.0950  0.3054
24494W        W39625   7.613  16.782  14.848 -0.1711  0.1553 -0.1675
24495W        W39626   5.812  10.089   1.083  0.0735 -0.0851  0.0729
24496W        W39627  12.828   6.938   5.324  0.1220 -0.0947  0.1714
24497W        W39628   4.564  16.778   4.059 -0.1610  0.0710  0.1546
24498W        W39629  11.748  10.304  16.178  0.2966 -0.2200  0.2595
24499W        W39630  12.495   9.532   5.025 -0.2048  0.2079  0.0998
24500W        W39631   6.512   0.884   2.772 -0.1520  0.0339 -0.0269
24501W        W39632   4.450   3.236   1.847 -0.0590 -0.1439 -0.1293
24502W        W39633  13.006  11.664   3.865 -0.1372 -0.0808  0.1381
24503W        W39634  17.227  17.589  15.304  0.0358  0.0139  0.0823
24504W        W39635   8.654  16.045   5.179  0.0418 -0.2449 -0.1010
24505W        W39636   4.405  13.442  14.566 -0.0005 -0.0842 -0.1671
24506W        W39637   0.197   0.905  13.958  0.0898 -0.1065 -0.1006
24507W        W39638   6.777   9.451   1.523  0.0004  0.1051 -0.1107
24508W        W39639  16.231  12.157  14.661  0.2243  0.0597 -0.0664
24509W        W39640  10.567   9.917   3.596  0.2459 -0.5030 -0.1516
24510W        W39641  17.322   1.677   2.387 -0.0846  0.1800 -0.0108
24511W        W39642   8.244   0.674   1.986  0.2296  0.2723 -0.2257
24512W        W39643   4.766   8.384  10.577  0.3667 -0.3873 -0.0835
24513W        W39644   6.235   2.550  11.296 -0.0375  0.2740 -0.1715
24514W        W39645   0.434  10.832  12.160  0.0973  0.1281  0.0264
24515W        W39646   3.856  17.599   4.506 -0.1539 -0.0051  0.0603
24516W        W39647   8.058   5.566  15.839  0.0832  0.0044 -0.1412
24517W        W39648  16.991   0.488   2.585  0.1556  0.1405 -0.1114
24518W        W39649  10.048  13.571  15.177 -0.2354  0.0895  0.0339
24519W        W39650  11.719  10.191   0.910 -0.0072  0.0520 -0.1137
24520W        W39651  13.319  14.282   3.937  0.4655  0.1880  0.3630
24521W        W39652   8.885  10.860  15.454  0.1756 -0.1686  0.2370
24522W        W39653   0.848   9.486   1.316 -0.0395 -0.1741  0.0633
24523W        W39654  12.112   3.735  12.228 -0.1093  0.0393  0.1143
24524W        W39655  11.448  15.396  12.647  0.0884 -0.1241  0.2176
24525W        W39656  12.218   6.175   1.996  0.2130  0.0207  0.2406
24526W        W39657   7.520  15.647  16.358 -0.1801 -0.0855 -0.1199
24527W        W39658   2.459  14.095  15.172 -0.2628  0.1319  0.0354
24528W        W39659   1.730  17.533  12.885  0.3263  0.0817 -0.0525
24529W        W39660   8.983   3.666   4.611 -0.1614 -0.0083 -0.2333
24530W        W39661  10.768   5.409   2.483 -0.0720 -0.1216 -0.1336
24531W        W39662   8.205   0.336   3.383 -0.2082 -0.0792 -0.1556
24532W        W39663  13.196  10.541  12.970 -0.0266  0.1223  0.2971
24533W        W39664   2.910  15.423  15.224  0.3237  0.2153 -0.0393
24534W        W39665  13.353  10.241   4.031  0.3420  0.0282  0.0056
24535W        W39666   7.814   9.785   3.729 -0.1324 -0.0215 -0.2836
24536W        W39667   3.231   4.203   3.691  0.2138  0.1662  0.0814
24537W        W39668  13.453  10.256  14.925  0.0715 -0.0762 -0.2420
24538W        W39669  13.480   1.426  11.338 -0.1697 -0.0084 -0.1577
24539W        W39670   6.714  14.774  11.295  0.0138 -0.1209 -0.1863
24540W        W39671   7.002  12.468   3.857  0.4740 -0.4930  0.3178
24541W        W39672  14.459   5.872   1.118  0.0415  0.1984 -0.2811
24542W        W39673  11.305   2.707  15.554  0.0203 -0.0929  0.0644
24543W        W39674  10.291   0.772  10.979  0.1815 -0.2470 -0.1124
24544W        W39675   7.497  15.748   2.098 -0.1545 -0.1243  0.0690
24545W        W39676   0.007  16.123   0.424  0.3770  0.0857  0.2702
24546W        W39677   5.849   2.577  13.943  0.0918  0.0107  0.2577
24547W        W39678   9.910   4.548   5.685 -0.0050 -0.2472 -0.3257
24548W        W39679   7.492   4.735   3.218  0.0958 -0.2205  0.1190
24549W        W39680  11.938  14.330  12.420  0.2453 -0.1104 -0.5560
24550W        W39681  16.214   1.637  13.537  0.0591 -0.0570 -0.0347
24551W        W39682  12.044  15.371   3.423  0.1839 -0.3388 -0.0640
24552W        W39683   2.993  14.675   4.504  0.1486 -0.1717 -0.1878
24553W        W39684   4.135   8.945   2.231  0.0517  0.1116  0.0101
24554W        W39685  13.450   8.007  13.218 -0.0378 -0.2501 -0.0739
24555W        W39686   2.396   1.001   1.210 -0.2912 -0.0185  0.3267
24556W        W39687   9.953   8.972   0.841 -0.0857 -0.2481  0.2108
24557W        W39688  10.379   0.370  16.469  0.2829 -0.1990 -0.2635
24558W        W39689   3.038   8.255  14.869 -0.0339 -0.1935 -0.1974
24559W        W39690  14.104  17.323   4.098 -0.3539  0.2435 -0.0438
24560W        W39691  14.850  17.173  12.301  0.1948 -0.1793  0.3238
24561W        W39692   9.419   3.911   3.081 -0.2431  0.1258 -0.2398
24562W        W39693   8.945  11.378   1.524 -0.1611  0.0354  0.0801
24563W        W39694   1.314  12.712   1.004 -0.0679  0.0430 -0.1558
24564W        W39695  10.740  11.194   4.332  0.0075  0.0002  0.2348
24565W        W39696   5.517  14.585   4.922 -0.2463 -0.2422  0.2725
24566W        W39697   4.800  12.910   2.948  0.1783  0.1272  0.3349
24567W        W39698   4.689  17.859  12.523 -0.0341  0.1931  0.0626
24568W        W39699   5.048  15.820   4.447 -0.0931 -0.0177  0.2564
24569W        W39700   3.779  11.944   0.136 -0.2433  0.0597 -0.0197
24570W        W39701   0.023  16.329   2.785 -0.2680 -0.1914  0.4685
24571W        W39702   2.362   1.300  12.996  0.0358  0.1601  0.1694
24572W        W39703   6.917  17.556  15.290  0.1700  0.2759  0.1190
24573W        W39704   0.367   0.589   3.756  0.0820 -0.2290  0.1488
24574W        W39705   4.395   3.022  15.548 -0.2185  0.1166  0.1712
24575W        W39706  15.979   1.367  13.195 -0.0847 -0.0179  0.0231
24576W        W39707   8.750   5.357  10.404  0.0728  0.3249 -0.0374
24577W        W39708  10.907  17.495  15.847 -0.0067 -0.1368 -0.1093
24578W        W39709   7.712   8.528   1.834  0.1792 -0.1905 -0.4408
24579W        W39710  16.804   1.643  12.626  0.1850 -0.0829 -0.0878
24580W        W39711  13.376  12.877  11.753  0.0761  0.0114 -0.4950
24581W        W39712  11.231   0.984  10.961 -0.1729 -0.0320 -0.1249
24582W        W39713  12.536  14.566   3.877  0.1519  0.0243  0.0107
24583W        W39714   7.302   1.858   0.168 -0.1091  0.0132 -0.0650
24584W        W39715  13.278   3.010  15.737 -0.0119  0.2356 -0.0302
24585W        W39716  13.649   8.451   5.602  0.1678  0.0574  0.0037
24586W        W39717  15.078   7.095   1.841 -0.0886 -0.1582 -0.1976
24587W        W39718  12.585   7.804   3.470 -0.0299 -0.2747  0.3675
24588W        W39719  11.219   0.100   3.136  0.0026  0.0733  0.0455
24589W        W39720  14.045   8.798   5.644 -0.0952  0.1159 -0.2462
24590W        W39721  11.465  17.269   3.300 -0.1346  0.0012 -0.4202
24591W        W39722  12.163   6.478  15.710 -0.2360  0.1074  0.2903
24592W        W39723  13.188  16.736   0.286  0.0852 -0.1543  0.0530
24593W        W39724  14.905   8.143   2.533 -0.2448  0.1630  0.4502
24594W        W39725  15.768   2.393   4.963  0.1235 -0.3005 -0.1936
24595W        W39726  10.857  15.714  12.405 -0.2575  0.0955  0.1392
24596W        W39727  12.667   3.369  16.734 -0.1530 -0.2860 -0.0105
24597W        W39728   1.640  12.800  16.767  0.1584  0.0819  0.0061
24598W        W39729  15.682   7.356   3.605 -0.0734 -0.1958  0.2413
24599W        W39730  10.614  10.134   2.422  0.0917 -0.1321  0.2510
24600W        W39731   3.792   9.775   1.911  0.0343 -0.1863  0.2174
24601W        W39732  17.312   4.318  16.214  0.0142 -0.1187 -0.1197
24602W        W39733  13.097  16.428   4.537 -0.2127 -0.1028  0.2596
24603W        W39734  12.627   1.530  11.906 -0.2638 -0.1736  0.0039
24604W        W39735   8.441  15.704   2.567  0.2931 -0.0404 -0.1963
24605W        W39736   9.807  11.427   0.657 -0.1235 -0.0343  0.0557
24606W        W39737  16.826   4.794  15.031 -0.0268  0.2760  0.0790
24607W        W39738  15.142   1.084  15.162 -0.1251 -0.2313  0.0494
24608W        W39739   1.539   9.609   1.086 -0.1019 -0.0172  0.3386
24609W        W39740   6.761   6.887   1.593  0.0164 -0.3077 -0.0656
24610W        W39741  10.464  17.576   3.986  0.2201  0.1072 -0.1116
24611W        W39742   3.980   2.616   0.732 -0.1579 -0.2435  0.0171
24612W        W39743  12.968   3.305  13.775 -0.1597  0.0401  0.1388
24613W        W39744   2.922   6.524  16.267  0.2037 -0.2970 -0.0201
24614W        W39745  14.035  16.040  13.273  0.0184 -0.0232 -0.3331
24615W        W39746   7.994   6.120  13.078 -0.0670 -0.3262  0.1886
24616W        W39747   7.912  12.559   2.261  0.0388 -0.0482 -0.1789
24617W        W39748  17.646  14.517   4.655  0.2285  0.1821  0.2574
24618W        W39749  10.519  16.405  16.422  0.0159  0.1547  0.0960
24619W        W39750  14.010   5.465   1.463  0.1114  0.0345 -0.3003
24620W        W39751  16.663  15.607   3.921  0.1009 -0.3579  0.0260
24621W        W39752   7.071  10.196   1.205 -0.1776 -0.1038  0.3134
24622W        W39753   1.813   1.475  14.004 -0.0639 -0.0867 -0.0059
24623W        W39754  13.687  13.196   1.445 -0.0262  0.0847 -0.0687
24624W        W39755  14.184   9.298   5.301 -0.1617 -0.1292  0.0438
24625W        W39756   0.624  14.898  15.664  0.0135  0.1142  0.0902
24626W        W39757  11.467   6.460  11.774  0.0643  0.1122 -0.2368
24627W        W39758  12.316   1.491  10.501 -0.0938  0.1943  0.0275
24628W        W39759   6.460   3.092   0.051  0.0404 -0.2980  0.1751
24629W        W39760   7.506   1.822   3.463 -0.1006 -0.2505  0.0831
24630W        W39761   1.163  13.545   3.186 -0.2577  0.0056  0.1531
24631W        W39762   3.915  16.599   5.740 -0.2047  0.0120  0.0492
24632W        W39763   5.059   4.710   5.122 -0.1207  0.1659 -0.0906
24633W        W39764   4.041  15.908  12.438 -0.2294  0.1062 -0.0372
24634W        W39765  10.172  10.862  13.881  0.0332 -0.1751 -0.3080
24635W        W39766   2.394   1.490   3.954  0.1164 -0.0610  0.2087
24636W        W39767   4.615  14.326  15.074 -0.1459 -0.0379 -0.1370
24637W        W39768   1.031  11.453  16.334  0.1010 -0.1787  0.0484
24638W        W39769   5.828  11.692   5.080 -0.4057  0.1998 -0.0243
24639W        W39770   8.436   3.184   4.322  0.3349 -0.1369 -0.0946
24640W        W39771   9.070  14.077   1.818 -0.1187 -0.1535  0.2690
24641W        W39772   3.539  10.550  15.061  0.0070  0.0056 -0.0439
24642W        W39773  14.145  12.935   1.602 -0.0324 -0.0074 -0.0040
24643W        W39774  16.065  11.652   2.953  0.2055 -0.0070  0.0403
24644W        W39775  11.055   3.251   3.898 -0.0939  0.1615 -0.3479
24645W        W39776  14.995  16.282   4.738 -0.0020  0.2427  0.2813
24646W        W39777  10.532   8.419   4.361 -0.0972 -0.0462  0.0264
24647W        W39778   7.794   4.181   4.074 -0.1770 -0.0101  0.2627
24648W        W39779   4.736  11.185  13.942  0.1091 -0.2478 -0.0052
24649W        W39780   3.445   4.189   0.516  0.3376  0.0453  0.0658
24650W        W39781  10.649  13.699   3.464  0.0728 -0.0687 -0.1484
24651W        W39782  17.016  16.612  15.934 -0.0562  0.1101  0.2368
24652W        W39783   4.549  11.646   1.852 -0.0820  0.0388  0.0219
24653W        W39784  14.735   5.831   2.159  0.0475 -0.1915 -0.4624
24654W        W39785   0.334  10.726  15.743 -0.2524 -0.0154 -0.0730
24655W        W39786   1.882   5.185  15.671 -0.0009  0.1268  0.0214
24656W        W39787  12.109   1.767  14.318 -0.1169 -0.1134  0.0423
24657W        W39788   7.177   9.763  13.981  0.0006  0.2553 -0.0325
24658W        W39789  10.683   7.702  13.509 -0.0100 -0.1286 -0.0376
24659W        W39790  14.607   1.158   3.453  0.3194  0.1445  0.2019
24660W        W39791   9.116   3.919  16.235  0.0428 -0.2642  0.1512
24661W        W39792   0.384  14.614  11.081 -0.2731 -0.2949 -0.1856
24662W        W39793  12.205   5.691   0.113  0.1077  0.1949  0.2153
24663W        W39794   8.371   0.004  16.460 -0.1595 -0.1358 -0.2733
24664W        W39795   1.599   1.696  15.629  0.0446  0.2392 -0.0411
24665W        W39796  14.479  13.102   4.721  0.0066  0.2201  0.1823
24666W        W39797   9.190  12.180  15.403 -0.3436  0.3440 -0.0415
24667W        W39798   1.855   3.403  16.474  0.0335 -0.2857 -0.1551
24668W        W39799   2.958  14.558   5.839  0.1807  0.0558 -0.2751
24669W        W39800  14.428   6.439  14.076 -0.2019 -0.0293  0.2374
24670W        W39801   6.438   3.389  15.965 -0.0925 -0.0211  0.0282
24671W        W39802  11.911   8.071   2.581 -0.1808  0.1086 -0.1890
24672W        W39803   0.016  11.110   4.866  0.1128 -0.1540 -0.2816
24673W        W39804  11.972  15.959  11.764  0.2664  0.0948  0.0850
24674W        W39805   1.106   4.609  11.983  0.0514  0.0356  0.1609
24675W        W39806   5.451   8.111   5.592 -0.1033  0.2154 -0.2721
24676W        W39807  10.815   0.804  13.227 -0.1347  0.3719 -0.0918
24677W        W39808  17.631   4.947   3.359 -0.0024  0.0898  0.1947
24678W        W39809  16.746   1.703  15.094 -0.0042 -0.0412 -0.1444
24679W        W39810  10.370   5.563   0.098 -0.1850 -0.2516  0.3366
24680W        W39811   2.368  17.391   2.664  0.0036  0.1915  0.1023
24681W        W39812  15.840  17.880   3.133  0.0161 -0.3436  0.0619
24682W        W39813   8.564   0.045  12.668 -0.0188  0.2572  0.2766
24683W        W39814   5.732  17.483  13.205  0.2618 -0.1957  0.1745
24684W        W39815   5.666  11.001  11.250 -0.1147  0.2312 -0.2484
24685W        W39816   5.817  10.828  15.251  0.2506  0.1796 -0.2866
24686W        W39817   4.569  15.806   4.508  0.1132 -0.0282 -0.1104
24687W        W39818   0.988  11.168  11.921 -0.0987  0.1215  0.3937
24688W        W39819  14.170  16.639   3.742 -0.2838 -0.0797  0.3566
24689W        W39820  13.200   7.245   4.658 -0.1744  0.1771  0.0376
24690W        W39821  12.020   2.663  12.301  0.1455 -0.1440  0.0758
24691W        W39822   1.652   6.258  10.276  0.2736 -0.1885  0.2015
24692W        W39823   8.472   4.339  12.986 -0.3209 -0.1657  0.3152
24693W        W39824   7.414   5.722   4.219 -0.0086  0.0192  0.0484
24694W        W39825   8.324  16.352  11.791  0.0213  0.1126 -0.4036
24695W        W39826   0.394   8.490  15.012 -0.2031 -0.0816 -0.0307
24696W        W39827   5.871  11.104   2.129 -0.1475  0.0765 -0.0254
24697W        W39828  16.088  13.388  14.118  0.0260 -0.2264 -0.0877
24698W        W39829  14.305  14.845  16.773  0.0757  0.2599 -0.2449
24699W        W39830  16.448   7.478   0.009  0.0978  0.0818  0.0461
24700W        W39831   3.558   1.973   0.882  0.3590 -0.1365  0.1495
24701W        W39832  14.406  11.684   5.130 -0.1532  0.1036 -0.0619
24702W        W39833   8.273   7.290   3.711  0.0078 -0.0911  0.0860
24703W        W39834   5.344   1.933  13.672 -0.2221 -0.0598  0.0503
24704W        W39835   6.236  13.544  16.137 -0.1983 -0.2773 -0.0666
24705W        W39836  14.491   3.185  14.543 -0.0141  0.0929  0.2220
24706W        W39837  16.324  11.602  15.525 -0.0487  0.2795  0.0080
24707W        W39838   4.646   1.401   1.621  0.0034 -0.0197  0.4799
24708W        W39839   5.592  15.963  14.984  0.1167  0.1578 -0.2624
24709W        W39840  13.228   4.651  15.586 -0.1023  0.1539 -0.0089
24710W        W39841   9.616  15.019  12.778  0.1805 -0.3218  0.0700
24711W        W39842   1.044  17.373   5.067 -0.0210  0.1057 -0.0118
24712W        W39843   0.307   4.115  16.613 -0.1404  0.3028  0.2098
24713W        W39844  11.278   4.526   3.682  0.3492 -0.0178 -0.3602
24714W        W39845   0.826  14.910   2.971 -0.2090 -0.2452 -0.2527
24715W        W39846  10.310   4.965  10.991 -0.0702  0.1414  0.4928
24716W        W39847  10.499   0.643   4.614  0.0513  0.2651 -0.0814
24717W        W39848   8.230   2.834   3.958  0.1352  0.0744  0.0155
24718W        W39849   4.690   3.592  13.412 -0.0409 -0.0523 -0.2357
24719W        W39850  11.369   3.402   3.522 -0.3100  0.1617 -0.1955
24720W        W39851  17.390   3.939   4.817 -0.0573  0.0898 -0.0704
24721W        W39852  14.661   9.219   5.877  0.0015  0.0983  0.2944
24722W        W39853   2.587  10.767  16.275 -0.2373 -0.0302  0.3612
24723W        W39854  16.173  17.533   0.541 -0.0920  0.1365 -0.0135
24724W        W39855   4.640   8.799   3.485  0.3137  0.1205  0.3734
24725W        W39856   5.423   0.225   2.458  0.0212 -0.1622  0.0860
24726W        W39857   5.108   4.084   0.620  0.0333  0.1273 -0.4301
24727W        W39858  17.045   3.784  12.403  0.0004  0.1377  0.1355
24728W        W39859  11.388  17.734   0.281  0.1615 -0.1275  0.1229
24729W        W39860  13.882  11.684  15.713  0.0997 -0.1895  0.1370
24730W        W39861  14.023   2.191  12.381 -0.1890  0.1646  0.3457
24731W        W39862   9.137  15.019   0.914  0.1123  0.1765 -0.0308
24732W        W39863   2.359  17.080   1.310 -0.0532 -0.0472 -0.2630
24733W        W39864   1.839   6.271   5.554 -0.1618  0.0264 -0.0254
24734W        W39865  15.031  14.352  12.477 -0.0851  0.0994 -0.1455
24735W        W39866  13.975  12.695   5.833 -0.0852  0.3023 -0.0577
24736W        W39867  11.459   1.200  13.839 -0.1438 -0.0899  0.0518
24737W        W39868   9.702  12.360  16.722  0.0204  0.1169  0.1331
24738W        W39869  12.758  17.455   2.177  0.2007  0.0712 -0.2487
24739W        W39870  10.994   0.472  14.927 -0.0403  0.3621 -0.0366
24740W        W39871  17.524  10.966  12.023 -0.0834 -0.0460  0.1249
24741W        W39872   2.553   7.863   3.141 -0.1085  0.0168  0.0789
24742W        W39873   5.291   6.142  15.884 -0.0310  0.2452 -0.0003
24743W        W39874   7.633  11.946   1.081 -0.1155  0.0098  0.2146
24744W        W39875   2.532   1.549  12.485 -0.0138  0.0017  0.1582
24745W        W39876   7.346   9.006  12.133  0.0047 -0.1356  0.3461
24746W        W39877  14.362   6.787  15.512  0.0208  0.1465  0.2639
24747W        W39878   8.950  14.871   1.340 -0.2642  0.2039 -0.2474
24748W        W39879   0.556  11.403  10.402  0.0497  0.1765  0.1574
24749W        W39880   4.600  17.554   1.879 -0.0173 -0.1949 -0.0428
24750W        W39881   1.288  15.631  16.142  0.0997  0.3139 -0.0889
24751W        W39882   3.866  14.898   0.122  0.1225 -0.1578  0.0799
24752W        W39883   8.406   4.045   1.084 -0.1301 -0.0278  0.2024
24753W        W39884  13.751   6.640  11.726 -0.1051 -0.3244  0.3050
24754W        W39885   0.945   2.770   4.849 -0.0154  0.2954  0.0939
24755W        W39886   7.103  11.897   2.729 -0.0527  0.0560  0.1605
24756W        W39887  17.223   2.971  11.968  0.2684  0.1825  0.0795
24757W        W39888   1.414   2.804  15.891 -0.0783 -0.2411  0.0995
24758W        W39889   7.979  17.733  11.572  0.3896 -0.0714  0.0621
24759W        W39890  13.902   9.592   4.987 -0.2072 -0.0020 -0.0262
24760W        W39891   5.340  11.241   5.096 -0.1057 -0.2032  0.2527
24761W        W39892   4.492  12.061  13.439  0.0200  0.0326  0.0792
24762W        W39893  12.345   2.591  13.232  0.0169 -0.0442  0.0684
24763W        W39894  16.916   2.509  10.791 -0.1999 -0.0543 -0.0145
24764W        W39895  10.776   2.620   3.260  0.1263 -0.2843 -0.0841
24765W        W39896   5.935   1.428  15.025 -0.0900 -0.2257  0.1524
24766W        W39897   4.757  10.565   5.573 -0.1220 -0.2377 -0.2762
24767W        W39898   3.594  15.215  13.280 -0.1048 -0.0196 -0.1319
24768W        W39899  16.969   6.226  15.575 -0.3133 -0.2378 -0.3411
24769W        W39900   7.317   3.128  15.122  0.1874 -0.3914  0.0756
24770W        W39901   8.068   6.009  15.302 -0.1829  0.0349 -0.0908
24771W        W39902  14.700   3.939  15.668  0.0286 -0.1796  0.2115
24772W        W39903   6.016  13.965   1.598 -0.2206 -0.0121 -0.2278
24773W        W39904   6.099   2.656  12.132 -0.1069 -0.3078  0.1889
24774W        W39905   2.881  12.998   0.443 -0.0313  0.0716 -0.2643
24775W        W39906  14.200   8.417   0.921 -0.2191 -0.0804 -0.1847
24776W        W39907   1.436   3.463  11.348  0.1624 -0.0865  0.0407
24777W        W39908  16.581  10.863   2.764  0.0105 -0.0495  0.3763
24778W        W39909  17.067   6.328   3.947 -0.1441  0.1297  0.0977
24779W        W39910   0.493   7.039  16.377 -0.0023 -0.0468 -0.0874
24780W        W39911  12.659   4.496  11.943 -0.3944 -0.1651  0.1499
24781W        W39912  10.837   5.931   5.106 -0.1455 -0.2369 -0.1306
24782W        W39913   7.305  11.432   5.687  0.0077  0.4051  0.3143
24783W        W39914  17.533   9.388  11.778  0.1185  0.0197 -0.1847
24784W        W39915  17.813   1.950  12.721 -0.1119 -0.0801  0.1661
24785W        W39916  12.393   1.856   4.803 -0.1239 -0.1195  0.0468
24786W        W39917  13.932   9.678  11.823  0.3179  0.1071 -0.1468
24787W        W39918   5.740  13.840  16.009 -0.2998 -0.0291  0.1374
24788W        W39919   0.295   4.688  15.133  0.2476  0.1138  0.2642
24789W        W39920   0.241   6.776   0.980  0.1722  0.0939 -0.0122
24790W        W39921   8.421   6.339  11.658 -0.1453 -0.0099  0.0521
24791W        W39922  11.950   5.889  12.609 -0.3993 -0.0792  0.3326
24792W        W39923   0.989  10.967   5.108  0.1089  0.1247 -0.0173
24793W        W39924  16.998  17.854   3.965  0.1356 -0.1593  0.4730
24794W        W39925  16.409   4.117   3.598 -0.0268  0.3921  0.0417
24795W        W39926  10.884   2.662  12.880 -0.0392  0.3540 -0.0120
24796W        W39927  12.530  13.049   6.394 -0.0057  0.0075  0.0728
24797W        W39928   8.552   0.814  12.283  0.0068  0.1964 -0.0350
24798W        W39929   2.303   3.634  16.361 -0.1886  0.3448 -0.2471
24799W        W39930  14.262   6.100   3.719 -0.0742  0.2370 -0.2101
24800W        W39931  17.731   8.916   6.139 -0.1359 -0.2520 -0.0769
24801W        W39932   3.692   8.753  14.411 -0.2090 -0.0951  0.4388
24802W        W39933   8.606   4.867  15.455  0.2997 -0.0345 -0.0294
24803W        W39934  12.933   7.159  13.664  0.3573 -0.0194 -0.0784
24804W        W39935   9.253   2.382   2.855 -0.0432 -0.1655 -0.1480
24805W        W39936   1.568   8.166  13.908 -0.5027  0.3521 -0.0212
24806W        W39937  14.601  15.322  12.507 -0.0924 -0.1894  0.1170
24807W        W39938   5.771  15.277   5.602  0.0875  0.2624 -0.1263
24808W        W39939  13.169  11.888   5.512  0.0119 -0.1116  0.4166
24809W        W39940  11.373  11.026  15.490 -0.0403  0.2837  0.0319
24810W        W39941  15.152   0.848   2.002  0.2533  0.1871  0.0230
24811W        W39942  13.207  16.002   1.315 -0.2757 -0.1811  0.0070
24812W        W39943  17.399   4.693  14.579  0.1368 -0.2460  0.0455
24813W        W39944  12.446   6.970   1.590 -0.2187  0.1555  0.1443
24814W        W39945   1.135   8.933   1.147  0.1722 -0.0243 -0.1050
24815W        W39946   0.235   3.238   3.325 -0.1869 -0.0676  0.0305
24816W        W39947  16.146   6.437  11.120 -0.0165 -0.2617 -0.0428
24817W        W39948  12.631   0.140  14.014  0.0050  0.2340  0.3138
24818W        W39949   1.398   0.108   1.865  0.0726  0.0400  0.0067
24819W        W39950   2.022  14.268  16.078 -0.0121 -0.1691 -0.0739
24820W        W39951  17.509   5.683  16.237 -0.1659 -0.1816 -0.1237
24821W        W39952   1.171  14.105  12.792  0.2921 -0.2599 -0.0293
24822W        W39953   2.747   2.927   4.927  0.3685  0.2627  0.2259
24823W        W39954  10.322   8.638   3.940 -0.2485 -0.1062 -0.0294
24824W        W39955  13.854   2.062   3.041 -0.1992 -0.1824 -0.0844
24825W        W39956  11.251  16.875   0.794 -0.2827 -0.0088 -0.2849
24826W        W39957   5.374   0.208  15.309 -0.0153  0.1980  0.0108
24827W        W39958  13.920   6.239   6.531  0.0401  0.0233 -0.1651
24828W        W39959  13.656   0.883  16.425 -0.0731 -0.0855  0.0235
24829W        W39960  15.911   3.988   2.759 -0.1099  0.1701  0.0037
24830W        W39961   9.283   9.001   2.019  0.2469  0.0335 -0.3032
24831W        W39962  17.741  16.575  14.527  0.0704  0.1021 -0.1428
24832W        W39963   3.978   9.488   3.573  0.0250 -0.0215  0.0101
24833W        W39964   5.979  11.203  13.802 -0.0862 -0.0226 -0.1270
24834W        W39965   1.268  14.470   6.041 -0.1529 -0.0190 -0.2534
24835W        W39966   3.944  13.566  13.304  0.0739 -0.0367 -0.1663
24836W        W39967   1.105  12.880   3.373  0.1968 -0.0266 -0.2577
24837W        W39968   5.621   3.818  14.090  0.1265  0.1448 -0.2068
24838W        W39969   3.002  16.639   5.829 -0.0584 -0.2033  0.0202
24839W        W39970  10.353  17.273   0.654  0.1666 -0.0042 -0.2641
24840W        W39971   1.672   7.614   4.889 -0.0155  0.3008 -0.0562
24841W        W39972   8.985   0.560   0.142  0.1649 -0.0762  0.1254
24842W        W39973   1.454  15.476  15.662 -0.0658 -0.2865 -0.5382
24843W        W39974  10.560   2.769   0.578 -0.2663 -0.1051 -0.1203
24844W        W39975   5.234  11.468  13.110 -0.1460 -0.1175 -0.1925
24845W        W39976  17.343  12.594  13.081 -0.0515 -0.1787 -0.1498
24846W        W39977   0.718   4.610   4.961 -0.2249 -0.0268 -0.0244
24847W        W39978   4.425   4.671  15.170  0.0083 -0.1576  0.0626
24848W        W39979   6.708   9.374  14.965 -0.3672  0.0346 -0.0069
24849W        W39980   6.182   1.081   0.509 -0.0363  0.2816  0.1703
24850W        W39981  11.245  11.861  10.355  0.2772 -0.0447  0.0007
24851W        W39982   4.891   9.731  14.733 -0.1428  0.2140 -0.3134
24852W        W39983  15.534  14.196  16.379 -0.0077 -0.3738  0.0225
24853W        W39984   9.335  14.767  16.045  0.0773  0.1014  0.0809
24854W        W39985   8.629   8.062   3.499  0.3448 -0.1674 -0.1685
24855W        W39986   7.570   2.956   5.332 -0.1950 -0.1407  0.0616
24856W        W39987   6.485   0.018   3.512  0.2114  0.2057  0.0286
24857W        W39988  15.956   3.917   3.326 -0.1322  0.0672 -0.2856
24858W        W39989   4.132   7.023   1.995  0.1714 -0.0179 -0.1223
24859W        W39990  11.265   1.811   2.951 -0.2657 -0.1782 -0.1025
24860W        W39991  11.196   5.551   4.928  0.2263  0.0547 -0.0299
24861W        W39992   1.745  14.309   5.841  0.1634 -0.0610  0.1615
24862W        W39993  11.370  10.739   5.700  0.0856  0.2461  0.2085
24863W        W39994  14.190  17.112   3.655 -0.0150 -0.1881 -0.2315
24864W        W39995  17.365   1.232  10.485 -0.1369 -0.0272 -0.1699
24865W        W39996  10.179   3.625  14.623 -0.0921 -0.1313  0.2586
24866W        W39997   0.819   8.772   2.812  0.2346  0.0062  0.2301
24867W        W39998   4.111   5.873   4.584  0.1549 -0.0652  0.0208
24868W        W39999   4.333   6.670  15.141  0.0547 -0.0680  0.1116
24869W        W40000   7.291  12.842   6.210  0.2045  0.0131 -0.0287
24870W        W40001  11.564   5.369   3.229  0.1202 -0.1808 -0.1342
24871W        W40002   2.830  12.870  12.433 -0.3222 -0.0995  0.3684
24872W        W40003  14.830  17.504  15.871  0.0058 -0.1451  0.0702
24873W        W40004  13.697  12.827  10.837 -0.1481 -0.0383  0.3278
24874W        W40005   7.478   8.391  14.864 -0.0171 -0.1207 -0.4460
24875W        W40006   9.951  12.782   0.535 -0.0542  0.0685 -0.0660
24876W        W40007  13.929  11.834  11.221  0.4353 -0.0174 -0.2273
24877W        W40008   3.463   9.260   0.099 -0.1510  0.0630  0.0398
24878W        W40009   6.649  14.600   3.204 -0.1545 -0.1254 -0.0969
24879W        W40010   5.542   2.081   5.560  0.3173 -0.3156  0.1419
24880W        W40011  13.672  17.230   0.781 -0.1688  0.0123  0.1281
24881W        W40012  17.125  14.478  12.249 -0.2456 -0.0707 -0.0864
24882W        W40013   7.663  17.357  14.810  0.4217 -0.1262  0.2070
24883W        W40014  14.196  12.005   2.372  0.1687 -0.0176  0.1734
24884W        W40015  14.828   3.114  14.933 -0.1948  0.0169 -0.0550
24885W        W40016  11.712  13.800  11.498 -0.1804  0.3468  0.0320
24886W        W40017   1.668  15.527   0.155 -0.2281 -0.2010  0.0138
24887W        W40018  11.707  17.859  14.016  0.2105 -0.3118 -0.1288
24888W        W40019  15.131   0.401   3.755 -0.3033 -0.2115 -0.0369
24889W        W40020   1.563   2.167  13.315  0.1571  0.0873  0.0460
24890W        W40021  15.871   1.254   3.577  0.2583 -0.3273  0.0804
24891W        W40022   9.561  10.466  14.847 -0.0015 -0.0106  0.1052
24892W        W40023  17.820   3.178  12.225 -0.2056 -0.2206  0.1542
24893W        W40024  10.061  15.685   1.242  0.1033 -0.2767 -0.0929
24894W        W40025  15.309   8.632   3.994  0.1168  0.3085  0.3827
24895W        W40026   3.248   5.425   4.052  0.2500  0.0296 -0.4221
24896W        W40027  13.028   5.346  16.313  0.2170  0.1677 -0.1908
24897W        W40028   5.234  16.814  13.850  0.0381  0.3293 -0.1812
24898W        W40029   7.041   1.878   1.204 -0.0327 -0.0849  0.2194
24899W        W40030   1.645   7.072   4.134 -0.1589  0.0196  0.0831
24900W        W40031   5.472   1.493  12.422 -0.1493  0.0170 -0.0270
24901W        W40032  15.870  15.964   1.328 -0.0683 -0.1324 -0.2681
24902W        W40033  13.719  16.927  15.294  0.1289 -0.2317  0.0291
24903W        W40034  12.089   0.599  15.366  0.0962 -0.1379 -0.2270
24904W        W40035   0.636  12.011   3.334  0.1898 -0.1397  0.2150
24905W        W40036  11.209  10.097   3.979  0.3902  0.0718 -0.1645
24906W        W40037   1.211  10.476   5.059  0.0607  0.3315 -0.0413
24907W        W40038   5.246  14.333   3.344  0.2411  0.1283 -0.0712
24908W        W40039  10.577   4.795  12.382 -0.0113  0.0770 -0.1605
24909W        W40040  14.994  15.166  14.861  0.0452 -0.0767 -0.1632
24910W        W40041   6.199   4.949  11.634 -0.3226 -0.0107 -0.5132
24911W        W40042   5.042  10.244  11.446  0.1269 -0.0592  0.4263
24912W        W40043   8.970   1.252  13.510 -0.1542  0.1736  0.1803
24913W        W40044  12.820   3.047   4.963  0.1385 -0.2371 -0.1334
24914W        W40045   6.591   8.215  16.183 -0.2336  0.0009  0.3844
24915W        W40046  12.525   2.238  11.145 -0.2429  0.4065 -0.1495
24916W        W40047  13.340   9.021  14.382 -0.1395 -0.0744  0.1235
24917W        W40048   2.061  14.408   2.415  0.0313  0.1994 -0.3979
24918W        W40049   3.376   2.683  16.481  0.0890 -0.1525 -0.0928
24919W        W40050  17.072  17.476   2.427 -0.0890 -0.0299  0.0827
24920W        W40051   9.871  12.003   1.775 -0.1771 -0.0888  0.1259
24921W        W40052   1.640  12.442   2.687  0.0807 -0.3660 -0.3350
24922W        W40053   0.437   4.043  13.748  0.1603  0.1701 -0.2441
24923W        W40054   2.350   3.955   0.901 -0.4702  0.1662  0.1731
24924W        W40055  12.014   0.437  11.618 -0.2636  0.0716  0.1365
24925W        W40056   6.153   9.487   3.659  0.0380 -0.0952 -0.0647
24926W        W40057  15.478   0.558   4.568  0.3764  0.2772  0.3511
24927W        W40058  14.789   0.692  13.465  0.3588  0.1213  0.2845
24928W        W40059  17.344   6.420  13.449 -0.0837  0.1749 -0.0684
24929W        W40060  10.120   1.882  15.851 -0.2726  0.3894  0.1530
24930W        W40061   2.839   6.308  15.688  0.0806 -0.0356  0.3065
24931W        W40062   0.330   2.940   0.084 -0.2462  0.1229  0.0892
24932W        W40063   0.997   1.344  12.112  0.0024  0.0696  0.1530
24933W        W40064   3.785  17.084   4.515  0.1635 -0.1685 -0.3349
24934W        W40065   8.893   1.193   0.938 -0.2865  0.5143  0.0220
24935W        W40066   5.653   3.974   2.775 -0.0066  0.0187  0.1369
24936W        W40067  12.106  11.536   1.526  0.1651  0.3693 -0.2714
24937W        W40068   5.699  10.961  14.731  0.2283  0.1818 -0.0348
24938W        W40069  14.169  13.241   0.474  0.1214 -0.1167 -0.2786
24939W        W40070   0.870   4.923  10.164  0.1354  0.1914 -0.1862
24940W        W40071   5.683   4.235  16.520  0.0684  0.0285 -0.1823
24941W        W40072   1.807  10.580   4.036 -0.0904 -0.0853  0.0031
24942W        W40073   9.620  16.492  16.003  0.1331 -0.1648 -0.2217
24943W        W40074   0.070   5.369   1.607 -0.1099  0.1094  0.0887
24944W        W40075  11.098   0.567  14.057  0.3551  0.0412 -0.0556
24945W        W40076  12.273   3.100  14.451  0.0371  0.2293  0.1720
24946W        W40077  11.171   8.827   0.472  0.0426 -0.0051  0.3698
24947W        W40078  15.730  11.523  14.531 -0.3536 -0.0642 -0.0642
24948W        W40079  16.746   4.280   1.849  0.1518 -0.0411  0.1150
24949W        W40080  15.359  16.705  11.517  0.2779 -0.0714 -0.2859
24950W        W40081   4.136  13.221  12.364 -0.1535 -0.1635 -0.4145
24951W        W40082   8.125   0.307  15.081  0.2693 -0.1346 -0.0912
24952W        W40083   0.165  12.526   3.147  0.0224 -0.0798  0.0948
24953W        W40084  11.418  12.141  11.322  0.1697 -0.4467 -0.2233
24954W        W40085  15.680   5.895  14.933  0.0600  0.2049  0.1302
24955W        W40086  15.717  15.225  14.479 -0.0717  0.2888  0.0090
24956W        W40087   7.752   1.654   1.949  0.0945  0.0111 -0.7506
24957W        W40088   8.734  17.800   4.758 -0.3701 -0.0685 -0.0280
24958W        W40089   5.684  15.247  16.564  0.2830 -0.1144 -0.0887
24959W        W40090  17.389   5.578  12.986  0.1749 -0.0692  0.0291
24960W        W40091  10.211   5.849   1.958  0.1101 -0.1193 -0.0578
24961W        W40092  16.510  16.738   0.459 -0.2198 -0.1113 -0.2463
24962W        W40093   7.150   9.940   2.953  0.1005  0.0414  0.2472
24963W        W40094  11.712   2.654  16.558 -0.1593 -0.1120 -0.0534
24964W        W40095   4.713  15.900  12.744  0.2552  0.0462 -0.1305
24965W        W40096   0.252  10.432   2.181 -0.0038 -0.0173 -0.2823
24966W        W40097   7.131   1.252   5.742 -0.1969 -0.1188 -0.0422
24967W        W40098   2.054  10.837  14.492  0.0019  0.2880 -0.0015
24968W        W40099  15.788   2.996   1.049  0.0648  0.0799 -0.3848
24969W        W40100  13.325   4.452  11.583 -0.3087 -0.2078 -0.1686
24970W        W40101   4.644   6.109   5.345 -0.0713 -0.0758  0.1846
24971W        W40102   6.425  17.737   1.957 -0.1090  0.2448  0.0189
24972W        W40103   2.432  11.527  11.751 -0.0846 -0.3568  0.2707
24973W        W40104   0.863   5.190   3.181  0.3185  0.0099  0.3771
24974W        W40105   5.379   7.327  16.700  0.0673 -0.0532 -0.0455
24975W        W40106   9.651   1.681  10.816 -0.1348  0.1159  0.0285
24976W        W40107  11.700  12.800   4.917  0.0650  0.0703 -0.3130
24977W        W40108  10.867   7.219  14.564  0.1597  0.2436  0.0115
24978W        W40109   6.141  15.255  14.888 -0.1325 -0.2136 -0.2317
24979W        W40110  15.382   2.799   3.338 -0.0343 -0.0957 -0.1581
24980W        W40111  16.604   0.169   2.956 -0.1582 -0.1730 -0.1705
24981W        W40112  16.078  13.306   2.919  0.0328  0.2592 -0.0178
24982W        W40113   1.477   0.118   1.396  0.0774  0.0657 -0.2279
24983W        W40114   6.769  17.734   0.943  0.0167  0.0470  0.1010
24984W        W40115  14.528  12.359   2.182  0.2084  0.2275  0.1741
24985W        W40116   2.143  14.414  13.680 -0.2231  0.3216  0.0722
24986W        W40117  17.646   3.528  14.145 -0.2498  0.1814  0.0473
24987W        W40118   9.661  15.151  16.745 -0.2142  0.0112  0.2390
24988W        W40119  13.143  16.456   5.262  0.1480 -0.0261  0.0020
24989W        W40120  17.785  15.015   1.098  0.0363  0.0334  0.3220
24990W        W40121  13.835   0.001  15.054  0.0133 -0.1846  0.0880
24991W        W40122  16.243  12.891   0.757  0.0938 -0.1926 -0.1755
24992W        W40123   6.548   3.868  11.061 -0.1399 -0.2715 -0.1386
24993W        W40124   2.260  17.191  15.036 -0.0260  0.1932 -0.0433
24994W        W40125  14.471   0.230  16.667 -0.2157 -0.0403  0.0044
24995W        W40126   4.393   8.103   1.888  0.2331  0.1507 -0.2715
24996W        W40127   5.446  17.124  12.303  0.1362  0.1660 -0.2672
24997W        W40128   8.107   4.622  14.722 -0.1218 -0.0692  0.1676
24998W        W40129   9.326  15.580  10.939  0.1064 -0.1650  0.1040
24999W        W40130   8.419  10.542  12.999  0.0357 -0.0212 -0.0953
25000W        W40131  16.089   2.746  12.440 -0.0502 -0.1869 -0.2279
25001W        W40132  10.619   7.129   4.406  0.0604 -0.0785 -0.0688
25002W        W40133  11.296   6.450   2.773 -0.2917 -0.1739 -0.2228
25003W        W40134  15.686  13.656   3.770 -0.1428  0.0346  0.0781
25004W        W40135   8.405  12.599  12.152  0.0497 -0.2322  0.1047
25005W        W40136   4.459   1.168  12.913  0.0241  0.0373 -0.0661
25006W        W40137  12.161  11.659   0.913 -0.1327  0.1378 -0.3166
25007W        W40138   5.926  17.413  15.621 -0.1843  0.0921  0.3342
25008W        W40139  13.884  10.226   3.198 -0.1406  0.1175  0.2676
25009W        W40140  13.735  10.144  14.003  0.3842 -0.2491 -0.1030
25010W        W40141   0.265   8.823  16.023 -0.0537  0.1559 -0.1990
25011W        W40142   2.836   4.443   2.856 -0.5077 -0.0836  0.2719
25012W        W40143  15.003   4.095  13.323  0.0460 -0.1963  0.0810
25013W        W40144   0.665  14.382  14.490  0.3390 -0.0707  0.2079
25014W        W40145  12.067  16.499   3.174  0.1306 -0.1255 -0.0766
25015W        W40146   9.493   8.139  12.348  0.1178 -0.0344  0.1248
25016W        W40147   3.484  12.160  12.730 -0.0425  0.0908 -0.2036
25017W        W40148   0.413   7.524  13.582 -0.0256 -0.0800  0.0251
25018W        W40149   2.802  15.943   2.920  0.2113  0.2965 -0.2779
25019W        W40150  12.255   7.697  11.722  0.0824  0.0054 -0.3352
25020W        W40151   1.812   0.822  12.762 -0.1763  0.0382 -0.1632
25021W        W40152   7.303  14.249   2.062  0.3184 -0.0870  0.1757
25022W        W40153  17.808   5.167   5.146 -0.2428 -0.0438  0.2034
25023W        W40154   7.242  14.213   1.530 -0.2352 -0.1213 -0.1768
25024W        W40155   8.147   3.099   3.476  0.0516  0.0934  0.0296
25025W        W40156  10.626   5.005   0.160 -0.0863 -0.1272 -0.3335
25026W        W40157   1.749  11.962   0.764  0.2921 -0.1239  0.1741
25027W        W40158   3.041  17.856   2.211 -0.1304  0.0633 -0.0244
25028W        W40159  11.806   5.603   5.735 -0.0219  0.1310  0.4002
25029W        W40160  10.606  15.538  13.548  0.1432 -0.0912 -0.2072
25030W        W40161   6.933  10.337   1.689  0.0518  0.0339 -0.0458
25031W        W40162  12.963   7.952   5.259 -0.1504 -0.0462  0.0929
25032W        W40163   1.380   6.014  12.483 -0.0843 -0.2145 -0.1884
25033W        W40164  13.987   0.718  15.996  0.1376 -0.1181 -0.0147
25034W        W40165  11.364   4.671  13.207 -0.0363 -0.3989 -0.1164
25035W        W40166   2.199   7.653   1.678 -0.2553 -0.0441 -0.0338
25036W        W40167  17.587   7.946   0.991 -0.0017  0.0732  0.2983
25037W        W40168  17.798  15.760   5.197  0.1617 -0.1091  0.0304
25038W        W40169   7.710   0.541  11.173  0.0892 -0.0559 -0.1029
25039W        W40170  13.879  17.037  12.790 -0.1851 -0.1271 -0.0879
25040W        W40171   4.622  11.578  14.791  0.2331 -0.0677 -0.1521
25041W        W40172   0.544  13.280   4.260  0.1810 -0.0976 -0.0759
25042W        W40173  10.077   3.201  11.972  0.3298  0.1553  0.6424
25043W        W40174   7.317   5.841  16.253  0.2508  0.1268  0.2034
25044W        W40175  10.794   7.708   1.106 -0.0055  0.3560  0.0373
25045W        W40176   2.109  13.787  13.532  0.0441 -0.0355  0.0764
25046W        W40177  15.608   1.048  14.341  0.1015  0.0915 -0.0991
25047W        W40178  17.630   0.413   1.719  0.0082 -0.0840  0.0710
25048W        W40179   9.365   2.604   2.059  0.2447  0.1656  0.3694
25049W        W40180   6.496  16.845   5.445 -0.0385 -0.1497 -0.3425
25050W        W40181   3.243   3.312   1.722  0.2119 -0.3778 -0.0345
25051W        W40182   7.719   4.446   1.479  0.1994  0.1429  0.0204
25052W        W40183  15.669  11.384   3.826  0.0982 -0.2779 -0.2435
25053W        W40184   9.909  13.528   1.878  0.2044 -0.0056  0.4259
25054W        W40185   8.383  11.734  16.476  0.4110 -0.0007  0.2940
25055W        W40186   3.946   1.072   4.722  0.2335  0.2230 -0.0572
25056W        W40187  12.447   9.882   5.385  0.0852 -0.1618 -0.0928
25057W        W40188  12.554   3.269   2.079  0.0602  0.2936  0.1020
25058W        W40189  11.740   6.828   2.040 -0.2976  0.3789  0.1508
25059W        W40190   1.359   4.205   2.456  0.1220 -0.1445 -0.0595
25060W        W40191   3.263  11.920   1.497 -0.3033  0.1039  0.1168
25061W        W40192   2.152  14.361   3.494 -0.0143 -0.1620  0.0685
25062W        W40193   8.861  15.234   4.803  0.0681 -0.1699  0.0356
25063W        W40194   3.166   5.280  16.691  0.3977  0.0844 -0.0172
25064W        W40195   2.607   1.510   1.894 -0.4933 -0.1669 -0.0302
25065W        W40196   3.637  11.581  11.655  0.1894 -0.0131 -0.0958
25066W        W40197  14.904   0.060  16.442  0.0284  0.1583 -0.2546
25067W        W40198   8.668  17.354   5.516  0.0748 -0.1849  0.1115
25068W        W40199  12.183  10.294  12.433 -0.0835  0.1108 -0.0509
25069W        W40200   3.330   5.599  13.592  0.2249 -0.1678  0.0592
25070W        W40201   9.381   5.696  12.131  0.0013  0.0860 -0.1213
25071W        W40202   9.833   1.864   5.549  0.0066  0.0246 -0.1320
25072W        W40203   3.544   9.318   4.548 -0.0841 -0.1392  0.0972
25073W        W40204   1.381   3.049  13.606 -0.0929  0.2030 -0.0348
25074W        W40205   7.718   8.092   2.106 -0.2639 -0.0387 -0.1857
25075W        W40206  14.242   4.450   1.351 -0.0967 -0.0414 -0.1188
25076W        W40207   7.200   4.791   3.971  0.1094 -0.0377 -0.1506
25077W        W40208   3.951   5.679  15.818  0.2419 -0.2442 -0.2271
25078W        W40209  13.983  10.553   2.772  0.2276  0.0237 -0.2581
25079W        W40210  11.877  12.752   1.778 -0.0693 -0.2118 -0.5434
25080W        W40211   6.083   5.041  15.944 -0.1716  0.1314 -0.1223
25081W        W40212   1.109  11.711   4.163  0.1578  0.1097  0.2158
25082W        W40213  11.780   2.249   0.986  0.1211  0.0302 -0.0024
25083W        W40214   4.721   0.580  16.068  0.0618 -0.3087 -0.0306
25084W        W40215  10.577   0.057  16.772  0.1280  0.0917  0.2171
25085W        W40216  12.474  12.885  11.499  0.1797 -0.4192  0.3663
25086W        W40217   0.212  16.506   2.363  0.1961  0.0594 -0.0236
25087W        W40218   8.881  14.111  12.783 -0.2047 -0.0954 -0.0051
25088W        W40219  12.859  11.713  14.567  0.1578 -0.0011  0.3327
25089W        W40220   4.651   5.054  16.468 -0.0524  0.4040  0.2662
25090W        W40221   0.775  13.244   2.468  0.0457 -0.2183 -0.0104
25091W        W40222  11.218   9.525  16.017  0.2884  0.0211  0.0554
25092W        W40223   0.685   0.701   2.315  0.1214  0.1314 -0.1928
25093W        W40224   2.358  15.462  15.384 -0.0216  0.0989  0.1223
25094W        W40225  10.604   2.946  15.201  0.0223  0.2287 -0.1069
25095W        W40226   5.989   8.223   3.770 -0.2520  0.1980 -0.1447
25096W        W40227  10.948  16.952   3.064 -0.0481  0.0989  0.1653
25097W        W40228  13.980   9.826  12.722  0.1610  0.1936  0.0851
25098W        W40229   0.400   5.757   4.353  0.0347 -0.0181 -0.0093
25099W        W40230   7.260   9.329   5.196  0.2478 -0.1562  0.0010
25100W        W40231  13.510   5.946   0.239  0.1406  0.0627 -0.0563
25101W        W40232  11.469  14.930  16.261  0.1276  0.0025  0.1353
25102W        W40233   4.579  13.286   4.394 -0.2872  0.1946 -0.1368
25103W        W40234   7.228   6.592  14.875 -0.2706  0.0416 -0.1322
25104W        W40235   9.851   5.473   6.246 -0.0561 -0.0677 -0.0426
25105W        W40236  10.455   3.571   1.060 -0.1142 -0.2766 -0.0728
25106W        W40237   4.261   0.803   0.528  0.2073 -0.0079  0.2007
25107W        W40238   2.462  14.750   3.690 -0.1526 -0.0792  0.2891
25108W        W40239  17.187  11.894  15.162 -0.1365  0.0326 -0.1197
25109W        W40240   7.223   5.130  11.991 -0.0627 -0.0674  0.0884
25110W        W40241   8.925  10.556   6.066 -0.2382 -0.3197  0.0877
25111W        W40242  11.289   7.015   0.766 -0.0966 -0.1803 -0.0848
25112W        W40243  15.591  11.079   4.859  0.0163  0.2944 -0.0514
25113W        W40244  13.847   8.632  16.072 -0.2378  0.0066 -0.2050
25114W        W40245  10.876  13.045  11.258  0.1163  0.1748  0.1150
25115W        W40246   7.114  12.755   0.791 -0.1560  0.0489  0.1144
25116W        W40247  10.296   3.991  16.086 -0.0865  0.1722  0.4626
25117W        W40248  12.286   5.329  10.986  0.1953  0.1210  0.3258
25118W        W40249   9.700   3.748   5.660  0.1187  0.0903  0.2549
25119W        W40250  15.619   1.296   3.147 -0.2311  0.2342 -0.2414
25120W        W40251   8.485   0.343  15.399  0.3203 -0.0619 -0.0019
25121W        W40252   5.131   0.238  12.557 -0.2613  0.2695  0.0438
25122W        W40253   0.569   0.088  12.252 -0.2881 -0.1993 -0.1222
25123W        W40254   9.256  16.774  16.324  0.2643 -0.0164 -0.5805
25124W        W40255   0.211  10.266  15.693  0.1488  0.1457 -0.1594
25125W        W40256  13.246   1.530   4.864 -0.0611  0.0373  0.0473
25126W        W40257   1.071   6.900  14.365  0.0820 -0.2011 -0.1206
25127W        W40258  15.151   4.626   3.329 -0.0720 -0.0752 -0.0596
25128W        W40259  16.279  13.885   0.503 -0.1714  0.0500 -0.1642
25129W        W40260   2.342  15.902   2.684  0.0812 -0.4551  0.0780
25130W        W40261   8.325  13.295   2.768 -0.0142 -0.1241 -0.0660
25131W        W40262   1.660   7.121  13.235 -0.1379  0.2932  0.0233
25132W        W40263  17.321  14.570  13.191  0.2273 -0.1220  0.0748
25133W        W40264   1.133   4.837   1.209 -0.1453  0.0322 -0.0014
25134W        W40265  12.693   8.700   5.771  0.0511  0.1118 -0.2212
25135W        W40266  12.584  13.547   2.190  0.1308  0.1037  0.1975
25136W        W40267  15.016   3.972   1.266 -0.2717  0.1535  0.0763
25137W        W40268  16.776   6.024  16.627  0.0832 -0.0061 -0.1793
25138W        W40269  16.854   5.284  10.085  0.1141  0.0894  0.0074
25139W        W40270  15.458   0.918  16.291  0.0013 -0.0092  0.1392
25140W        W40271   5.475   9.295   1.103  0.1239  0.0714  0.0649
25141W        W40272  15.525   9.189   4.007  0.0830  0.2953 -0.0783
25142W        W40273   7.630   4.530  12.398 -0.1405 -0.0896  0.0191
25143W        W40274  17.778  17.265   1.957 -0.0361 -0.2501 -0.0812
25144W        W40275   6.512  12.184  16.270  0.0889  0.0690 -0.1673
25145W        W40276  13.771   2.062  11.443  0.0015  0.0971 -0.1548
25146W        W40277   6.971   6.810  11.626 -0.0286 -0.0999  0.1826
25147W        W40278   0.097  16.316   6.842 -0.0495  0.2012 -0.4313
25148W        W40279   6.916   4.909   4.988 -0.2243  0.0385 -0.3665
25149W        W40280   1.820  12.182   5.009  0.2647 -0.0492 -0.1717
25150W        W40281  12.503   6.878  11.455  0.0696  0.2365 -0.1061
25151W        W40282   6.419   9.863   5.451 -0.1699  0.0796 -0.1257
25152W        W40283  16.957   5.593   4.587 -0.0312 -0.0491 -0.1398
25153W        W40284  15.225   6.630  13.624 -0.0273  0.0635 -0.2154
25154W        W40285   2.836   4.666  15.444  0.1156  0.0995  0.1702
25155W        W40286  12.575   5.222   3.603  0.1052 -0.0439 -0.1802
25156W        W40287  11.893   4.303   2.116  0.2522  0.1347  0.0488
25157W        W40288  15.901   8.212   2.835 -0.2551 -0.2227 -0.2764
25158W        W40289   1.426  13.230  11.276 -0.1365  0.1043  0.2678
25159W        W40290  12.927   7.377  16.665  0.0160 -0.2673  0.1323
25160W        W40291  14.841   5.564  16.014 -0.0965 -0.0584  0.2391
25161W        W40292  11.452   3.539  15.467  0.1146 -0.3280  0.0325
25162W        W40293  11.060   1.661  15.373  0.1949 -0.2439  0.3364
25163W        W40294  14.493   4.864   1.229  0.0988  0.3569  0.1145
25164W        W40295   7.738   3.088   3.037 -0.1694  0.0790 -0.0680
25165W        W40296   7.170  13.885  15.775 -0.3293 -0.3657  0.3067
25166W        W40297   4.149  12.089   5.319  0.0373 -0.2815 -0.0468
25167W        W40298   5.839  16.948   1.863  0.0240  0.0950  0.2056
25168W        W40299   9.659   8.379   4.428 -0.1261  0.0093 -0.3086
25169W        W40300  10.758  11.007   0.577 -0.1392  0.2090 -0.1779
25170W        W40301  11.074  17.340  11.603 -0.0458  0.1541  0.0545
25171W        W40302  14.973  10.504  16.190  0.1801  0.0199  0.0394
25172W        W40303  10.111   1.281  14.963 -0.1385  0.0008 -0.0968
25173W        W40304  13.047   3.798  11.380  0.1910 -0.0778  0.0102
25174W        W40305  13.908  11.512   3.893  0.1130  0.2632 -0.1900
25175W        W40306   7.965  13.384   4.579  0.0368  0.1006 -0.0110
25176W        W40307   9.879   3.944  15.801 -0.0456 -0.1988  0.1691
25177W        W40308  10.229  17.789   1.909 -0.1588 -0.2726 -0.2107
25178W        W40309  17.404  16.486  12.595  0.0162  0.0325  0.0689
25179W        W40310   4.692  12.265  11.171 -0.0442  0.5011 -0.0086
25180W        W40311   6.382   8.914   5.189 -0.0557  0.0404 -0.2200
25181W        W40312   6.174   3.004  11.509 -0.3116  0.0233  0.3466
25182W        W40313   4.581   3.808   1.850  0.0954  0.1783  0.1378
25183W        W40314   2.121  17.279  12.752  0.1978 -0.0826 -0.0074
25184W        W40315   6.669  17.023   3.405 -0.1520 -0.0158  0.1053
25185W        W40316  15.360  17.474  15.675 -0.0517 -0.2220  0.3104
25186W        W40317   6.336   1.400   5.320 -0.1318 -0.0705  0.0748
25187W        W40318   7.393   0.597  15.581 -0.0061  0.3030  0.1054
25188W        W40319  14.474  14.318  14.839  0.1309 -0.1694 -0.2589
25189W        W40320   3.942   6.807  11.176  0.0616  0.0755  0.1944
25190W        W40321   2.291  11.216  13.754  0.1665 -0.1586  0.4502
25191W        W40322  10.559   9.304  12.878  0.0789  0.0273 -0.0636
25192W        W40323  14.377   0.524  14.603  0.1529  0.1707  0.2710
25193W        W40324  15.006  10.993  14.815  0.1889 -0.1339 -0.1797
25194W        W40325   9.984  10.869   2.289  0.0923 -0.2268 -0.0080
25195W        W40326   7.977   8.935   4.406 -0.0809 -0.0355 -0.3374
25196W        W40327  16.442   7.168   5.862 -0.1785 -0.0649 -0.1024
25197W        W40328   2.199  17.418  16.024  0.2179  0.0630 -0.1424
25198W        W40329   6.496   2.571  13.841 -0.1641 -0.1495 -0.2223
25199W        W40330   2.381   1.254  15.891 -0.0071 -0.0671 -0.2265
25200W        W40331   8.676   9.437  14.454  0.0772 -0.0897  0.0873
25201W        W40332   3.389   4.668  12.501 -0.3488  0.2110  0.3059
25202W        W40333   2.220  15.661   4.838 -0.1875  0.2342 -0.1326
25203W        W40334  13.189   5.483   1.189  0.1981 -0.3352 -0.1429
25204W        W40335  10.962  12.305   3.212  0.0033  0.0160  0.0456
25205W        W40336  12.528  17.857   4.956 -0.0394 -0.1078 -0.1293
25206W        W40337   9.880   5.807   5.459  0.1808 -0.2868 -0.1928
25207W        W40338   4.788  12.642   3.352  0.0629  0.0304 -0.0368
25208W        W40339   3.593  17.432   6.280  0.1416 -0.0648  0.4735
25209W        W40340  15.529  15.560   5.500  0.1188  0.0523  0.1684
25210W        W40341  16.115  16.194  14.117 -0.0795  0.1462  0.1564
25211W        W40342   9.733  10.816   1.404  0.2695  0.0502  0.1468
25212W        W40343   7.964   9.051  12.437 -0.1865 -0.1338  0.0202
25213W        W40344  14.457  10.666   1.620 -0.1879 -0.3220 -0.2223
25214W        W40345   3.134  15.914   4.266 -0.1933  0.2590 -0.0384
25215W        W40346  13.500  10.017  11.305  0.0048 -0.0716  0.4103
25216W        W40347   3.780   4.002  15.208 -0.1254 -0.0175 -0.0850
25217W        W40348  14.286  14.061  12.074  0.0698 -0.1165 -0.1092
25218W        W40349  14.648  14.318  12.889  0.0887  0.1093  0.1702
25219W        W40350   4.018   8.690  12.073 -0.1595  0.0039  0.3142
25220W        W40351   6.370   4.427   1.294 -0.4012  0.2164  0.1189
25221W        W40352   9.773  16.789  16.393  0.0892  0.2219  0.0226
25222W        W40353   9.358  14.264   1.411  0.0267 -0.1586 -0.0994
25223W        W40354  10.462  12.131   4.342 -0.2055 -0.2642  0.1127
25224W        W40355   9.869  17.398  13.075  0.0408 -0.1916 -0.0309
25225W        W40356  13.255  10.690  12.102 -0.3636 -0.1439 -0.0810
25226W        W40357   5.096  17.842   3.438  0.0440 -0.4977  0.0876
25227W        W40358   5.685  12.524   4.490  0.0578  0.1708  0.0673
25228W        W40359   2.862  11.877  14.005 -0.1845  0.2234  0.0497
25229W        W40360   1.456  17.187   3.554  0.1454 -0.1711 -0.0427
25230W        W40361   5.930  13.946  15.557  0.0226  0.0536  0.2268
25231W        W40362  15.286   5.939  13.155  0.0253 -0.0254  0.1795
25232W        W40363   6.136  11.885  12.072 -0.1403 -0.1032  0.2716
25233W        W40364   6.336   1.807   2.693  0.3668  0.2292 -0.0547
25234W        W40365   7.918   2.427  10.761  0.0110 -0.1908 -0.0172
25235W        W40366   1.115  16.372  16.626  0.1916  0.1147  0.2359
25236W        W40367   9.413   9.081  13.412 -0.0469  0.1086  0.0370
25237W        W40368   5.373   3.499   1.115  0.2224  0.1138 -0.0061
25238W        W40369   2.321   5.649  16.744  0.0642 -0.0044 -0.3842
25239W        W40370   0.872  16.800   3.786  0.0162 -0.1062  0.1523
25240W        W40371  10.162   1.757  12.211  0.1035  0.0270 -0.0745
25241W        W40372   3.031   4.011   6.088 -0.1972 -0.0578 -0.0254
25242W        W40373  11.957  17.592   2.770 -0.0665 -0.1554 -0.1812
25243W        W40374  16.454  13.417   5.822  0.3818  0.0440  0.0280
25244W        W40375  16.024  12.564  12.290 -0.0899  0.1595  0.2034
25245W        W40376   9.625   9.068   1.164 -0.0757  0.3695  0.0305
25246W        W40377   5.224  12.985   3.216 -0.1423 -0.2541  0.0876
25247W        W40378   4.947   1.110  13.527  0.0985 -0.2943  0.0798
25248W        W40379  12.947   1.513   2.751  0.0075  0.1435  0.0700
25249W        W40380   1.721  13.969   3.893 -0.0592  0.1205  0.1681
25250W        W40381  11.407   2.883  10.922 -0.2878 -0.2981  0.2313
25251W        W40382   1.973  14.226  14.413  0.3690 -0.0594  0.0925
25252W        W40383   2.583  15.396   5.854  0.0733 -0.2083 -0.2284
25253W        W40384   0.125  15.486   4.851 -0.0239 -0.0946  0.1756
25254W        W40385  16.344   7.153   1.802  0.1496 -0.1536  0.1736
25255W        W40386   9.474   3.646  16.482  0.0116 -0.3709 -0.2376
25256W        W40387   2.606   4.021  16.083 -0.0001 -0.1961 -0.1488
25257W        W40388  11.439   7.508  12.839  0.0695 -0.2157  0.1273
25258W        W40389   9.255   8.608  14.351 -0.0506 -0.1474  0.1056
25259W        W40390  11.499   4.477  16.722  0.1957  0.1786  0.1111
25260W        W40391  16.411   7.389  12.087 -0.4234  0.0613  0.1433
25261W        W40392  14.418  15.276  13.737 -0.0233 -0.2178  0.4165
25262W        W40393   9.032  12.121   3.980 -0.0804 -0.4216  0.0188
25263W        W40394  15.595  12.111  12.313 -0.3618 -0.3780  0.0064
25264W        W40395   6.438  16.802  13.685  0.1719 -0.3392  0.1186
25265W        W40396  11.778   8.429   2.990 -0.1141  0.0150 -0.2285
25266W        W40397  12.512  15.639  14.720 -0.1336  0.0308  0.0058
25267W        W40398  17.853  15.359  15.722  0.2378  0.1488  0.1137
25268W        W40399  13.928   1.695  12.734 -0.0868  0.1715  0.0238
25269W        W40400   0.361  15.518   2.765 -0.1550 -0.0136 -0.1069
25270W        W40401   3.769   2.326   4.318  0.2585 -0.0420  0.0041
25271W        W40402   4.701  14.181   3.209 -0.1037 -0.1939  0.2100
25272W        W40403   1.837  13.457   2.608  0.0126  0.1048 -0.2154
25273W        W40404   6.594   5.458  11.365  0.1976 -0.0713 -0.1681
25274W        W40405  11.179   2.174   1.260  0.0132 -0.1478 -0.0474
25275W        W40406   3.629  10.797  13.264 -0.0588  0.1299  0.2012
25276W        W40407  14.071  16.427  16.144  0.2958  0.2183 -0.0595
25277W        W40408  12.740  15.852  15.912  0.0843  0.2768  0.0179
25278W        W40409   6.202  11.515   2.007  0.3058  0.0741 -0.1492
25279W        W40410   2.395  12.707  16.292  0.0140  0.1822 -0.0991
25280W        W40411   8.169   2.108  11.958  0.3107  0.5606  0.2359
25281W        W40412  12.912  15.350   0.807  0.2513  0.4019 -0.0179
25282W        W40413   7.654  11.098   0.458  0.1568  0.1021 -0.2169
25283W        W40414   4.311  15.094  14.949  0.0649  0.1332  0.0995
25284W        W40415   7.231   7.535   5.220 -0.2160 -0.2529 -0.2859
25285W        W40416   7.428  14.191   4.186 -0.2514 -0.0075 -0.0554
25286W        W40417  16.911   0.246  14.170 -0.1068  0.1451 -0.0827
25287W        W40418   0.953  17.245  13.429  0.0131 -0.0338 -0.1526
25288W        W40419  12.309  12.218   5.155 -0.2205 -0.2445 -0.0024
25289W        W40420  13.267   0.752  10.712 -0.3238 -0.0111  0.1513
25290W        W40421  13.767  12.970  15.087  0.1852 -0.1125  0.2030
25291W        W40422  10.665  17.697   1.621  0.2057 -0.3837  0.2177
25292W        W40423  11.213   5.785   5.765 -0.1579  0.2783  0.0613
25293W        W40424  15.622   5.791   5.141  0.2403  0.1750 -0.0427
25294W        W40425   2.997   1.761  16.538  0.0240 -0.1021  0.0626
25295W        W40426  12.070   9.500   4.757  0.2007 -0.0560 -0.2559
25296W        W40427   2.990  14.469  13.210  0.0332  0.0661 -0.2206
25297W        W40428   1.736  11.500  12.674  0.1506 -0.3599 -0.0205
25298W        W40429  14.346   8.170   5.997 -0.2292  0.0248  0.1342
25299W        W40430   3.337  13.638  11.676 -0.2115 -0.1289 -0.0462
25300W        W40431   8.882  10.780  14.928  0.0122  0.0062 -0.1913
25301W        W40432   1.549   3.377  13.239  0.2302 -0.1938  0.2120
25302W        W40433   2.365   9.937  14.268 -0.0172  0.1221  0.2218
25303W        W40434   9.796  15.025  13.261  0.2546  0.0686 -0.0964
25304W        W40435   5.047  15.313  11.522  0.1828 -0.3261 -0.0351
25305W        W40436  12.923   2.281  11.459 -0.2313 -0.1404  0.0074
25306W        W40437   0.858  12.959   3.860 -0.0082  0.0291  0.0231
25307W        W40438   6.027   7.567   1.370 -0.5277  0.1290 -0.2401
25308W        W40439  10.508  10.261  10.500 -0.4158  0.1314  0.0621
25309W        W40440   8.288  15.438   2.976 -0.1573  0.1543  0.1791
25310W        W40441   7.389   2.470   1.763  0.2374  0.0310 -0.2852
25311W        W40442   7.223   6.707   4.247 -0.2169 -0.0037 -0.2325
25312W        W40443   2.490   7.876  12.298 -0.0066 -0.2172 -0.1208
25313W        W40444   0.384  14.844   1.261  0.1195  0.0005 -0.0569
25314W        W40445   6.782   6.010  15.491  0.0742 -0.0248  0.2282
25315W        W40446  14.889   9.825   4.432 -0.1227  0.0138  0.1005
25316W        W40447   1.904   5.025   4.741  0.1927 -0.0062  0.0353
25317W        W40448  12.305  11.593   5.339  0.2824 -0.1316  0.0987
25318W        W40449   6.757   2.684   5.003 -0.2667  0.1012  0.0179
25319W        W40450   7.884  15.340   2.141  0.0725  0.0553 -0.1669
25320W        W40451   2.929   0.170   0.350  0.2357 -0.1551 -0.0070
25321W        W40452  16.106  10.562   3.769  0.1572  0.0185  0.0915
25322W        W40453   1.760   5.689   2.019  0.0892 -0.5392 -0.0078
25323W        W40454  17.008  14.958  14.853  0.0596 -0.3036  0.4476
25324W        W40455   6.830  17.167  11.264  0.0387 -0.1384 -0.3036
25325W        W40456   6.794   8.186   0.378  0.0959  0.0156  0.1107
25326W        W40457  16.583   2.413   3.075 -0.0959  0.0656  0.3049
25327W        W40458  14.729   2.179  12.577 -0.0172  0.1359 -0.1853
25328W        W40459   5.271  13.845  15.975 -0.2949 -0.0823 -0.5048
25329W        W40460  16.566  10.904  15.799 -0.2659  0.3054  0.1389
25330W        W40461  10.960   7.531  11.164 -0.2756  0.1544 -0.1466
25331W        W40462   8.490   1.580  11.731  0.0120 -0.1221 -0.3096
25332W        W40463  15.803   5.802   3.687  0.0363 -0.1218  0.1411
25333W        W40464   2.369   1.505   5.782 -0.0673 -0.0513 -0.0970
25334W        W40465  12.862  16.412   1.036 -0.0768  0.0039  0.2860
25335W        W40466  16.169   4.405  15.225 -0.2710 -0.1190 -0.2034
25336W        W40467  11.760   6.572  10.160  0.0338  0.1195  0.1108
25337W        W40468  13.872  14.157   5.312  0.0419  0.0907  0.4135
25338W        W40469   7.112  17.059  16.488 -0.3207 -0.1735  0.2291
25339W        W40470  10.837  12.021   4.915 -0.3509 -0.0950  0.1169
25340W        W40471  17.718  16.594   0.856 -0.2359 -0.0778  0.0714
25341W        W40472   0.057  15.952  12.216  0.2912 -0.1522 -0.0479
25342W        W40473  15.553   6.860   1.014  0.3314  0.0363 -0.0898
25343W        W40474  12.768  16.906  16.713  0.0233  0.1292 -0.0658
25344W        W40475  10.888  17.558  11.172 -0.1075 -0.2624  0.0502
25345W        W40476   1.502   2.501  12.941  0.1798  0.2407 -0.0028
25346W        W40477  11.425  13.200  13.013 -0.0650 -0.0856 -0.3304
25347W        W40478   4.929   1.959  16.312  0.0821  0.0082  0.1065
25348W        W40479   1.220   7.395  11.040  0.0046  0.0349 -0.0285
25349W        W40480   1.506   5.101  13.712 -0.1004 -0.3486 -0.1115
25350W        W40481   7.888  13.759  16.171  0.0338 -0.2719  0.2223
25351W        W40482  15.040   6.053   4.424  0.0656 -0.2035  0.3170
25352W        W40483  11.654  13.845   3.529  0.3870 -0.3336  0.0465
25353W        W40484   8.528  13.498  14.400  0.2480 -0.0469  0.1198
25354W        W40485  13.499  14.233  11.764 -0.1405 -0.1229 -0.2892
25355W        W40486  11.957  17.035   2.499 -0.0796  0.2251 -0.0306
25356W        W40487   8.223   9.796   2.291  0.1409 -0.0880 -0.1307
25357W        W40488   8.442   0.784   3.149  0.2715 -0.0700 -0.0791
25358W        W40489   0.789   2.495  14.235  0.1982 -0.2348 -0.0048
25359W        W40490   9.614  15.063  13.725 -0.0347  0.0410  0.1419
25360W        W40491  10.588   0.588  13.673 -0.0198  0.0041  0.2180
25361W        W40492   1.397   1.539  11.951 -0.0480 -0.3699  0.1085
25362W        W40493   9.297   7.666   0.830 -0.0508  0.4048 -0.1708
25363W        W40494   0.384   1.552   2.303 -0.2195  0.0893  0.0210
25364W        W40495   4.521  10.796   5.205 -0.0301 -0.0780 -0.0158
25365W        W40496   1.815   2.415   3.789  0.1446  0.0887  0.0012
25366W        W40497   3.661   9.031  11.912 -0.1030  0.2991  0.1297
25367W        W40498  16.784   3.595  15.666  0.0672 -0.1942  0.0527
25368W        W40499  11.431   1.831   0.978 -0.1255  0.0874 -0.0565
25369W        W40500  14.918   3.498  12.669  0.1051  0.0729  0.1382
25370W        W40501  16.422  13.908   5.359  0.2407 -0.1623  0.1411
25371W        W40502   7.363  17.106  14.396 -0.1536  0.0962  0.1296
25372W        W40503   1.412   0.702  15.926 -0.0279  0.2441  0.1319
25373W        W40504   6.904   7.225  10.429  0.0176 -0.2550 -0.1437
25374W        W40505  17.507   6.178   0.954  0.2025 -0.1605  0.0645
25375W        W40506  11.939   1.914  15.929  0.0848  0.2109 -0.2536
25376W        W40507  13.707   9.696   1.008 -0.2001  0.3428  0.0313
25377W        W40508   4.271   4.085   2.108  0.0238 -0.1685  0.0222
25378W        W40509   0.551  11.180   0.834 -0.0130  0.2375  0.0943
25379W        W40510   4.721  10.536  10.358  0.1315 -0.0929  0.0491
25380W        W40511   2.933  14.348  16.601 -0.0863 -0.1237 -0.0260
25381W        W40512  13.804   7.614   0.360  0.2607 -0.1123 -0.1143
25382W        W40513  11.460  16.180  14.652 -0.3250 -0.0031 -0.1678
25383W        W40514   4.712  10.910   4.438 -0.1593 -0.0270  0.0073
25384W        W40515   1.428   3.313  12.069 -0.0709 -0.1602  0.0689
25385W        W40516  17.151   1.395   1.543 -0.1542  0.2934 -0.0018
25386W        W40517   0.315   0.158  14.411 -0.1515  0.1447 -0.2431
25387W        W40518   7.617  14.581  11.703 -0.1118 -0.1241  0.1550
25388W        W40519  16.880   9.904  14.220 -0.2158 -0.0594 -0.0655
25389W        W40520   8.976   0.632  15.405  0.1649 -0.0357 -0.0655
25390W        W40521   7.927  14.243   4.485  0.2055  0.0491 -0.1633
25391W        W40522   6.979  13.747  16.725  0.1547  0.0491 -0.1207
25392W        W40523   5.214   9.775  15.797  0.0241 -0.1039 -0.1061
25393W        W40524  11.705  14.475   2.992 -0.0148  0.0275  0.1338
25394W        W40525  12.380  17.569  13.962 -0.4387 -0.0681 -0.0149
25395W        W40526  17.386  17.443   3.721  0.2402 -0.0126 -0.0371
25396W        W40527  16.074  13.792   2.902  0.0877 -0.1029 -0.1287
25397W        W40528  15.156  12.133  16.651  0.2309  0.1443 -0.3619
25398W        W40529   0.094  13.414  11.807 -0.3014 -0.4858  0.0566
25399W        W40530   2.351   4.403   0.589 -0.4171 -0.0866  0.0379
25400W        W40531   5.451  16.272   3.748  0.1043  0.0546 -0.1356
25401W        W40532   6.686   8.121  11.848 -0.2071  0.2123  0.0856
25402W        W40533   9.846   6.738   2.916 -0.0871  0.1885 -0.0689
25403W        W40534   0.320   3.664  14.082  0.1917  0.1241 -0.0041
25404W        W40535   6.607   8.712  16.357  0.0824 -0.0380 -0.2125
25405W        W40536  17.046   8.642  12.210 -0.3104 -0.0654 -0.0359
25406W        W40537  10.645  11.519   4.811  0.2379 -0.3231 -0.0991
25407W        W40538   3.734   5.905   2.932 -0.1409  0.1264  0.0689
25408W        W40539  14.151   3.479  13.499 -0.0137 -0.0181  0.0601
25409W        W40540  10.718   6.688   0.160  0.0587  0.1127  0.0030
25410W        W40541  15.160   9.634  15.762 -0.0373 -0.2219 -0.0994
25411W        W40542  11.754   0.064  11.422  0.2826 -0.3445 -0.1689
25412W        W40543  10.435   0.390   6.061 -0.1723  0.3401 -0.0746
25413W        W40544  10.578  10.351   1.145  0.4507 -0.1291  0.2055
25414W        W40545   5.732   4.072  12.397 -0.0290  0.0334  0.1817
25415W        W40546  11.064   2.772  16.033  0.0233 -0.1752  0.2297
25416W        W40547   4.836  15.250  11.969 -0.1008  0.1244  0.0500
25417W        W40548  17.492   8.602   0.558  0.1811 -0.0253  0.1894
25418W        W40549  17.758   6.635   3.641  0.2296 -0.1656  0.1182
25419W        W40550  11.087   4.551  10.629 -0.1210  0.1451  0.0004
25420W        W40551   3.713   6.202  16.181  0.2470 -0.0396 -0.2300
25421W        W40552   5.426   1.232  15.211  0.0986 -0.0783 -0.1746
25422W        W40553   9.082   1.213  16.177 -0.2827 -0.0053  0.1292
25423W        W40554  13.588   5.414  15.556  0.0460 -0.2410  0.1223
25424W        W40555   8.221  17.728  12.317 -0.1289  0.0001  0.4019
25425W        W40556   1.851  10.358   2.919 -0.2350 -0.1579 -0.0774
25426W        W40557   5.463   5.702  10.457 -0.2161  0.0741  0.1414
25427W        W40558   7.785   2.071  16.310  0.0790 -0.0238  0.0083
25428W        W40559  14.820   8.613   3.704  0.0670  0.0088  0.1404
25429W        W40560  11.768  12.678  12.401  0.0399  0.2854 -0.2104
25430W        W40561   5.886   2.847  15.256  0.0769  0.4180  0.1038
25431W        W40562   2.520   9.357   4.802 -0.0899  0.2637  0.2603
25432W        W40563   6.411  17.262   2.149  0.2316  0.2423  0.1716
25433W        W40564   4.159  10.970  11.194  0.0357  0.3022  0.0877
25434W        W40565  16.679  17.184   2.284 -0.1521 -0.0195 -0.1714
25435W        W40566   2.781  15.318   1.766 -0.0039  0.1390 -0.1352
25436W        W40567  10.184  16.292  13.668  0.2619  0.2164 -0.0445
25437W        W40568  16.283   8.819  11.763 -0.3568 -0.1328 -0.0846
25438W        W40569  12.995   0.931  14.128  0.0918 -0.0289 -0.0933
25439W        W40570   7.230   1.562  14.540 -0.1266  0.0035  0.0392
25440W        W40571   0.046   0.673   5.365  0.1018 -0.0991  0.0635
25441W        W40572  17.641   6.196  16.339  0.0972 -0.2253  0.1766
25442W        W40573   0.155   3.819  13.202  0.1905 -0.3586  0.7171
25443W        W40574   0.505   1.305  13.152  0.1395  0.0399 -0.0253
25444W        W40575   8.383  16.375   0.355  0.3133 -0.3559 -0.2124
25445W        W40576  15.611   1.979  11.293  0.0713 -0.1840  0.0865
25446W        W40577   3.097  16.284  12.436 -0.0099 -0.1934  0.1715
25447W        W40578   1.304   4.012   0.064 -0.2183  0.1364 -0.0476
25448W        W40579   7.170  17.186   4.675 -0.2446  0.3674 -0.0388
25449W        W40580  13.965   2.917  13.967 -0.1813 -0.1508  0.3317
25450W        W40581   1.489  12.224   1.064  0.0417  0.2577 -0.1849
25451W        W40582   2.448   8.629  12.735 -0.0213  0.1997 -0.0251
25452W        W40583  12.908  11.278  14.168  0.0330  0.4324  0.3150
25453W        W40584   0.110  10.406   0.121 -0.0854  0.0623  0.0333
25454W        W40585   0.796   3.601  13.843 -0.0788  0.0575 -0.2336
25455W        W40586   6.989   1.925  12.474 -0.0030  0.3699  0.3797
25456W        W40587   0.126  16.820   5.239  0.2401  0.3612  0.0559
25457W        W40588   0.392  11.879  15.755  0.0337 -0.0683 -0.1296
25458W        W40589  13.135  16.342  14.997  0.0241 -0.0868 -0.0329
25459W        W40590  10.328  11.948   4.819 -0.2466 -0.1580 -0.0370
25460W        W40591  10.872  13.281  13.331 -0.2725 -0.1490 -0.1176
25461W        W40592  12.454  16.491   4.471  0.0477  0.2308  0.1921
25462W        W40593  11.442   8.952  11.738 -0.1701 -0.1841 -0.3835
25463W        W40594   3.499   9.288   5.963  0.2146 -0.2465  0.1744
25464W        W40595   9.729  14.802   0.281 -0.2367  0.1984  0.1108
25465W        W40596   0.943  15.543  12.089 -0.1165  0.1142  0.0005
25466W        W40597  17.125   6.489  11.139  0.0541 -0.0435 -0.2081
25467W        W40598   5.619   4.950   2.967 -0.0349 -0.1451  0.0658
25468W        W40599   5.886   6.120   5.846  0.1495 -0.2916 -0.4633
25469W        W40600   7.937   0.586  15.508 -0.0659 -0.0650 -0.0413
25470W        W40601  12.542  16.561   3.087  0.1548 -0.0995  0.1287
25471W        W40602  10.126  10.980  12.993 -0.3484  0.0774 -0.0911
25472W        W40603   0.092   6.511   4.955  0.0714 -0.0055  0.0635
25473W        W40604   7.685   6.030   0.769  0.2528 -0.2645  0.0232
25474W        W40605  11.821   6.375  14.200 -0.0288 -0.2195 -0.0806
25475W        W40606   9.478  16.254  15.526  0.4086  0.1299 -0.0562
25476W        W40607   4.949  17.805   2.166  0.0492 -0.0172 -0.0620
25477W        W40608  17.261   0.856   2.320  0.1506  0.0852  0.0105
25478W        W40609   2.281   9.411  12.903  0.0963  0.0027 -0.3630
25479W        W40610   4.474   3.455  12.638  0.3201  0.0291 -0.1041
25480W        W40611   5.424   5.085   5.417  0.0528 -0.0802  0.3634
25481W        W40612  14.640  11.423   0.248  0.1145 -0.1469 -0.2745
25482W        W40613  12.266   3.951  15.732  0.2435  0.0820 -0.1218
25483W        W40614   5.740   2.234  11.922 -0.3289  0.0543 -0.2006
25484W        W40615  11.053   1.316   2.570 -0.2526  0.1126  0.1887
25485W        W40616   4.029  11.932  13.214  0.0087  0.0426  0.1835
25486W        W40617   8.388  11.756   4.457 -0.0353  0.1851 -0.2186
25487W        W40618  15.577  16.246  12.847  0.0010 -0.0776  0.5555
25488W        W40619  17.117  14.358  15.652  0.1200 -0.0026 -0.2216
25489W        W40620  16.553   7.554   3.083 -0.0976 -0.1287 -0.2406
25490W        W40621   1.353   2.095   0.279 -0.0675  0.2906 -0.2196
25491W        W40622  11.156  16.239   6.091  0.1734  0.0227  0.0484
25492W        W40623   7.316   7.489   3.940 -0.1284 -0.1319 -0.1706
25493W        W40624  16.565   4.650   0.472  0.1792 -0.2938 -0.2118
25494W        W40625   6.919   2.654   1.845 -0.1336 -0.0945  0.1309
25495W        W40626   8.323   8.049  15.389  0.3269 -0.1825 -0.0302
25496W        W40627  17.765   1.714   2.158  0.0663  0.1070  0.0775
25497W        W40628  14.217   9.875   2.129  0.1399 -0.0504  0.0087
25498W        W40629   2.478  13.791   5.634  0.1802  0.1358  0.0571
25499W        W40630   1.938  15.641   2.886 -0.2486 -0.0407  0.1115
25500W        W40631  14.325   8.764  12.024  0.4495 -0.0157  0.1058
25501W        W40632  15.891  14.246  14.467  0.2688  0.0934  0.1081
25502W        W40633  15.610   2.342  11.675  0.3691 -0.2255  0.0735
25503W        W40634   8.151   6.128  16.258 -0.1571 -0.0442 -0.0607
25504W        W40635   7.303   4.857   2.209 -0.0335  0.1574 -0.0185
25505W        W40636   4.007  17.803   4.019 -0.0137  0.0705  0.2260
25506W        W40637  11.416   7.008  13.036  0.0341 -0.1099  0.1368
25507W        W40638   7.431  10.712  16.671  0.2254 -0.0279  0.1296
25508W        W40639   1.902  12.222  14.308 -0.2838 -0.0918  0.0933
25509W        W40640   6.244  10.341   2.964 -0.2868 -0.1484  0.2154
25510W        W40641  13.198   4.478  13.071 -0.0401 -0.0350 -0.0870
25511W        W40642  13.741  15.719  11.953  0.0407  0.1937 -0.1237
25512W        W40643  17.169   4.370  15.057  0.1149  0.4991  0.2121
25513W        W40644   9.070  17.703  14.042 -0.3286 -0.1002 -0.1842
25514W        W40645  16.156   6.980  12.011 -0.0053  0.2670 -0.0768
25515W        W40646   4.364   6.469  11.278  0.0326 -0.0375  0.1653
25516W        W40647   5.540  13.930   5.584  0.0701  0.2831 -0.0511
25517W        W40648   5.134   4.090  15.222  0.0630  0.5224  0.1685
25518W        W40649   8.169  15.804   4.124 -0.0146  0.0249 -0.3432
25519W        W40650  16.149   5.563   3.364 -0.1095 -0.1101 -0.0134
25520W        W40651   5.647  16.290  12.555  0.0405 -0.0541  0.0417
25521W        W40652   2.766   5.350   4.401 -0.4720  0.1054 -0.4980
25522W        W40653   7.145  15.539  16.707 -0.0104  0.0862 -0.2267
25523W        W40654   0.163  16.080  13.155  0.1421 -0.0432 -0.3044
25524W        W40655  14.538  15.037  14.793  0.1518 -0.2433  0.2147
25525W        W40656  16.307  10.101   3.945  0.3432  0.4081 -0.1575
25526W        W40657   7.847  12.397   3.646 -0.3055 -0.1233 -0.2201
25527W        W40658   5.254   0.157   1.656  0.0087 -0.1973 -0.2615
25528W        W40659   3.816   9.092  12.400 -0.2448 -0.3750 -0.1396
25529W        W40660   0.870   1.995   2.963 -0.0466  0.1332  0.0246
25530W        W40661  16.502   1.897   2.979 -0.1453 -0.0557 -0.0479
25531W        W40662   7.575   2.804  11.911 -0.2547  0.0412 -0.0961
25532W        W40663  14.991  14.141   5.192  0.1947 -0.1769 -0.1029
25533W        W40664   6.929  15.081  16.569 -0.1930 -0.3298  0.1018
25534W        W40665   3.442  12.503   0.086  0.0438 -0.3068 -0.1507
25535W        W40666   3.575   5.257  13.323 -0.1974  0.0432 -0.2299
25536W        W40667  15.527  12.211   5.898 -0.2246 -0.3695 -0.1059
25537W        W40668  17.262   8.039  16.075  0.2023  0.0899 -0.1664
25538W        W40669  12.146   0.558   3.523  0.1318  0.2775 -0.3208
25539W        W40670  10.622   0.558   0.155  0.4892 -0.0661  0.2117
25540W        W40671   1.934   7.036   0.200 -0.1866 -0.0413 -0.3401
25541W        W40672   9.567  15.277  10.375  0.1069 -0.0753 -0.0837
25542W        W40673   3.842   4.239   0.880 -0.3280  0.4082  0.2874
25543W        W40674  16.758   2.861   4.999 -0.3074 -0.0612 -0.1303
25544W        W40675   6.353   5.504  10.317 -0.0212 -0.0007 -0.0999
25545W        W40676  11.427   0.516   3.021  0.1906 -0.0865  0.1926
25546W        W40677   4.400   7.054   0.827 -0.1114 -0.0573 -0.3146
25547W        W40678   5.846   3.926  13.291  0.0220  0.2095 -0.0588
25548W        W40679   2.513  15.872  14.437  0.0670 -0.1283 -0.1933
25549W        W40680   0.863  12.943  16.212 -0.2290  0.0805 -0.1026
25550W        W40681  16.648   4.367   5.603  0.2333 -0.1284 -0.2037
25551W        W40682   1.810  10.805   3.346 -0.0128  0.2047 -0.0223
25552W        W40683  16.295  16.768  14.409  0.1402  0.0033 -0.0076
25553W        W40684  15.686   8.242   3.421 -0.0385  0.1027 -0.0523
25554W        W40685   0.649  10.943  13.475  0.1218 -0.2332 -0.1011
25555W        W40686   1.116   0.980   4.004 -0.1126  0.0831  0.0618
25556W        W40687   8.965  10.468  12.009  0.1134  0.1692  0.1905
25557W        W40688  12.307  17.402   1.950 -0.0452  0.1317 -0.1106
25558W        W40689   9.232  10.780  14.388  0.0518  0.0084 -0.1981
25559W        W40690  14.052  10.915  16.293 -0.1028  0.1236 -0.0899
25560W        W40691   5.151   6.747   4.219  0.1884 -0.1153  0.0642
25561W        W40692   0.395   7.246   3.902  0.1415  0.1134  0.0459
25562W        W40693   8.937  17.627  15.839 -0.0547  0.1413  0.1473
25563W        W40694   2.073  16.219  12.780 -0.3099 -0.1290 -0.0114
25564W        W40695   0.986   0.501  12.856  0.2024 -0.2644  0.0290
25565W        W40696  12.706   4.283  14.370 -0.1080 -0.1004 -0.0958
25566W        W40697   4.165  13.454   1.229  0.0404  0.0682 -0.1600
25567W        W40698  15.396  17.031  15.358  0.2296 -0.4265  0.1014
25568W        W40699  17.134  10.931  13.410  0.0785 -0.0122  0.0108
25569W        W40700  15.071  13.501  15.717  0.1683  0.1986 -0.0452
25570W        W40701   1.580   1.179  15.783 -0.1003  0.0627  0.2897
25571W        W40702   3.752   3.532   4.156 -0.1143  0.1855  0.1335
25572W        W40703  14.074  17.473   1.546 -0.3784  0.2073 -0.0983
25573W        W40704  13.192  16.988  16.081 -0.2225 -0.1360  0.1377
25574W        W40705   3.774  14.318  12.043 -0.1530 -0.0518 -0.0121
25575W        W40706   9.217   4.261   1.716 -0.2722 -0.4091  0.2424
25576W        W40707   6.998  13.568   5.166  0.0364  0.0142  0.2379
25577W        W40708   0.876   6.157  12.847  0.1730  0.0090 -0.0352
25578W        W40709   9.698   1.759  12.069  0.1688 -0.0059  0.0774
25579W        W40710  10.102   6.624  15.556  0.2765 -0.0800 -0.2348
25580W        W40711  14.411   2.472  16.127  0.1082 -0.0663  0.1223
25581W        W40712   8.420  13.551  14.906 -0.0733 -0.2108 -0.0658
25582W        W40713   2.498  11.130  12.256 -0.0794  0.0457  0.2624
25583W        W40714   6.253   0.348  12.211 -0.1555 -0.3211 -0.0475
25584W        W40715   7.850   7.923  14.770  0.0984 -0.0244 -0.1962
25585W        W40716  14.790   7.901   4.824 -0.0826 -0.1855 -0.1073
25586W        W40717   1.571  13.897   6.015  0.3381  0.0530  0.0130
25587W        W40718   4.280   2.536  12.516  0.3221  0.2193  0.2384
25588W        W40719   6.393  10.351  14.194  0.2460  0.0116 -0.1524
25589W        W40720  16.925   6.242   1.963 -0.0149 -0.0753 -0.1601
25590W        W40721   4.587  14.339   2.715  0.0635  0.0603  0.2912
25591W        W40722  14.539  14.614   0.893  0.1227 -0.0029  0.2051
25592W        W40723  10.423   6.685  12.455 -0.2658  0.0282 -0.1892
25593W        W40724   1.588   4.576  14.794  0.2597 -0.0018  0.0902
25594W        W40725   2.103  17.010   3.011  0.0188  0.1539  0.0092
25595W        W40726  12.613   4.632   3.598 -0.0054 -0.1753  0.1533
25596W        W40727   3.611  10.538  16.489 -0.0572 -0.0661 -0.1793
25597W        W40728  16.746  12.247  12.545 -0.1581 -0.0926 -0.1045
25598W        W40729   7.623  10.125  12.590 -0.2056  0.4119 -0.0735
25599W        W40730   9.216  10.228  15.822  0.1013  0.2520  0.1811
25600W        W40731  10.230   5.001   5.778 -0.0438  0.0915 -0.0613
25601W        W40732  17.128   3.178   2.948 -0.0547  0.0905  0.1385
25602W        W40733   7.984   8.796   5.692 -0.0506  0.1169  0.0208
25603W        W40734   4.657   0.435  10.644  0.2545 -0.1559  0.0849
25604W        W40735   7.657  10.224   3.977 -0.1653 -0.0992  0.0422
25605W        W40736   8.465  16.688  12.248  0.1122  0.1965  0.0948
25606W        W40737  14.281  11.937   4.516  0.1045  0.0614 -0.1082
25607W        W40738  12.051   9.084  12.493 -0.1405 -0.0567 -0.0613
25608W        W40739  16.129  17.732  11.766 -0.0734 -0.3272  0.1429
25609W        W40740   1.203  12.807  15.867  0.0059  0.1063  0.0356
25610W        W40741  16.225   9.555   0.768 -0.2225 -0.3277  0.2531
25611W        W40742   3.841   9.991  16.129 -0.1057  0.1203 -0.2303
25612W        W40743   1.636   1.586  14.505 -0.2104  0.0997 -0.1809
25613W        W40744   4.829   3.105   5.570  0.0255  0.0584  0.1296
25614W        W40745  11.379  10.866   4.267  0.1237  0.0083  0.1882
25615W        W40746  15.880   2.811  16.583 -0.2274  0.1863  0.0619
25616W        W40747   3.706  14.075   5.295 -0.0567  0.2334  0.1151
25617W        W40748  17.039   3.069   4.595 -0.2044 -0.1635  0.1269
25618W        W40749   4.220  10.322   3.041 -0.4398  0.1409 -0.0443
25619W        W40750   9.702   7.386   4.812 -0.0140  0.0482  0.0523
25620W        W40751  14.430   9.426   6.307  0.2729  0.0350  0.1043
25621W        W40752  15.018   1.360   3.186 -0.1042  0.2695  0.0940
25622W        W40753   3.855  14.615   3.904  0.3008 -0.0023  0.2741
25623W        W40754  17.600  14.232  14.677  0.3704  0.0866 -0.2522
25624W        W40755   3.723  13.468   5.034 -0.0173  0.1000  0.3238
25625W        W40756  12.983   0.266  15.193  0.2663 -0.1745 -0.2547
25626W        W40757   6.084   2.117  13.259 -0.3133  0.2717  0.0744
25627W        W40758   8.008   9.057  11.204  0.1751  0.0590 -0.2966
25628W        W40759   4.830  13.984  13.596  0.1354  0.2253 -0.0933
25629W        W40760   9.329   1.638   3.905 -0.1768  0.0425 -0.2606
25630W        W40761  11.046   5.402  11.606  0.2686 -0.2378  0.4421
25631W        W40762  10.553   8.706  12.694 -0.2301 -0.2938 -0.4044
25632W        W40763  13.093   9.185  12.018  0.2172  0.0805  0.0509
25633W        W40764  14.785  15.681  15.857  0.3874  0.1433 -0.2523
25634W        W40765  10.179  12.829   2.404  0.1052 -0.0856 -0.0713
25635W        W40766  17.881   7.086   3.000 -0.2555  0.0750 -0.0077
25636W        W40767  13.189  10.340  15.697 -0.1115  0.0503 -0.0691
25637W        W40768  10.384   1.528   3.579 -0.0270  0.0424 -0.1987
25638W        W40769   2.176  10.417   0.877  0.3109  0.2865  0.1471
25639W        W40770  17.353   3.564  12.781  0.0761  0.1455  0.0977
25640W        W40771   4.391  13.366   1.658 -0.0506 -0.1379  0.3051
25641W        W40772  10.869  15.929   3.061 -0.1481 -0.3550 -0.0496
25642W        W40773   2.881   1.756   2.226  0.0050 -0.1872 -0.3428
25643W        W40774   3.814   3.807  16.614 -0.1127  0.0327 -0.4734
25644W        W40775  17.605   6.907   1.732  0.1518  0.2045 -0.3804
25645W        W40776   7.119  11.759  15.598 -0.0580 -0.1537 -0.0716
25646W        W40777   7.930   6.537  11.738 -0.1177  0.0303 -0.0948
25647W        W40778   1.891   1.898   1.683 -0.1970 -0.0323  0.0786
25648W        W40779  14.762  10.539   5.680  0.0421  0.1361 -0.2429
25649W        W40780  11.979   8.279   5.660 -0.0114  0.0901 -0.0710
25650W        W40781  14.654   8.274   5.157 -0.0406 -0.1512 -0.2325
25651W        W40782  17.191   5.929   0.697 -0.3116  0.0879 -0.1938
25652W        W40783   6.645   2.403  12.350  0.0007  0.1283  0.2892
25653W        W40784  12.388  12.001   3.366  0.0877  0.1649  0.0768
25654W        W40785   7.423  15.027   4.115  0.0523  0.7160  0.1830
25655W        W40786  14.837   7.812   3.398 -0.0363 -0.1618  0.1515
25656W        W40787   4.663   7.354   1.136 -0.0717 -0.0977  0.0321
25657W        W40788  12.780  12.298  13.778 -0.1909 -0.3677 -0.1479
25658W        W40789   5.405   4.824  13.205  0.1843  0.0894 -0.2084
25659W        W40790  13.043  10.804  14.040 -0.0018  0.0232 -0.0885
25660W        W40791   3.502  10.407  13.884 -0.0050 -0.0136 -0.2970
25661W        W40792  17.487   9.608   2.853  0.1662  0.0742  0.1581
25662W        W40793  14.716   6.538  13.600  0.1064 -0.1916 -0.0494
25663W        W40794  17.596   9.472   1.562  0.0511  0.4008  0.0678
25664W        W40795  15.060   2.243   1.994  0.0172 -0.0044 -0.4372
25665W        W40796   8.069  13.877  15.131 -0.2668 -0.0540  0.2486
25666W        W40797  13.887  17.158   5.303 -0.2265  0.0202  0.0245
25667W        W40798  16.138   5.074  14.393  0.1700 -0.1361 -0.1615
25668W        W40799   6.750   2.736  16.543  0.0972 -0.1900 -0.1749
25669W        W40800  13.570  17.094  14.621  0.1483 -0.4043  0.1648
25670W        W40801  15.071   9.538  12.831 -0.2294 -0.1092 -0.0696
25671W        W40802   7.019  12.485   2.608  0.3237 -0.1576 -0.1154
25672W        W40803  14.340   7.806   5.030  0.0068  0.1544 -0.0861
25673W        W40804  17.716   9.326   5.143  0.1616 -0.0518 -0.1508
25674W        W40805   9.946   0.242  15.244 -0.1126 -0.0264  0.0113
25675W        W40806  14.943   4.414  11.156  0.1892  0.0130  0.2998
25676W        W40807  15.699   2.436   3.448  0.2597  0.3055 -0.0024
25677W        W40808   9.847  15.509  13.416  0.2050  0.1505 -0.3140
25678W        W40809   8.166   4.870   5.155 -0.1125 -0.0515 -0.0274
25679W        W40810   0.141  17.501   4.558 -0.0428 -0.0115 -0.0602
25680W        W40811  16.574  15.780  12.142 -0.2173  0.1468 -0.0578
25681W        W40812  16.893   2.579  11.299 -0.0791 -0.1452 -0.2912
25682W        W40813  14.516   3.581   3.428  0.0455  0.0335 -0.0773
25683W        W40814   4.261   2.751   1.787  0.0917  0.0747 -0.0089
25684W        W40815  12.842   2.663   5.998  0.1355  0.0913 -0.3862
25685W        W40816  16.768  16.924   3.200  0.0463 -0.0332 -0.0011
25686W        W40817   6.270  16.889  16.451  0.2685 -0.0118 -0.4426
25687W        W40818   4.206  14.549   0.081 -0.1256  0.0794 -0.2224
25688W        W40819   4.980   5.454  11.450 -0.1560 -0.1660 -0.1710
25689W        W40820   1.218   9.923   3.283  0.2618  0.1323  0.1086
25690W        W40821   6.867   1.747  15.136  0.4194 -0.1162  0.1604
25691W        W40822  12.148  15.029   0.019  0.4645 -0.0831  0.0443
25692W        W40823   1.481   3.269   5.566  0.1611 -0.1180  0.1871
25693W        W40824  17.440   0.702  15.364 -0.4775 -0.2971  0.2940
25694W        W40825  11.524   7.857   2.958 -0.1732  0.1979 -0.1237
25695W        W40826   0.429   9.628  14.696  0.1487  0.2347  0.0182
25696W        W40827   9.858  17.763  13.985 -0.0702  0.2436  0.1274
25697W        W40828  13.884   0.947  15.490 -0.1949  0.3287 -0.3236
25698W        W40829  10.597  15.044  13.644 -0.0013 -0.0202 -0.0217
25699W        W40830  17.397  11.167  12.457  0.0183 -0.2385  0.0768
25700W        W40831  13.188   5.777   0.740  0.1590  0.1262 -0.1827
25701W        W40832  15.640   2.151  12.874 -0.0074  0.0260  0.3415
25702W        W40833   1.361   8.656  11.606 -0.1406  0.0389 -0.2395
25703W        W40834  12.413   2.108  15.836 -0.0505  0.0329  0.0872
25704W        W40835  10.542   5.377   4.465 -0.1100  0.1261 -0.0146
25705W        W40836  12.425   9.664  11.544  0.2056 -0.2172 -0.2195
25706W        W40837  10.570   9.048  15.091  0.0194  0.2842 -0.3118
25707W        W40838   1.465   9.611  14.244 -0.1674 -0.0767 -0.0789
25708W        W40839   5.413  14.621   0.528  0.0122  0.0248  0.0516
25709W        W40840  15.862   9.425   6.264  0.3149 -0.1324  0.1341
25710W        W40841  14.515   0.062  14.729 -0.0529 -0.1250 -0.2042
25711W        W40842   0.818   7.064   0.005 -0.4424  0.2828  0.0582
25712W        W40843   7.913   2.385   4.123  0.1017  0.1009  0.0216
25713W        W40844   1.287   9.579   2.401 -0.1853 -0.1535  0.1214
25714W        W40845   6.604  17.037  14.223 -0.0837 -0.1780 -0.0916
25715W        W40846  10.394   5.437   2.876 -0.1703  0.2017  0.0589
25716W        W40847  15.458   9.974  15.563  0.0258 -0.2631 -0.2560
25717W        W40848   0.597   1.622  14.447 -0.1672  0.1077 -0.1729
25718W        W40849   5.992   9.249   0.802  0.0254  0.1575  0.0914
25719W        W40850  13.518   0.456  11.549 -0.0055  0.2734  0.1015
25720W        W40851   6.969   7.386   1.726 -0.0092 -0.0159 -0.1398
25721W        W40852  15.867   9.208   0.510 -0.3031  0.2343 -0.1715
25722W        W40853  10.184  15.451  15.267  0.0513  0.1863 -0.0610
25723W        W40854  17.075  15.075  12.966  0.0975  0.3218  0.1074
25724W        W40855   5.043   5.562   1.499 -0.3182  0.0550 -0.0532
25725W        W40856  12.411  12.528   2.373  0.1056  0.2665  0.1813
25726W        W40857   2.896   1.335   5.752 -0.0797 -0.1801  0.2146
25727W        W40858   7.523  14.481  15.107 -0.1854 -0.3882 -0.2577
25728W        W40859   2.672   5.945  11.430  0.3124 -0.2229  0.0210
25729W        W40860   2.806   3.805  12.453 -0.0842  0.2285  0.0372
25730W        W40861   4.180   0.483  13.673  0.1202  0.0297  0.0994
25731W        W40862   3.573  10.314   0.687 -0.1441  0.2746 -0.3274
25732W        W40863  14.751   6.171   5.439  0.1982 -0.1418  0.2698
25733W        W40864   2.220   4.530   3.433  0.1676 -0.0048  0.0656
25734W        W40865   9.173  13.796   0.302  0.0336  0.0539 -0.0258
25735W        W40866  13.744   7.785  16.600  0.2613  0.0339  0.0370
25736W        W40867  16.495   1.569   5.073  0.3250  0.0612  0.0400
25737W        W40868   5.697   0.351   0.751  0.1413 -0.4813  0.1264
25738W        W40869   0.501  17.504  15.293  0.1435 -0.1289  0.1868
25739W        W40870   7.210  17.517  11.385  0.2860 -0.1965  0.2340
25740W        W40871   5.009  11.985  10.848  0.0133  0.1788  0.0771
25741W        W40872  14.977   8.262  15.969 -0.2507  0.0848  0.0346
25742W        W40873  17.843  14.413   0.581  0.1969  0.2439  0.1609
25743W        W40874  11.577   2.304   0.127 -0.0234 -0.1979  0.2490
25744W        W40875   3.833  15.927   1.236 -0.0248  0.0559  0.1337
25745W        W40876   3.506   2.746  11.494  0.0283 -0.1575  0.0060
25746W        W40877   9.554   6.959  16.508  0.1128  0.0008  0.1343
25747W        W40878   5.096  16.329   3.391  0.2895  0.0397 -0.0412
25748W        W40879  12.083   5.302   0.405  0.0198  0.3925 -0.1399
25749W        W40880   1.100   4.552  15.426 -0.1420  0.1029  0.2482
25750W        W40881   1.883  13.520   1.276  0.3123  0.1231  0.0504
25751W        W40882   7.234  11.179   4.914 -0.0695 -0.1467  0.1522
25752W        W40883  10.103  12.660   2.991 -0.0114  0.2096 -0.3809
25753W        W40884   5.287   0.073   2.933 -0.1542  0.0205  0.2010
25754W        W40885  16.822  15.619  15.703  0.1109 -0.0975  0.3133
25755W        W40886  15.979   4.764   3.765 -0.2021  0.2206  0.1703
25756W        W40887   5.494  13.016   1.542  0.1912  0.0324  0.3798
25757W        W40888   9.607   3.062   2.196 -0.1016 -0.0081  0.1419
25758W        W40889   6.762   1.717   0.845 -0.0709  0.1525 -0.0435
25759W        W40890   4.825   4.076   3.225 -0.1131 -0.1807 -0.3061
25760W        W40891   2.988   6.864  11.753  0.0983  0.1729 -0.0831
25761W        W40892  16.340   9.274   6.363  0.1231 -0.0234 -0.2469
25762W        W40893  16.031  10.725  12.021 -0.0949  0.1958 -0.4003
25763W        W40894  13.260   5.792  12.701  0.1372 -0.2920 -0.1894
25764W        W40895   1.282   7.984  12.083  0.1806  0.0134 -0.1450
25765W        W40896   1.914   1.331   5.483  0.1362  0.0068 -0.3174
25766W        W40897  11.582   7.946  14.598  0.2799 -0.1602 -0.1681
25767W        W40898   1.834   8.048  10.493  0.1920 -0.0374 -0.1155
25768W        W40899   9.580  13.251  15.079 -0.1098 -0.1655 -0.0254
25769W        W40900  13.786  14.471  15.756 -0.3214  0.2743  0.0242
25770W        W40901  17.222   1.421  12.385 -0.0624  0.5284 -0.1673
25771W        W40902   2.164  15.194   4.691 -0.1286  0.1175  0.3502
25772W        W40903  14.238  12.934   2.753 -0.1324 -0.0360  0.1462
25773W        W40904   2.909  16.522   2.629 -0.2412  0.1900 -0.0049
25774W        W40905   3.028  12.514   3.710 -0.1968 -0.2553  0.0161
25775W        W40906   1.537   5.485   5.289  0.1909 -0.2515  0.2880
25776W        W40907   8.003   2.055   3.647  0.2023 -0.3084 -0.0987
25777W        W40908  17.242   7.507   4.668  0.0243 -0.2372 -0.0144
25778W        W40909   3.776   1.480  11.132  0.0506 -0.0388 -0.2801
25779W        W40910   6.146  13.543  12.443 -0.0813 -0.0002 -0.2556
25780W        W40911  15.744  17.409  14.676  0.0379 -0.0119 -0.1054
25781W        W40912   2.948  12.882  14.371  0.0992 -0.1279  0.2342
25782W        W40913   0.221  13.398  16.556  0.0454  0.1108  0.0758
25783W        W40914   2.963   4.325  14.769  0.2510 -0.2653  0.1394
25784W        W40915  14.723   1.563  13.691  0.2273  0.0342  0.1129
25785W        W40916   0.611   3.184   1.482  0.3607 -0.0626  0.2095
25786W        W40917   2.284  15.931   0.713 -0.1493 -0.0334 -0.4097
25787W        W40918   7.032   9.399  12.715  0.0153  0.1780 -0.1685
25788W        W40919   4.011  16.693  16.269 -0.1327 -0.0320 -0.2634
25789W        W40920  15.491   5.248   5.139 -0.2585  0.1390 -0.0145
25790W        W40921   3.877   5.871  11.690 -0.1932  0.4542  0.4833
25791W        W40922   4.176  14.941  15.798  0.0717 -0.1876  0.0428
25792W        W40923  14.831   0.545  15.530 -0.2289  0.1494 -0.1104
25793W        W40924  16.548   7.762  16.282  0.0338  0.2045  0.0467
25794W        W40925   1.144  10.002  14.112  0.1031 -0.0180  0.1758
25795W        W40926   9.517   4.244  14.321  0.2047 -0.0486  0.2033
25796W        W40927   3.273  16.194  15.743 -0.2081  0.2921  0.0940
25797W        W40928   4.901   8.989  13.247 -0.0184  0.0342 -0.0280
25798W        W40929   2.990   6.181   5.966  0.1249  0.0133  0.1437
25799W        W40930  17.559   6.136   3.697 -0.1969  0.1776 -0.2330
25800W        W40931  10.882   4.098   0.296  0.0393 -0.1842  0.0386
25801W        W40932  12.140  16.432  14.245 -0.2492  0.0296 -0.1489
25802W        W40933   2.848   8.894  16.153  0.1556  0.2180 -0.0698
25803W        W40934   3.372   7.393  12.216 -0.0164  0.1784 -0.0053
25804W        W40935  11.441   3.228   3.009 -0.0852 -0.0373  0.0029
25805W        W40936  11.536   4.239   0.799  0.0374  0.1815  0.1477
25806W        W40937  16.974   7.020   0.650  0.2172  0.0042  0.0831
25807W        W40938  16.601  16.227  12.740  0.1515 -0.2305 -0.2875
25808W        W40939   4.589   4.121  16.383  0.0100 -0.3081  0.1517
25809W        W40940   9.890  17.471  16.131  0.2860  0.2810  0.0979
25810W        W40941   6.609  13.954   4.011  0.0137 -0.2897 -0.0228
25811W        W40942   9.396  16.209  12.380  0.1372  0.0162 -0.1255
25812W        W40943   9.086  15.759  14.008 -0.2984  0.2656  0.2930
25813W        W40944   8.167   6.984  11.674  0.1378  0.1021 -0.1169
25814W        W40945  12.178   3.578  14.489 -0.4540 -0.1579 -0.0498
25815W        W40946   7.723  12.454  14.182  0.0452 -0.2563  0.4897
25816W        W40947  12.390   1.881   4.053  0.2836 -0.0151  0.1459
25817W        W40948  10.832  17.481  16.711  0.0585 -0.0691 -0.1095
25818W        W40949  17.075  13.440   0.146 -0.1026  0.0675  0.0048
25819W        W40950  10.614  11.590  15.896 -0.2455  0.1105  0.1728
25820W        W40951   7.997   0.410   4.663  0.2142  0.1320 -0.1016
25821W        W40952   2.334   7.228   3.959  0.0688  0.2011 -0.2461
25822W        W40953   9.230   9.077   3.059  0.2642 -0.3102  0.0767
25823W        W40954   8.968   7.349  15.381 -0.2066  0.0906  0.0612
25824W        W40955  17.882  10.760   4.448 -0.0356 -0.0060  0.1123
25825W        W40956   6.567   9.550  12.825  0.0160 -0.1134 -0.0623
25826W        W40957   7.674   8.616  16.183 -0.1058  0.1542 -0.3550
25827W        W40958   2.896   5.868  13.784  0.2227 -0.0016 -0.0661
25828W        W40959  15.105   9.555   2.914  0.3079 -0.3241  0.0232
25829W        W40960   8.031  14.047   5.909  0.4314  0.0575 -0.0035
25830W        W40961   0.944   2.071   5.938  0.1557 -0.0499 -0.2094
25831W        W40962   3.833   7.290   1.620 -0.1895  0.3360  0.0006
25832W        W40963  11.010  13.683   4.137 -0.0925  0.0157 -0.1059
25833W        W40964   6.864  13.183   2.919 -0.1297  0.1561  0.1225
25834W        W40965  10.236  10.931  11.592  0.0309  0.1525  0.0020
25835W        W40966  16.453   9.215   4.150 -0.1677 -0.0084 -0.1832
25836W        W40967   9.007   9.314   5.218  0.0405 -0.0618  0.1685
25837W        W40968   0.206   1.537  12.843  0.0944  0.0120 -0.0014
25838W        W40969   3.334   4.194   0.983  0.1025  0.0332  0.1129
25839W        W40970   1.541  15.743  14.364  0.1202  0.0035  0.0379
25840W        W40971   6.352   7.854   6.127 -0.0011 -0.1073  0.0496
25841W        W40972   6.746   9.053   2.886  0.2704 -0.0278 -0.0620
25842W        W40973   2.736  17.684  13.644 -0.3754  0.4351  0.2596
25843W        W40974   3.386   1.066  13.504 -0.0694 -0.1064  0.2690
25844W        W40975  14.189   4.385   2.841 -0.0802 -0.0253 -0.0305
25845W        W40976   5.559  10.808   5.087  0.1112  0.1202  0.0085
25846W        W40977  10.486  12.335   3.221 -0.1378  0.1290 -0.3683
25847W        W40978   4.746   4.685  14.169  0.0835  0.1622  0.0126
25848W        W40979   1.793   8.359   0.310 -0.3427  0.1392  0.2710
25849W        W40980   9.620  10.955   1.913  0.2818  0.2776  0.0109
25850W        W40981   9.654  12.853   5.898 -0.1402 -0.2729  0.0077
25851W        W40982  14.431  15.692  13.328 -0.0039  0.1007  0.0825
25852W        W40983  13.851   8.203   3.393  0.1957  0.0538  0.0089
25853W        W40984   8.137  12.427  13.303  0.0081 -0.1963  0.0066
25854W        W40985  12.391  13.290  12.026  0.1860 -0.4016 -0.1477
25855W        W40986  12.870   1.952  13.818  0.0562 -0.0422 -0.0186
25856W        W40987  14.157   5.472  12.086 -0.1368 -0.3124 -0.2594
25857W        W40988   9.638  17.098  12.665 -0.1514 -0.1186  0.1846
25858W        W40989  16.488  10.052   5.355 -0.0667 -0.2767 -0.0651
25859W        W40990  13.988   5.388  10.800  0.0757 -0.1259  0.1711
25860W        W40991  15.104  16.730  15.586  0.0754  0.0331 -0.1418
25861W        W40992   1.060   5.639   5.547  0.0545 -0.4152 -0.1625
25862W        W40993   8.703   9.925   1.805  0.1716  0.0543  0.1138
25863W        W40994   7.719  16.198   1.076 -0.0907  0.0485 -0.1228
25864W        W40995   0.719  11.989  13.619  0.0517  0.2076  0.2265
25865W        W40996   2.784   2.691   5.453  0.1762  0.3000  0.1332
25866W        W40997  14.778   4.957  12.218  0.0132 -0.0341 -0.0335
25867W        W40998   7.431  12.207  12.696  0.3231  0.3729 -0.1285
25868W        W40999  11.823   3.581  10.276  0.1197  0.1561  0.3166
25869W        W41000   2.076   9.469  16.571 -0.1422 -0.0520  0.0451
25870W        W41001  16.280  14.926  12.421 -0.3104  0.2608  0.0711
25871W        W41002   3.772   3.382   5.795 -0.3474  0.0242 -0.1318
25872W        W41003   6.004   3.999   3.145  0.1465 -0.2540  0.0273
25873W        W41004   1.556   1.668   5.578 -0.0130 -0.0560 -0.3637
25874W        W41005   3.609  11.838   4.678  0.3692  0.0134 -0.1759
25875W        W41006   3.253   7.389   5.113 -0.2072  0.1488 -0.2241
25876W        W41007  17.372  17.263  14.840  0.2422 -0.2134 -0.2490
25877W        W41008   0.573  17.025   5.060 -0.2133  0.4372 -0.3684
25878W        W41009  14.110  10.128  13.521  0.0375  0.0474 -0.1641
25879W        W41010  12.260   8.785   3.914  0.1025 -0.0588  0.2795
25880W        W41011  17.061   7.529   2.839  0.0228 -0.3659  0.0896
25881W        W41012   5.226   6.804  12.309 -0.0581 -0.1298 -0.1285
25882W        W41013   6.973  11.329   4.321 -0.1320  0.1927  0.1148
25883W        W41014  15.389   5.731  12.455 -0.1644  0.4108 -0.1031
25884W        W41015  17.733   5.769   2.417 -0.0439 -0.2903 -0.1577
25885W        W41016   9.461  10.119  15.345 -0.0555 -0.0795  0.1189
25886W        W41017   9.216   6.988  13.518  0.1104 -0.2843 -0.0603
25887W        W41018  11.794   3.938  13.175 -0.0818  0.1000  0.0862
25888W        W41019   6.643   1.853   0.120  0.0023  0.3502 -0.3359
25889W        W41020   3.568  10.345  12.237  0.0529 -0.0140 -0.3228
25890W        W41021   8.998   8.195  14.127  0.0213  0.0495 -0.0086
25891W        W41022   7.535  11.357   5.237  0.1466 -0.0105  0.0763
25892W        W41023   0.188   8.691   1.444 -0.0014 -0.0797 -0.1497
25893W        W41024   5.587   4.976  12.714  0.1154  0.0235 -0.0221
25894W        W41025   5.593   3.083   1.106  0.3182  0.0963  0.0088
25895W        W41026   2.382  17.656   1.290  0.3950  0.2303  0.3036
25896W        W41027  12.695  17.185  14.047 -0.1189  0.1953  0.2768
25897W        W41028   2.887  14.357   1.598 -0.2214 -0.3601 -0.2391
25898W        W41029   8.117   5.880   1.170 -0.1192 -0.1153 -0.1066
25899W        W41030  12.184   9.604  13.287 -0.0052  0.0263 -0.0900
25900W        W41031   4.482   1.266  13.471  0.4507  0.5364  0.0623
25901W        W41032  12.148   1.285  11.914  0.1090  0.1189  0.1390
25902W        W41033   8.353   1.102  14.805  0.0802 -0.1310  0.0839
25903W        W41034   0.417   9.311  12.222  0.2839 -0.1065 -0.0484
25904W        W41035  11.860   7.376  11.565  0.2130  0.1513 -0.1622
25905W        W41036   2.952   7.583   2.895 -0.0085  0.1311 -0.1121
25906W        W41037   1.384   0.582  12.270 -0.1257  0.2311 -0.0392
25907W        W41038  17.102   3.170   1.269  0.0018  0.0504 -0.0290
25908W        W41039  17.046   5.124   3.368 -0.1611 -0.0733  0.1090
25909W        W41040  14.732   7.449   5.079  0.1179  0.0918  0.0871
25910W        W41041   0.464   7.358  14.155  0.2291 -0.0397 -0.2901
25911W        W41042   4.484   7.536  15.507  0.2761 -0.3977  0.1044
25912W        W41043   1.726   3.693  14.515  0.2530 -0.1019 -0.2359
25913W        W41044   2.595  10.342  12.400 -0.1024  0.1819 -0.1166
25914W        W41045   9.252   2.163  13.882 -0.3383  0.3663  0.0014
25915W        W41046  17.770   3.287  12.680  0.4103  0.1965  0.0210
25916W        W41047  15.207  16.821   4.817  0.0773 -0.0095 -0.3304
25917W        W41048   5.100   4.262  16.597 -0.0971 -0.1584 -0.0469
25918W        W41049   1.996   4.287  13.499  0.1754  0.2985 -0.1376
25919W        W41050   1.652   8.863  13.630  0.0234  0.1125 -0.1128
25920W        W41051   9.034   8.949  13.804 -0.0216 -0.0116  0.1959
25921W        W41052   5.206   1.707   1.741 -0.2114  0.1123 -0.2003
25922W        W41053  11.875  15.257  13.700 -0.1982 -0.0947 -0.1529
25923W        W41054   5.789   1.120   2.185  0.0234 -0.0558  0.1235
25924W        W41055  10.908   2.721  11.119 -0.2492 -0.0224  0.1354
25925W        W41056   2.969   4.199   1.363 -0.0139  0.0327 -0.2162
25926W        W41057  15.221  12.804   2.290 -0.0444  0.1091  0.2492
25927W        W41058   3.723   1.547  11.954  0.1935 -0.0988 -0.0545
25928W        W41059  17.102   0.897  14.134 -0.0553 -0.1188  0.0131
25929W        W41060   2.999  16.652   5.291  0.1782  0.3810 -0.2149
25930W        W41061   2.348   9.978   0.687 -0.1153  0.1386  0.1077
25931W        W41062  13.987  16.234   3.567 -0.4577  0.4261 -0.1596
25932W        W41063   6.456   0.799  16.605  0.0754 -0.0953  0.2395
25933W        W41064   4.702   6.828  16.760  0.1057 -0.1168 -0.2635
25934W        W41065   3.987   2.549   3.880 -0.0390 -0.1397 -0.2558
25935W        W41066  16.721  13.618  12.968  0.2165  0.2217  0.2063
25936W        W41067   2.994   0.068   2.792  0.1381 -0.1872 -0.2838
25937W        W41068   0.742  13.610  13.349  0.0399  0.3370  0.1664
25938W        W41069  15.420   0.018  12.077  0.2087  0.1206  0.0776
25939W        W41070   8.280   9.287   0.601 -0.2329 -0.2588  0.0367
25940W        W41071   3.036  16.993  16.372 -0.2004  0.0294 -0.1775
25941W        W41072   3.270   0.556   2.906 -0.0678  0.3568  0.1061
25942W        W41073   0.855  17.387  16.645  0.0038 -0.1988 -0.2593
25943W        W41074   9.891  13.226  16.096 -0.1617  0.1911  0.1419
25944W        W41075   7.451   0.888  13.709 -0.0918 -0.1805  0.3508
25945W        W41076   3.543   7.951   2.218 -0.0064  0.1161 -0.0986
25946W        W41077  15.998  16.025  14.538 -0.0953  0.1375 -0.2917
25947W        W41078   4.620  14.226  14.576 -0.0398  0.0591 -0.2154
25948W        W41079  10.687   7.485   5.728 -0.1316 -0.2690 -0.0801
25949W        W41080  14.697  10.806  13.104 -0.1838 -0.0209 -0.1521
25950W        W41081  13.650  16.072   1.914  0.4406 -0.3183 -0.0647
25951W        W41082   0.258   1.637   0.883 -0.1598  0.1279 -0.1883
25952W        W41083   2.073   5.459   4.584  0.3040 -0.1668  0.1601
25953W        W41084   6.333  11.317  15.871 -0.2372 -0.2633  0.0002
25954W        W41085   6.012   0.368   1.164 -0.0082 -0.3374  0.0768
25955W        W41086   4.373  16.035   4.961  0.0465  0.1023 -0.0043
25956W        W41087   0.431   2.078  16.450 -0.0946  0.0483 -0.0306
25957W        W41088  17.600  14.755   5.839 -0.1085 -0.2509 -0.0013
25958W        W41089   8.976  12.535   1.847 -0.1607 -0.0054 -0.0171
25959W        W41090   9.510   4.208  16.055  0.1556 -0.1861  0.0588
25960W        W41091   5.842   7.878  13.400 -0.0584  0.1789 -0.3690
25961W        W41092  15.362   4.023  15.809 -0.0892 -0.2857  0.1138
25962W        W41093   6.931   1.780   2.309 -0.2963  0.2121  0.0246
25963W        W41094   1.579  14.351   2.607 -0.0339  0.0920  0.2544
25964W        W41095   9.574  14.963   0.771  0.0007  0.0451 -0.2540
25965W        W41096   8.149   9.997   4.663 -0.0538 -0.0400  0.0638
25966W        W41097   7.290   3.620  14.956  0.2519  0.0644 -0.2003
25967W        W41098   4.202   3.015   0.447 -0.2320 -0.1267  0.0273
25968W        W41099   4.103   9.854   1.536  0.0062 -0.1679  0.1032
25969W        W41100  11.822  16.932  13.373  0.0566 -0.1318 -0.0849
25970W        W41101   7.145   6.522  15.819 -0.0483 -0.2111 -0.1167
25971W        W41102   0.401  15.954  12.683 -0.2767 -0.1444  0.0756
25972W        W41103   4.052  14.953   1.128  0.1118 -0.0235  0.0880
25973W        W41104   8.190   4.537   4.682 -0.0076  0.0192  0.2508
25974W        W41105   9.807  16.520   2.724  0.3791 -0.2217 -0.0281
25975W        W41106  12.519   8.435  12.311 -0.1582  0.0079 -0.2438
25976W        W41107   0.250  13.267  15.689  0.0416  0.1048  0.1287
25977W        W41108   5.467   6.399   1.115 -0.0870  0.0977 -0.0283
25978W        W41109   7.725   7.242   0.961 -0.0346  0.0111  0.1952
25979W        W41110  16.084   0.844   3.701  0.2002 -0.0295  0.0603
25980W        W41111  12.037  11.879   4.233  0.0546 -0.1660 -0.2369
25981W        W41112  15.262   8.357  16.381 -0.0570 -0.2517 -0.0940
25982W        W41113   1.878  14.845  13.527  0.0230  0.0697  0.1933
25983W        W41114  17.447   7.248  16.284 -0.1967 -0.3044 -0.2618
25984W        W41115  10.947  14.015  13.496  0.2055 -0.0707  0.3133
25985W        W41116  13.816  15.360   1.853  0.0629  0.1185  0.5112
25986W        W41117   0.011  12.755   1.108 -0.2785 -0.1177  0.2835
25987W        W41118   6.778   9.983   2.531  0.0437 -0.2590 -0.1419
25988W        W41119  12.885   7.825   2.237  0.1685  0.1537 -0.0169
25989W        W41120   3.365  10.248   1.376  0.2256 -0.1929  0.1837
25990W        W41121   2.194   4.079   3.680  0.2987  0.0395  0.0193
25991W        W41122   5.413   0.273   1.159  0.0892 -0.0919  0.1784
25992W        W41123   2.762   8.714  13.262 -0.0740 -0.4103 -0.0048
25993W        W41124   4.541  17.554  11.311 -0.1871  0.1203 -0.1399
25994W        W41125   7.501  10.494  13.638 -0.4300 -0.0210 -0.0616
25995W        W41126   1.195   3.845   1.082 -0.1044  0.1792  0.0696
25996W        W41127  12.780   8.617  15.351  0.1718 -0.1448 -0.0074
25997W        W41128  16.853  17.865  15.543  0.0001  0.4568  0.2264
25998W        W41129   8.570  11.150  15.058 -0.2451  0.3005  0.0809
25999W        W41130   0.685   4.410   4.218 -0.2635  0.2143 -0.0261
26000W        W41131  14.660   2.059  13.651  0.0710 -0.2015  0.0625
26001W        W41132   5.991   1.441  15.761 -0.4571  0.0453  0.1055
26002W        W41133   2.855   3.918   2.853 -0.0186  0.2185 -0.0376
26003W        W41134  11.502   3.692  14.485 -0.0935 -0.0857  0.1592
26004W        W41135   8.587   9.218   1.090 -0.0559 -0.2372  0.1702
26005W        W41136  11.166  14.971   0.409 -0.2572 -0.0753 -0.1026
26006W        W41137  12.593   6.863  15.185  0.0003 -0.1326 -0.3142
26007W        W41138   3.944   3.322   4.734 -0.1257  0.2505 -0.5374
26008W        W41139   9.019  16.221   5.490 -0.0289  0.7286  0.0983
26009W        W41140   3.766   0.738  13.688 -0.1227  0.0457  0.0282
26010W        W41141   0.474   9.986   2.031 -0.2918 -0.0628  0.2484
26011W        W41142   4.931  10.891  13.581 -0.2286  0.0274  0.0954
26012W        W41143  14.352  15.763   2.901 -0.2227  0.1107  0.0597
26013W        W41144   6.586   9.400   4.497 -0.0695  0.3373 -0.2096
26014W        W41145  16.873   5.402   3.815  0.1909 -0.1141  0.1493
26015W        W41146  13.014  17.605   0.934  0.0393  0.0504 -0.0104
26016W        W41147   4.371   5.960   0.125 -0.2233  0.0806  0.2093
26017W        W41148   3.315   2.419  14.226  0.1170 -0.0151  0.2323
26018W        W41149   3.977   9.772   5.445 -0.0844 -0.2752 -0.2521
26019W        W41150   3.604   7.536  16.432  0.0209  0.1001  0.0680
26020W        W41151  11.026   7.833   2.729  0.0345  0.2151  0.0958
26021W        W41152   0.364   7.661  13.119 -0.1333 -0.1087  0.1306
26022W        W41153   6.797  17.032   4.980  0.2271 -0.1718  0.4610
26023W        W41154  10.374  15.911  12.386  0.0073 -0.0608 -0.1159
26024W        W41155  17.325   6.715   4.163 -0.0086 -0.0941  0.0295
26025W        W41156  14.030   7.053  10.922 -0.0348  0.1712  0.0603
26026W        W41157  13.740  15.743   5.539  0.0862  0.0535 -0.1744
26027W        W41158   5.714   6.018   4.504  0.0455 -0.2353 -0.3654
26028W        W41159   4.194   6.075  12.894 -0.4219  0.1074  0.0407
26029W        W41160  17.285   9.941  14.729  0.3153  0.1129  0.2587
26030W        W41161   0.299  10.442   4.685 -0.3586 -0.2066 -0.0403
26031W        W41162  14.160  11.654   0.436 -0.0479 -0.2724  0.2679
26032W        W41163  13.132   9.100   3.906 -0.2144  0.2975 -0.1789
26033W        W41164   8.241   2.460   1.861 -0.3729 -0.1026  0.4333
26034W        W41165   4.175   4.113  11.708  0.2590 -0.3287  0.1168
26035W        W41166   8.762   7.774  14.399  0.0376 -0.1792  0.1083
26036W        W41167  12.337   9.997  14.370  0.0688  0.0226 -0.0432
26037W        W41168   8.187   9.093  15.593  0.2783 -0.1758 -0.1978
26038W        W41169   8.732  17.776   2.362 -0.1506 -0.2680 -0.0932
26039W        W41170   6.915   3.290  13.494 -0.1228  0.1666 -0.0194
26040W        W41171   5.761   7.053  13.880 -0.2086  0.1276 -0.0105
26041W        W41172  11.577  16.791   2.169  0.3779  0.1405 -0.0471
26042W        W41173   5.465   9.406   0.526 -0.1202  0.0527 -0.1648
26043W        W41174   0.134   3.593   2.078 -0.1622 -0.1073 -0.0003
26044W        W41175  13.672   8.427  12.739 -0.1701 -0.2166 -0.1501
26045W        W41176   8.920  12.037  16.552 -0.2347  0.0647 -0.1562
26046W        W41177   3.998  17.698  15.308 -0.0290  0.0235 -0.1280
26047W        W41178   6.973  12.783   5.227 -0.1917  0.2317 -0.0551
26048W        W41179   0.042   6.093  13.833  0.0871 -0.2393  0.2816
26049W        W41180  11.388   4.339   1.351 -0.2310  0.3205 -0.3348
26050W        W41181   6.066   2.641   4.261 -0.1099 -0.1400 -0.0299
26051W        W41182   3.427   2.238   1.605 -0.0812 -0.0328 -0.0508
26052W        W41183  11.258   1.501  14.537  0.0616 -0.1826 -0.1654
26053W        W41184  14.186   1.679  11.703 -0.2340  0.0377  0.1204
26054W        W41185   6.206  14.310   3.354  0.3210 -0.1338  0.0485
26055W        W41186   6.357  17.795   0.681  0.0309  0.0214 -0.3353
26056W        W41187   6.646   1.944  12.128  0.0102  0.0332  0.0054
26057W        W41188   0.685  13.098  13.444  0.0121 -0.2546  0.1982
26058W        W41189   8.288   8.710   4.702  0.4037 -0.0578 -0.0849
26059W        W41190   4.508  10.463  15.011  0.0264 -0.2036  0.0046
26060W        W41191  13.141   3.295  16.634  0.3655 -0.0744 -0.3053
26061W        W41192   2.870   0.382   3.310  0.0135 -0.1146 -0.1996
26062W        W41193  11.917   8.381   3.783 -0.2222  0.0190 -0.0968
26063W        W41194  11.755   0.266   3.375 -0.0310 -0.0699 -0.0934
26064W        W41195  13.974  14.487  13.582 -0.2977 -0.1584  0.2740
26065W        W41196  14.393   1.904   3.895 -0.0826  0.1558 -0.0909
26066W        W41197  17.328   3.569  15.599 -0.0936  0.1462 -0.1247
26067W        W41198  10.477   4.156  13.099  0.1603  0.0448  0.1418
26068W        W41199   3.425   0.030  10.988 -0.0902  0.0178  0.2353
26069W        W41200  12.982   7.827   2.727  0.3517  0.0563  0.2169
26070W        W41201   7.614   0.301  15.226 -0.0560  0.0574 -0.0465
26071W        W41202  15.134  11.543   3.339  0.4510  0.1631  0.0638
26072W        W41203  11.398   1.597   1.559  0.0848 -0.1499 -0.1520
26073W        W41204  12.832   0.652   4.612  0.1148 -0.0603 -0.0182
26074W        W41205  12.708   9.795   0.587  0.0366 -0.2076  0.0615
26075W        W41206   2.286   7.500   1.180 -0.1029 -0.0035 -0.1353
26076W        W41207  13.653  17.379  13.651  0.2828 -0.3398 -0.0394
26077W        W41208   9.212  11.450   0.600  0.3420  0.0323  0.2961
26078W        W41209  13.961   9.288  10.996 -0.1163  0.2128 -0.0822
26079W        W41210   2.706   8.415  14.512  0.1710 -0.2549 -0.0038
26080W        W41211   0.275  14.187   0.022 -0.0076 -0.0125 -0.1044
26081W        W41212   5.918   3.264   3.497  0.0171  0.1555  0.0159
26082W        W41213  15.925   5.811  15.352  0.0763 -0.0345 -0.0331
26083W        W41214  11.197   0.901  16.487  0.2493  0.1500  0.1954
26084W        W41215  13.718   0.780   0.671  0.1496 -0.2669 -0.0401
26085W        W41216  16.891  10.881  13.894  0.1994 -0.0492 -0.1388
26086W        W41217  12.037   6.034  13.773  0.1315  0.1772  0.0633
26087W        W41218  17.106   3.174  11.498 -0.2089 -0.0598  0.1768
26088W        W41219   7.271   2.903   2.158 -0.5013  0.0767 -0.0709
26089W        W41220   5.465  12.932   0.047  0.2102  0.3083 -0.0258
26090W        W41221   1.664  16.562   4.863 -0.1100 -0.1495  0.1282
26091W        W41222   8.590   4.653  13.562 -0.3312 -0.2057  0.1350
26092W        W41223  11.136  16.509   2.446 -0.2286  0.0660 -0.0201
26093W        W41224  11.557   4.029   4.265  0.0816  0.0891  0.2239
26094W        W41225   6.752   4.272  15.961 -0.0536  0.2554  0.0263
26095W        W41226  13.135  13.433  14.532 -0.0615  0.1335  0.0724
26096W        W41227  11.314   1.360  16.326 -0.2989  0.3010 -0.2054
26097W        W41228  11.240  11.762   4.514 -0.0653  0.0552 -0.1560
26098W        W41229   2.535   6.629   3.614 -0.5798  0.1396  0.1658
26099W        W41230   6.526  10.602  14.646  0.2059 -0.1875  0.1417
26100W        W41231   1.914   9.814   0.421 -0.0409  0.3655 -0.0381
26101W        W41232  14.304  16.049   1.247 -0.0003  0.0208  0.2142
26102W        W41233  15.784  10.022  12.681  0.2076  0.0764 -0.0496
26103W        W41234   9.419   7.856  15.414  0.2075 -0.0661 -0.0480
26104W        W41235  11.784  11.603  11.523  0.0562 -0.1739  0.1222
26105W        W41236   9.730  10.695  12.950  0.3405  0.1619 -0.1703
26106W        W41237  15.275  15.886  13.015  0.1027 -0.0703  0.0374
26107W        W41238   3.735   5.059   2.702  0.0632  0.0905  0.1647
26108W        W41239  10.499  11.482   5.313 -0.0687 -0.0922  0.0281
26109W        W41240   1.043   0.057  13.622 -0.0048  0.0678 -0.3574
26110W        W41241   3.054  15.088   5.901 -0.0942 -0.0448  0.0913
26111W        W41242   0.369  11.745   3.784  0.1933 -0.0249  0.2470
26112W        W41243   9.765   5.033  11.171 -0.2913 -0.2215 -0.1260
26113W        W41244   0.603  17.454   4.793  0.4838  0.0411 -0.1347
26114W        W41245   7.193   8.965   0.774 -0.0567 -0.0365  0.2758
26115W        W41246  12.758   2.000   4.429  0.3867 -0.3223 -0.2578
26116W        W41247   7.525   0.544   2.326 -0.1527 -0.0026 -0.1623
26117W        W41248  12.951   7.272   2.291 -0.0312 -0.0813  0.1847
26118W        W41249   7.757  10.122   0.662 -0.1807  0.0673  0.0623
26119W        W41250  14.201   3.464   1.800  0.0614  0.1112  0.3292
26120W        W41251  12.581   9.112   0.968  0.0579 -0.1167 -0.3055
26121W        W41252   3.335   9.984   2.866  0.0448 -0.0607  0.0979
26122W        W41253  12.273  14.692   5.450  0.3057  0.1762  0.1761
26123W        W41254   2.791   7.568   4.153  0.0948  0.0609  0.0086
26124W        W41255  15.535   2.266   3.940 -0.1813 -0.2290  0.1047
26125W        W41256  15.155   8.292  12.951  0.1174  0.0772 -0.1461
26126W        W41257  14.576  16.352  15.831  0.0223 -0.1847  0.1875
26127W        W41258  10.751   4.498  16.767  0.0139  0.1808 -0.0201
26128W        W41259   8.802  13.349  14.034  0.1054 -0.0439  0.1378
26129W        W41260  10.054   2.362   2.670 -0.1319 -0.0453  0.0945
26130W        W41261   8.011  13.638   3.011 -0.2233  0.0212  0.0449
26131W        W41262   2.076   0.411   4.427  0.0031 -0.3190  0.1043
26132W        W41263   6.140   8.553  16.288 -0.0986  0.4498  0.2155
26133W        W41264   6.793  14.169  14.551 -0.2701 -0.1327 -0.2607
26134W        W41265  11.443   1.758  16.606  0.3341 -0.0926 -0.0329
26135W        W41266  14.766  13.160   2.304  0.0845  0.1747  0.1110
26136W        W41267  10.709  15.763  16.039  0.1753 -0.3000 -0.1317
26137W        W41268  11.725  15.035  11.135  0.1125  0.1853  0.0170
26138W        W41269  10.674   0.552   1.869 -0.0009  0.4770  0.0821
26139W        W41270  16.678   7.741  12.423 -0.0156  0.1916  0.0395
26140W        W41271  13.163  15.010  14.690  0.0550 -0.0290  0.0338
26141W        W41272   3.634  17.516  13.314 -0.2376  0.0758 -0.0580
26142W        W41273  11.418   6.105  16.235  0.0358  0.4453 -0.0111
26143W        W41274   6.697  17.544  13.437 -0.0195 -0.0530  0.0203
26144W        W41275   6.200   5.054   4.251 -0.1229  0.0206  0.0583
26145W        W41276  17.410  14.859   2.416  0.1523  0.1953 -0.0817
26146W        W41277   7.760  17.727   4.110  0.1133  0.1974  0.0856
26147W        W41278  14.273   2.943  11.822  0.2904 -0.0211  0.0148
26148W        W41279  17.565  13.521  16.623 -0.1392 -0.2567  0.0702
26149W        W41280  12.502  15.078   3.552  0.1658 -0.1684 -0.2251
26150W        W41281   9.458   6.483   1.049  0.5626  0.2023 -0.0207
26151W        W41282   5.902  12.092  16.269  0.1253 -0.1024 -0.0208
26152W        W41283   9.054  16.269   3.569  0.1135  0.0223 -0.1160
26153W        W41284  17.738   0.421  15.701  0.0193 -0.1195 -0.2854
26154W        W41285  10.531   6.289  14.168 -0.2029  0.1337 -0.2193
26155W        W41286  17.403  11.111  13.813 -0.2205  0.3037 -0.0383
26156W        W41287   7.811   5.164  14.163  0.3577  0.0443 -0.0631
26157W        W41288   6.049  11.737   5.537 -0.0894  0.0396  0.0892
26158W        W41289   7.562  10.367   0.245 -0.3246  0.1350  0.1406
26159W        W41290   9.926  12.723  14.243  0.2473  0.1180 -0.3570
26160W        W41291  11.497  12.022   1.193 -0.0170 -0.1427  0.2233
26161W        W41292   3.879   8.642  12.591 -0.1171 -0.0891  0.3068
26162W        W41293   3.327  12.152  14.009  0.3236  0.0631  0.0488
26163W        W41294   3.808  15.519  12.161 -0.0300 -0.1545  0.0784
26164W        W41295  12.626  15.983   4.530  0.0577 -0.0055  0.2409
26165W        W41296   5.140  13.877   1.317 -0.1965 -0.1134  0.0077
26166W        W41297   9.261  13.620  14.283 -0.0514 -0.0653 -0.0011
26167W        W41298   6.762   4.216  13.559  0.1620 -0.1301 -0.1069
26168W        W41299   8.821   7.570  16.493  0.2349  0.1983 -0.1240
26169W        W41300  12.390  15.732  15.453 -0.1329 -0.1255 -0.0118
26170W        W41301  15.047  13.840  15.291 -0.2060  0.0741 -0.3752
26171W        W41302   9.108  15.017  11.501  0.1257 -0.0892  0.0435
26172W        W41303   0.328  16.350  12.400 -0.1809  0.1990  0.5849
26173W        W41304  13.539   7.701  12.817 -0.0037  0.0456  0.1514
26174W        W41305  16.502  14.300   0.641  0.0533  0.1751  0.0647
26175W        W41306   7.374   3.879   5.709  0.2471 -0.2172  0.0472
26176W        W41307   2.807   2.198   2.420 -0.1982 -0.2375 -0.0715
26177W        W41308  14.263  15.194   4.317 -0.2596 -0.1007 -0.1314
26178W        W41309  14.034  13.358  12.440  0.0912 -0.0066  0.0135
26179W        W41310   8.246   6.408   2.791 -0.0483 -0.0814 -0.0990
26180W        W41311   8.279  10.424  12.531 -0.3472 -0.2272  0.0693
26181W        W41312   0.621  10.595   3.036 -0.0913 -0.0537  0.2033
26182W        W41313   5.258  14.842  14.652 -0.2211 -0.0908 -0.4229
26183W        W41314   5.137   7.412  11.661 -0.0469 -0.1304  0.0860
26184W        W41315  11.625  16.279   2.355 -0.0522  0.0353  0.1747
26185W        W41316   2.854   9.317   2.492 -0.1696  0.1033  0.1386
26186W        W41317   5.963  15.181  11.915 -0.1873  0.2412 -0.1475
26187W        W41318  15.381   7.307  15.508 -0.2576 -0.2706  0.0233
26188W        W41319   3.290   5.273  14.275 -0.1272  0.1270 -0.0438
26189W        W41320   2.647  14.574  12.816  0.2674 -0.0749 -0.0432
26190W        W41321   6.969  11.731  15.147  0.3618  0.0169  0.0055
26191W        W41322   1.163  14.987   0.652  0.2568  0.1381 -0.1845
26192W        W41323   2.890  13.470  11.682  0.2955 -0.2068 -0.3886
26193W        W41324  16.796   0.583   5.397 -0.2671  0.1011  0.1022
26194W        W41325  16.443   6.092  13.868  0.0150  0.1269 -0.0612
26195W        W41326   0.060   2.344   3.434  0.0628  0.0123 -0.1254
26196W        W41327   0.591   0.503   0.368  0.2321  0.0764 -0.0789
26197W        W41328   0.230   2.598   5.516  0.3082  0.1159 -0.1461
26198W        W41329   7.882  16.825   5.301 -0.0220 -0.0656 -0.2055
26199W        W41330   6.870  15.873   3.205  0.3638  0.2036  0.1232
26200W        W41331   5.078   1.985  11.964  0.0859 -0.2499  0.1752
26201W        W41332   2.032   8.417  13.925  0.0288  0.3084 -0.1431
26202W        W41333  14.315  13.641   5.989 -0.1138  0.2621  0.0277
26203W        W41334   1.715   5.318   3.719  0.0493  0.2769 -0.0752
26204W        W41335   2.624   2.311   1.966  0.0328 -0.0594 -0.1487
26205W        W41336   9.966  15.632   2.893  0.2805  0.0611  0.2757
26206W        W41337   1.095   2.953  14.877  0.0199 -0.1992 -0.2066
26207W        W41338   8.251   7.607  14.147 -0.2423 -0.0827  0.4725
26208W        W41339  14.574   8.249  15.662 -0.0045 -0.0930 -0.4720
26209W        W41340   5.287  10.032  13.874 -0.1004  0.1728 -0.1101
26210W        W41341   5.239   3.111   3.595 -0.0510  0.1677  0.1501
26211W        W41342   6.617   6.792  15.162 -0.1082 -0.2705 -0.1625
26212W        W41343   2.680   6.732   5.394  0.1289 -0.0888  0.0780
26213W        W41344   7.221   2.922   2.756  0.0725  0.1002  0.1391
26214W        W41345  17.629   2.692   1.849  0.2113  0.0612 -0.2741
26215W        W41346   8.946   0.900   3.269 -0.1322 -0.0023 -0.0948
26216W        W41347   2.266   1.845   4.818  0.0474  0.1262  0.2414
26217W        W41348  17.857   4.168  13.581 -0.0751 -0.1409 -0.2071
26218W        W41349   2.514  13.435  13.630  0.0952 -0.3025 -0.2092
26219W        W41350  13.794   7.313  15.971 -0.1052 -0.2300 -0.1666
26220W        W41351  15.453   4.422  11.015  0.2458 -0.2148 -0.0057
26221W        W41352   8.996  11.647   2.783  0.1181 -0.1657 -0.1106
26222W        W41353  11.049  12.285  12.963 -0.1005 -0.0910 -0.2412
26223W        W41354  15.142   7.161   4.868  0.2344 -0.1395  0.1246
26224W        W41355   1.084   3.820  12.542  0.1549  0.0957 -0.1797
26225W        W41356   1.042   9.048  12.242 -0.0685  0.1718 -0.1256
26226W        W41357   3.613   4.156  14.230  0.0406  0.4265  0.0341
26227W        W41358  15.584  11.576   2.264 -0.0422 -0.0845  0.1170
26228W        W41359   5.842   6.294  12.133 -0.1128 -0.0926 -0.2117
26229W        W41360   5.778   1.372  13.162 -0.2750  0.2196 -0.0417
26230W        W41361   8.694  16.321  15.686 -0.1591 -0.1420 -0.0095
26231W        W41362   5.341   2.221  14.673 -0.0390  0.0301 -0.1889
26232W        W41363  10.199   1.302  15.810 -0.0843 -0.2483 -0.2549
26233W        W41364   3.747  13.259  12.772  0.0592  0.3720  0.1845
26234W        W41365   0.559  13.946   1.501  0.3263 -0.0347  0.1062
26235W        W41366   3.921   5.677   0.023  0.0264  0.2835 -0.0630
26236W        W41367   1.422  13.746  12.998 -0.2305 -0.0178  0.1065
26237W        W41368   2.035   0.864   3.584 -0.1219  0.0337  0.0768
26238W        W41369   5.485  14.885   6.707  0.0347  0.0713 -0.1900
26239W        W41370   5.023  17.381  12.392  0.1762 -0.0613 -0.2438
26240W        W41371   4.504  16.793   4.877  0.2508 -0.1488 -0.1570
26241W        W41372  12.298  14.131  12.662  0.2582  0.3158 -0.1052
26242W        W41373   2.526  16.924   2.754 -0.1991  0.0768  0.0162
26243W        W41374   8.608   3.014   2.059  0.0419  0.1120  0.1989
26244W        W41375   5.130  10.618   0.107  0.0041  0.2821 -0.1548
26245W        W41376   9.216  16.478  16.721 -0.0906  0.2637  0.0381
26246W        W41377  15.306   6.124  16.529 -0.1713 -0.1909 -0.0915
26247W        W41378  15.624   0.485  13.003  0.0930  0.2155 -0.0866
26248W        W41379   5.169   8.273   5.104  0.3691 -0.1071 -0.1797
26249W        W41380   2.138   2.949  11.992  0.1378 -0.1795 -0.1727
26250W        W41381   6.863   4.154   1.205 -0.1032 -0.0197  0.0268
26251W        W41382   3.471   6.491   4.938 -0.3196  0.0347 -0.1845
26252W        W41383   9.708   9.123  14.632  0.1297  0.2415  0.0523
26253W        W41384  10.486   9.139   5.886  0.0138  0.0089  0.0774
26254W        W41385  17.743  10.736  16.666  0.4427  0.0248  0.0571
26255W        W41386   7.045  16.642  13.559 -0.2866  0.0085 -0.2391
26256W        W41387   6.905  12.781   3.456  0.0941 -0.1047 -0.2928
26257W        W41388  17.714   5.255  15.862  0.1347 -0.2293 -0.0241
26258W        W41389   2.494   6.963   2.649 -0.1508  0.0895 -0.0339
26259W        W41390  11.660  14.719   3.799  0.1471  0.0173  0.2744
26260W        W41391  14.139   5.768   4.098  0.0374 -0.1183  0.3033
26261W        W41392  16.587  16.766  12.674 -0.5170 -0.1806 -0.0436
26262W        W41393  12.893  11.053   2.628  0.3632 -0.1041 -0.1577
26263W        W41394  11.082  15.341  13.705 -0.0211 -0.0715 -0.1106
26264W        W41395   8.639  16.174   3.222 -0.1446  0.1746 -0.0405
26265W        W41396   8.683  12.998   2.759  0.0330  0.2298 -0.1574
26266W        W41397  14.722   9.720  15.458 -0.1100 -0.1210  0.2362
26267W        W41398   1.075  14.739   3.792 -0.0055  0.0407  0.1273
26268W        W41399   8.193  16.258  15.831  0.0709 -0.1031  0.1130
26269W        W41400  10.231  16.165   2.750 -0.2841 -0.1943  0.2731
26270W        W41401  15.203  14.697  15.048 -0.3752 -0.1078 -0.0358
26271W        W41402  15.946   0.747  15.520 -0.2099  0.0332 -0.0530
26272W        W41403   9.621  17.434   0.212 -0.0000  0.0137 -0.1355
26273W        W41404  13.366  17.261  12.969  0.0205 -0.0095  0.1021
26274W        W41405   8.401  15.090  13.703 -0.2698  0.5384 -0.2808
26275W        W41406  10.615   3.686   4.668  0.1340 -0.1038 -0.0238
26276W        W41407  17.458   8.053  13.490  0.1545  0.6055  0.1825
26277W        W41408  12.519   1.094  13.775 -0.0178  0.0230 -0.1411
26278W        W41409  17.626  13.572  14.026 -0.3817 -0.3134  0.1777
26279W        W41410   6.839   4.961  15.275 -0.0360  0.0520 -0.2087
26280W        W41411  11.340   2.399  10.926 -0.0921  0.0604 -0.0029
26281W        W41412  14.918   4.310   2.477  0.0575  0.1553 -0.2449
26282W        W41413   2.813  17.306  13.228  0.0127 -0.4144 -0.0635
26283W        W41414   8.545  12.372  14.192 -0.0734  0.2307 -0.0466
26284W        W41415  12.315   7.839  12.850 -0.1007 -0.1090 -0.1798
26285W        W41416   5.581   0.368   5.256 -0.0057 -0.0639 -0.3467
26286W        W41417   0.313  15.990   4.920 -0.2031 -0.4699 -0.1579
26287W        W41418   0.854   8.828   4.431 -0.1957 -0.1016  0.4246
26288W        W41419   0.544  15.967   0.929 -0.1752  0.0274 -0.0509
26289W        W41420   9.792   4.239  11.011  0.1940 -0.1112  0.0405
26290W        W41421   0.532  11.002   5.536 -0.0496 -0.0300 -0.1065
26291W        W41422  12.211   5.066   5.339 -0.0620  0.2520  0.0199
26292W        W41423  17.023  12.507   4.750 -0.2362  0.3668 -0.2594
26293W        W41424  12.310  11.619   0.360 -0.0200 -0.2143 -0.0902
26294W        W41425   1.782   0.427  15.755 -0.4184  0.1406 -0.6875
26295W        W41426  14.637   3.744   1.602  0.0147  0.1816  0.0138
26296W        W41427  15.510   4.965   5.578 -0.0676  0.1910  0.1448
26297W        W41428   2.361  17.174   1.836  0.1848  0.1312  0.1211
26298W        W41429  16.138  15.021  16.607  0.0320 -0.2354 -0.3664
26299W        W41430   0.301   5.279  14.290  0.1340  0.1528 -0.1703
26300W        W41431  10.102   4.660   3.276  0.0118  0.2342 -0.0454
26301W        W41432   9.063   6.650  16.394 -0.0003  0.0467 -0.2859
26302W        W41433   7.510  12.059   4.477 -0.0755  0.1122  0.0674
26303W        W41434  10.377  14.789  14.719 -0.0700  0.3418  0.0406
26304W        W41435   1.061   1.402   5.672  0.0029 -0.2927  0.0988
26305W        W41436   9.112  17.276   4.649  0.2423 -0.2050 -0.1364
26306W        W41437  17.873   2.259  16.290  0.0135  0.3380 -0.1401
26307W        W41438  16.656   7.192   1.038  0.0752 -0.2343  0.0127
26308W        W41439   2.184   3.839  14.431  0.1130 -0.0671  0.0661
26309W        W41440   3.132  15.430  15.709 -0.2491 -0.1385  0.0140
26310W        W41441   6.306  10.086   0.453 -0.0889 -0.0946 -0.0450
26311W        W41442  16.989   2.311  12.701 -0.3401  0.1398 -0.0158
26312W        W41443  13.842  12.624  13.749  0.1127 -0.0356  0.1692
26313W        W41444  13.377  13.960   6.150  0.2468 -0.2492  0.0608
26314W        W41445  10.788  14.607   3.271  0.0078 -0.0655  0.1841
26315W        W41446   1.586   1.688  15.033 -0.0204  0.1246 -0.0746
26316W        W41447   2.866   1.919   1.766 -0.1745 -0.0216  0.0401
26317W        W41448   1.526  12.884   1.972 -0.0718  0.0393  0.0804
26318W        W41449   6.066   3.168  11.976  0.1686  0.3971 -0.0625
26319W        W41450  14.075  10.995  11.716  0.4633  0.5912 -0.0559
26320W        W41451   7.623  15.469   0.734 -0.0176  0.0658 -0.1024
26321W        W41452   3.279   4.190   4.594 -0.3110  0.0772  0.1970
26322W        W41453   6.901   8.005  14.510 -0.2906 -0.0286  0.3225
26323W        W41454   0.410  17.480  15.967 -0.0993  0.0167  0.2444
26324W        W41455  15.711   5.105   3.436 -0.0507 -0.1666 -0.0520
26325W        W41456  14.267   8.692   2.510 -0.1606  0.1238 -0.3016
26326W        W41457  17.062   4.563  13.793 -0.3194  0.1304  0.1129
26327W        W41458   9.949  14.071   1.859  0.3749  0.2468 -0.1010
26328W        W41459   9.450  15.131   5.969 -0.1907  0.1690  0.1270
26329W        W41460  14.093  12.825   3.805  0.1860 -0.1967  0.0143
26330W        W41461  15.374   0.846  15.583  0.1633 -0.2513 -0.0275
26331W        W41462  10.508   7.929   5.500 -0.2018 -0.0875 -0.0034
26332W        W41463  15.379  11.758  15.211 -0.1241  0.1395 -0.1761
26333W        W41464  15.169   0.664   5.774 -0.0829  0.0677  0.4760
26334W        W41465   7.241   6.964  16.568  0.1079 -0.0953  0.0435
26335W        W41466   6.024   8.256  14.935  0.1041  0.0933  0.0298
26336W        W41467  13.485  12.692  15.457 -0.1890 -0.1650  0.2645
26337W        W41468  11.957  11.208   3.032 -0.1779 -0.0018 -0.0962
26338W        W41469   2.265  13.235   1.243  0.0699  0.1965  0.1155
26339W        W41470  15.426  12.163  12.787 -0.1472  0.0035 -0.2291
26340W        W41471  16.816   6.981  12.023  0.1068  0.1237  0.0058
26341W        W41472  17.671  10.606   1.739 -0.0950  0.2329  0.1669
26342W        W41473   2.454  12.745  12.857 -0.0780  0.2735  0.2007
26343W        W41474   2.016   3.833   4.448 -0.1896 -0.0781 -0.1372
26344W        W41475   2.595  13.792  14.404  0.0446  0.0913  0.2720
26345W        W41476   9.607   8.814   2.901  0.0992  0.1316  0.1585
26346W        W41477  17.633  16.454   3.328 -0.1977  0.2938  0.2003
26347W        W41478   7.050   0.801   5.450 -0.1823  0.1986 -0.1648
26348W        W41479   8.505   1.351   5.431  0.1773  0.0603 -0.1294
26349W        W41480   6.048   7.230   1.734 -0.1890  0.2108  0.1212
26350W        W41481  11.038  10.298   4.753  0.0656  0.0696  0.2144
26351W        W41482   1.252  16.783  12.649 -0.2672  0.2373 -0.1151
26352W        W41483  15.111  10.896  11.954 -0.2234  0.3131 -0.1082
26353W        W41484  11.934   7.039  15.717  0.0605  0.1760 -0.2009
26354W        W41485   8.326   4.350   4.217 -0.1277  0.0672 -0.1269
26355W        W41486  10.880   1.847   4.800 -0.1319  0.1230 -0.2358
26356W        W41487   5.259  10.474   3.022 -0.0611 -0.0390  0.0417
26357W        W41488  15.258  17.412  12.155 -0.1919 -0.2084 -0.0556
26358W        W41489   4.733   2.568  13.719  0.1553 -0.0976 -0.2091
26359W        W41490   6.487   3.337  13.818 -0.0798  0.0240  0.1915
26360W        W41491  13.867  14.282   2.089 -0.3338  0.1638 -0.0978
26361W        W41492   0.472  13.167   2.062  0.0369  0.1668 -0.3145
26362W        W41493   6.000  14.985   4.786  0.0254  0.0841 -0.1536
26363W        W41494  10.838   8.669   3.943  0.1935 -0.1596  0.2521
26364W        W41495  10.258  17.072  14.575  0.0836 -0.0638 -0.1963
26365W        W41496  13.469  17.382   1.261  0.0992  0.0269 -0.0910
26366W        W41497   8.262   7.056   0.132 -0.0214 -0.0233  0.0377
26367W        W41498   9.341  14.727  13.355  0.0994 -0.0828  0.1191
26368W        W41499  14.374  16.817  10.825 -0.1597  0.2326  0.2415
26369W        W41500   9.764   7.199   3.900 -0.1082  0.2367  0.0855
26370W        W41501   8.994   5.179   3.482  0.0843 -0.2737  0.1285
26371W        W41502  12.929  11.637   1.544 -0.0123  0.0593 -0.1264
26372W        W41503  11.602   3.604   0.673 -0.0897  0.0600  0.2627
26373W        W41504  10.281  14.287   2.153  0.1619  0.0355  0.0832
26374W        W41505   8.432  13.620  12.074  0.2727  0.0288 -0.0615
26375W        W41506  11.666  14.192  13.941  0.0151  0.0973  0.0473
26376W        W41507  16.116   1.139   5.118 -0.0367  0.1555 -0.0237
26377W        W41508  17.511  13.091  13.118  0.2185 -0.0544  0.3343
26378W        W41509   8.561   6.977  14.941  0.2079 -0.0846  0.2962
26379W        W41510  13.051   8.963  10.258  0.1513 -0.2148 -0.1556
26380W        W41511   3.884  15.096   4.100  0.1254 -0.0916 -0.2458
26381W        W41512   3.282  15.234   1.706 -0.0131 -0.1855 -0.0591
26382W        W41513   7.774  16.958  13.973 -0.1767  0.1287 -0.0192
26383W        W41514   9.745  15.260   2.080  0.1055  0.2418 -0.0071
26384W        W41515  13.469   0.863  13.031  0.1052 -0.2503 -0.2124
26385W        W41516   9.672   6.967  15.585 -0.1021 -0.0721  0.1342
26386W        W41517   2.725   4.470  11.924  0.1175  0.2907 -0.0974
26387W        W41518  13.773   7.111   6.136 -0.0964  0.0459  0.0224
26388W        W41519   4.500  11.158  11.677  0.3013  0.0894  0.4490
26389W        W41520   7.254   0.828   1.877 -0.0132 -0.0589 -0.0034
26390W        W41521   1.246  17.067   5.533 -0.2408 -0.1071 -0.0260
26391W        W41522  13.864   8.061  13.997 -0.3739 -0.3445 -0.0694
26392W        W41523   4.121   6.921  15.924  0.4630  0.1331  0.0075
26393W        W41524  17.724  12.530  15.334  0.2728 -0.1785  0.1210
26394W        W41525  13.466   9.816   1.842  0.1237 -0.3975  0.0570
26395W        W41526   2.774  16.655  12.345 -0.0909  0.0398 -0.1322
26396W        W41527   6.510   5.979   2.917 -0.0358 -0.0386 -0.1662
26397W        W41528  13.407   8.033  13.734 -0.1011 -0.1518 -0.0986
26398W        W41529   3.004  14.196  15.738 -0.0186 -0.1136  0.1262
26399W        W41530   5.329  11.786  11.354 -0.0143  0.0360 -0.1049
26400W        W41531   3.863  12.784  14.336 -0.2291  0.1016  0.2982
26401W        W41532   0.585   1.438   0.560  0.2993  0.3825  0.0965
26402W        W41533   1.719  17.284   5.932 -0.0353 -0.1903 -0.0557
26403W        W41534   5.853  15.948  13.621 -0.1536  0.0136  0.1432
26404W        W41535   0.791   5.372  12.191  0.1121  0.2261 -0.0195
26405W        W41536   4.716   1.566  15.026  0.3686 -0.1110 -0.2141
26406W        W41537   6.921   8.934  15.059  0.1215 -0.2439 -0.2464
26407W        W41538  11.936   7.415  16.600  0.2024 -0.1226 -0.4390
26408W        W41539   5.870   0.467   4.809  0.1416  0.0789 -0.0080
26409W        W41540   5.116  16.691  15.895  0.2332 -0.3283 -0.1237
26410W        W41541   3.477  12.231  12.155 -0.3488 -0.0381 -0.1822
26411W        W41542   7.407   1.644   2.971 -0.2968  0.0311  0.3078
26412W        W41543   6.987  11.994  11.735  0.2250 -0.4310 -0.1319
26413W        W41544   3.380  15.121   6.323 -0.2200 -0.1150  0.2582
26414W        W41545   8.546  13.061  14.780  0.1805  0.1122  0.1272
26415W        W41546  16.176   3.597   4.728  0.0074 -0.0955 -0.0310
26416W        W41547   0.897   0.553  15.218  0.0574  0.4096 -0.0104
26417W        W41548   0.010   8.275   1.727 -0.1167 -0.0906  0.1271
26418W        W41549   0.384   1.017  12.711  0.3417  0.2336 -0.0400
26419W        W41550   3.214  15.743  16.078 -0.1833  0.1721  0.1320
26420W        W41551   7.415  10.834  11.275 -0.1372 -0.0222 -0.1308
26421W        W41552  17.014  17.268   0.040 -0.2479 -0.0719 -0.1341
26422W        W41553   5.242   0.802  10.289 -0.3427 -0.1413 -0.0245
26423W        W41554  17.341   6.003  15.308 -0.0645  0.3383 -0.0149
26424W        W41555   6.086  10.473  16.379  0.0622  0.0156 -0.1602
26425W        W41556  11.379   6.491  14.407 -0.1037  0.0539 -0.1331
26426W        W41557   5.883   7.589  15.569 -0.4339  0.1905 -0.1224
26427W        W41558   8.253   1.605  14.702  0.0855  0.1254  0.5089
26428W        W41559   4.371  15.223   1.576  0.0402  0.1586  0.0394
26429W        W41560  12.191   0.332  14.388  0.0054  0.1059 -0.0277
26430W        W41561  14.476  14.218   0.392 -0.1615  0.2873 -0.3230
26431W        W41562  14.009   2.911   0.256  0.0199 -0.2399  0.1376
26432W        W41563   0.111   4.694  12.908  0.1100 -0.3740  0.2135
26433W        W41564  17.746  10.094   4.834 -0.1206 -0.1676 -0.2146
26434W        W41565   7.453   8.174   1.109  0.0363  0.2379 -0.2261
26435W        W41566  11.561   5.137   2.747 -0.2130 -0.2838  0.0382
26436W        W41567   8.381   8.999  14.423 -0.2461 -0.1914  0.1559
26437W        W41568   2.301  15.008   1.078 -0.3149  0.3638 -0.2393
26438W        W41569   6.051   1.770   1.156  0.2159  0.0890  0.0318
26439W        W41570   4.190   5.751   5.137  0.0810  0.2040  0.4063
26440W        W41571   2.608  11.236   2.635 -0.1586  0.1384 -0.2098
26441W        W41572   5.274   3.044  15.876  0.1431  0.3073  0.0592
26442W        W41573  16.916  10.121  12.845 -0.0859  0.0380 -0.0140
26443W        W41574   5.852  11.848  16.723 -0.1386 -0.2834  0.0937
26444W        W41575   0.069   1.741  16.402 -0.0335 -0.0522  0.0783
26445W        W41576   2.127  10.765   5.267 -0.1513 -0.1124 -0.1689
26446W        W41577  12.936  13.352  12.848  0.2548 -0.2631  0.0315
26447W        W41578  14.163   4.840   2.657  0.0060  0.1978 -0.1747
26448W        W41579   0.434  11.645  16.208  0.0472 -0.0404  0.0340
26449W        W41580   4.920  11.776   4.605  0.2287  0.2946  0.0628
26450W        W41581   4.513  14.636  14.153  0.1010  0.0777  0.3092
26451W        W41582   1.705   7.089   5.372  0.2277 -0.1768  0.1724
26452W        W41583  12.059  12.244   3.885 -0.1066 -0.1388  0.3502
26453W        W41584   5.272  17.863   0.708 -0.1766  0.2384 -0.0782
26454W        W41585  10.125   6.818  13.625  0.1485  0.0298 -0.0823
26455W        W41586  11.792   0.606   2.597 -0.1885 -0.3014 -0.2653
26456W        W41587   0.629   5.354  16.169 -0.1909 -0.1028  0.0588
26457W        W41588  14.493  15.052  12.039  0.1149  0.1744  0.0238
26458W        W41589   8.084  12.107  14.170 -0.0716 -0.2447  0.0994
26459W        W41590  11.778  15.102   1.908 -0.1873 -0.0611  0.3546
26460W        W41591  13.058   0.897   2.070 -0.0894 -0.0987  0.2537
26461W        W41592  10.237  12.087   3.581 -0.5309  0.1563 -0.1331
26462W        W41593  11.799  15.931  16.776 -0.3890 -0.1915 -0.0735
26463W        W41594  10.470   1.300   1.435  0.1365 -0.1105  0.2349
26464W        W41595  13.730   6.585   3.803 -0.2419 -0.1101 -0.1014
26465W        W41596   4.124  14.698  11.702 -0.2569  0.0009  0.0876
26466W        W41597   3.985  14.747   5.838 -0.1084 -0.0379 -0.0813
26467W        W41598   1.975   4.353   1.213  0.1540  0.2297 -0.2268
26468W        W41599  13.841   0.477  11.942 -0.1674  0.0069  0.0556
26469W        W41600   3.210   2.978  15.564 -0.1471 -0.0949  0.2491
26470W        W41601  12.013   7.393   6.443 -0.2356  0.1012 -0.2481
26471W        W41602  11.829  13.098  12.165 -0.0339 -0.1389  0.2818
26472W        W41603  16.320  16.452  14.808  0.3424 -0.1449  0.1391
26473W        W41604   1.673   8.095   2.149  0.0190  0.0803 -0.1553
26474W        W41605   1.700  17.390   5.346 -0.0267  0.0137 -0.0936
26475W        W41606   7.934   4.945  12.418 -0.1239 -0.2072 -0.1741
26476W        W41607   2.906   9.414   1.056  0.0257 -0.2261 -0.1083
26477W        W41608   0.150  13.016   3.363  0.1434 -0.1548 -0.1289
26478W        W41609  16.290  15.124  11.454  0.0292 -0.1017 -0.0821
26479W        W41610   8.611   2.619  15.178 -0.2762 -0.0705  0.0007
26480W        W41611   5.897   0.989   3.211 -0.0072 -0.2574 -0.1592
26481W        W41612   4.062   2.002   0.943  0.1433  0.0729  0.2970
26482W        W41613   8.269   4.484  11.323  0.1464 -0.0660 -0.2705
26483W        W41614  15.766   4.356   0.828  0.2287  0.0827 -0.3126
26484W        W41615   4.982   9.651  11.357  0.0037 -0.2523  0.1063
26485W        W41616  13.550   5.440  14.098 -0.2767 -0.1936  0.4421
26486W        W41617   0.314  11.520  11.624  0.1549 -0.3684 -0.0361
26487W        W41618   2.541  16.612  11.931 -0.2142  0.0817 -0.1531
26488W        W41619   9.041  11.277   2.415 -0.2523  0.0353 -0.4330
26489W        W41620  17.588   3.456   2.995  0.0236 -0.0949 -0.0151
26490W        W41621   5.291  12.222   1.716 -0.1443 -0.2452 -0.0291
26491W        W41622  11.536   5.116   2.188 -0.2770 -0.0091 -0.2932
26492W        W41623   2.127  12.719  14.580  0.1243 -0.2495 -0.0292
26493W        W41624   3.707   6.301   4.453  0.0761  0.0209  0.0763
26494W        W41625  11.412  17.105   4.274 -0.3964 -0.3800 -0.1715
26495W        W41626   4.688   3.841   0.783 -0.2102  0.0412 -0.2566
26496W        W41627  10.063   4.873   1.224 -0.0927 -0.1303 -0.0872
26497W        W41628  13.507  13.681  11.568 -0.0868 -0.0447 -0.0955
26498W        W41629  14.898  13.161   0.021  0.1066  0.0918 -0.0159
26499W        W41630  13.269  14.337  12.216 -0.0804  0.1433 -0.0758
26500W        W41631  13.220  16.429  11.792  0.1514 -0.1324 -0.2862
26501W        W41632  12.092  16.585   2.665 -0.1307  0.1002 -0.1746
26502W        W41633  12.070   0.046   3.704  0.0945  0.0263 -0.0607
26503W        W41634   8.306  11.775   0.195 -0.3307 -0.0938 -0.2845
26504W        W41635   3.685   9.061  10.882  0.1434  0.0311  0.1596
26505W        W41636   9.682   3.040   1.214 -0.3468  0.0007  0.1504
26506W        W41637   1.406  12.019  15.409  0.1369 -0.2040 -0.0385
26507W        W41638   8.693   4.702   3.985  0.4126 -0.1020  0.0860
26508W        W41639  11.980   0.443   4.592  0.2673  0.3293  0.2881
26509W        W41640  11.151  15.780  12.769 -0.1246  0.1856 -0.1287
26510W        W41641  15.461   5.111   1.083  0.2754 -0.1306 -0.1503
26511W        W41642   5.460  10.932   2.966  0.0943 -0.0258  0.1487
26512W        W41643   3.825  14.854  14.892  0.2364 -0.2332 -0.0816
26513W        W41644   5.763   9.325   1.604 -0.1837 -0.1264  0.0184
26514W        W41645   0.081   6.575  12.281  0.1524 -0.2066 -0.0527
26515W        W41646   8.711  17.416  16.242 -0.2071 -0.0115 -0.3113
26516W        W41647  10.325   7.259   1.698  0.0750 -0.3336 -0.0675
26517W        W41648  13.587   9.968  16.409  0.2520 -0.0810  0.1971
26518W        W41649   7.543   5.710   3.122 -0.4028  0.0222  0.3064
26519W        W41650  13.696  12.600   4.682 -0.0090 -0.2198 -0.1434
26520W        W41651   9.777   3.043   3.050 -0.3919  0.4623  0.0101
26521W        W41652   5.591  13.143  11.606 -0.0878  0.0761 -0.3669
26522W        W41653  11.120   8.042   0.503  0.2632  0.2633 -0.1125
26523W        W41654  16.293  11.972  13.710  0.0098 -0.0465  0.1828
26524W        W41655  11.163   4.371   3.076 -0.3948  0.2511 -0.0321
26525W        W41656  13.213   0.029  13.585  0.5269 -0.1111  0.4009
26526W        W41657   5.401   6.903   0.849  0.0197 -0.0962 -0.0315
26527W        W41658  13.703  11.293   2.854 -0.0231  0.0108  0.1006
26528W        W41659   6.558  15.855   5.399  0.0358 -0.1176 -0.0045
26529W        W41660   6.256   8.839   0.953  0.0792 -0.0310  0.0370
26530W        W41661   1.539   6.562  11.172  0.1477 -0.1706 -0.2121
26531W        W41662   5.312  15.359   3.525  0.1153  0.0230  0.4220
26532W        W41663  12.107   0.249  12.541  0.0274  0.1281  0.0873
26533W        W41664   9.843   2.559  10.564  0.1059  0.0476  0.0060
26534W        W41665   8.661  17.358   4.511  0.3902  0.1164  0.4499
26535W        W41666   7.901   8.589  16.663 -0.1909 -0.2070 -0.3705
26536W        W41667  17.021   3.195  15.150  0.1383  0.0489  0.0955
26537W        W41668  13.197   5.161  12.137 -0.0180  0.2169  0.1807
26538W        W41669   0.024  11.042   5.395 -0.0892  0.2588  0.0794
26539W        W41670  11.780   7.727  13.609 -0.2056 -0.3711 -0.1030
26540W        W41671  10.727  17.778  11.654  0.0252 -0.2148 -0.0969
26541W        W41672   4.559  12.994  13.795 -0.2866 -0.2551  0.0326
26542W        W41673  10.951  12.238   4.432 -0.3117 -0.0725 -0.3283
26543W        W41674   2.876   9.880   3.046 -0.0639 -0.0534 -0.0712
26544W        W41675   5.093   3.033  12.677 -0.1894 -0.0181 -0.1993
26545W        W41676  14.617  17.878   4.493  0.0127  0.3139 -0.4201
26546W        W41677  11.583  15.767   0.524  0.1064  0.0816 -0.1806
26547W        W41678  11.378   7.920  12.603 -0.2531  0.0918 -0.0313
26548W        W41679  11.552  13.082  15.648 -0.1397  0.1360 -0.0080
26549W        W41680   2.391   9.027  11.129  0.0540 -0.0598 -0.0283
26550W        W41681  11.473   8.266   4.316  0.0676  0.1683  0.0406
26551W        W41682   3.174   4.736   5.416 -0.1442  0.1744 -0.0070
26552W        W41683   7.712   1.514   0.278  0.0780 -0.0238 -0.2850
26553W        W41684   8.682  10.192  16.435  0.0655 -0.3598  0.2320
26554W        W41685   6.334  11.082   2.235 -0.2272 -0.0269  0.0824
26555W        W41686   6.315   3.529   1.681  0.0700  0.0182  0.0001
26556W        W41687   2.815   1.283  12.185  0.1374  0.0947  0.0649
26557W        W41688   1.127  14.775  15.797  0.1461  0.2230  0.2608
26558W        W41689   3.902   4.463   0.426  0.2324  0.3466 -0.0636
26559W        W41690  15.820  12.356  14.354 -0.3163 -0.2475 -0.2298
26560W        W41691   8.510   5.449  16.630  0.0804 -0.1635  0.0927
26561W        W41692  13.789  16.066  15.915  0.0529  0.3297 -0.1196
26562W        W41693  13.573   4.430  11.070 -0.2826  0.2922 -0.2060
26563W        W41694   6.251   2.673  12.603 -0.0484  0.0563  0.4822
26564W        W41695  12.146  11.035  13.752 -0.1586 -0.0041  0.2749
26565W        W41696   4.477  13.962   4.309 -0.1338 -0.0518 -0.1109
26566W        W41697   8.030  12.840   3.455  0.1445 -0.1106 -0.0609
26567W        W41698   7.232   4.229  13.100 -0.2594 -0.0202  0.0762
26568W        W41699   0.145  17.193   2.618 -0.1438 -0.1950  0.1313
26569W        W41700   8.022   0.872   1.577  0.2116  0.0618 -0.1010
26570W        W41701  14.526   0.957  12.574 -0.0435  0.0022  0.0418
26571W        W41702   4.795  16.104  11.737 -0.2566  0.1691 -0.1337
26572W        W41703   5.862   7.732  12.266  0.0235  0.0847 -0.1215
26573W        W41704   2.211  12.315   0.045  0.1638 -0.1290  0.0524
26574W        W41705   2.685   5.440  13.307 -0.2900  0.1524 -0.0178
26575W        W41706   5.924   3.796   3.600 -0.0904 -0.1765  0.0421
26576W        W41707   3.851   8.919   5.946  0.3270  0.0030 -0.0745
26577W        W41708  13.442   9.513  15.574  0.2653  0.1841 -0.0434
26578W        W41709  11.200   1.137   3.128  0.0194 -0.1340  0.2783
26579W        W41710   1.931   6.894  16.220 -0.2683 -0.0261 -0.2108
26580W        W41711   3.535   4.270  12.173 -0.3938 -0.0655  0.0260
26581W        W41712  10.594  10.013  11.509 -0.0353  0.0791  0.0660
26582W        W41713   5.444   3.177  10.989 -0.2438 -0.1423 -0.4358
26583W        W41714   4.276   3.297  13.281 -0.3618 -0.2323 -0.0879
26584W        W41715   2.907  11.313   5.243  0.2090  0.0551  0.0597
26585W        W41716  12.569   1.264  14.989  0.0589  0.3581 -0.2821
26586W        W41717  17.024  15.972   3.880 -0.2161  0.0631 -0.4128
26587W        W41718  11.854   2.404  13.413 -0.2813  0.0685  0.5225
26588W        W41719  14.741   2.006  16.147  0.3082  0.3012 -0.0060
26589W        W41720   0.301   2.775  13.211 -0.2498 -0.0828 -0.2693
26590W        W41721   5.120   1.159   2.583  0.1405 -0.0186 -0.1276
26591W        W41722   6.913   7.114  14.828  0.3911  0.0300 -0.1589
26592W        W41723  12.262   2.708   2.801 -0.2269  0.2253 -0.1672
26593W        W41724  15.940   2.886   3.519  0.1425  0.0538  0.1104
26594W        W41725  11.297   0.679  16.004 -0.1860 -0.1207 -0.0390
26595W        W41726  11.424  14.161   0.136  0.1263  0.0367 -0.0315
26596W        W41727  14.301  15.469  15.057 -0.2543  0.1761 -0.3847
26597W        W41728  13.941   6.660  13.842  0.1185 -0.2777 -0.1434
26598W        W41729  17.408   5.795   4.091  0.1178 -0.1657 -0.1216
26599W        W41730  10.812  16.998  13.345 -0.0881  0.0512 -0.3668
26600W        W41731   7.326   9.102  13.066  0.3015 -0.1161  0.0918
26601W        W41732  15.835  12.100   5.477  0.0409 -0.0628 -0.2955
26602W        W41733  10.065   0.037  16.181  0.0642 -0.2601  0.0193
26603W        W41734   8.511   8.636  14.885 -0.0700 -0.0186  0.0626
26604W        W41735  11.730  12.320   5.523 -0.0623 -0.2873  0.2110
26605W        W41736   2.267   0.460   3.971 -0.0921 -0.2656  0.1825
26606W        W41737  15.497  17.092  11.258  0.1649  0.2379  0.1759
26607W        W41738  12.232  15.594   4.801  0.0601  0.0138 -0.0019
26608W        W41739   3.788   1.555   6.735 -0.0345  0.0497  0.0868
26609W        W41740  16.046  10.877  13.705  0.0297  0.2172 -0.1668
26610W        W41741   0.826  12.793   1.183  0.0263  0.1079  0.2095
26611W        W41742   1.628  16.089  13.984  0.1755  0.1005  0.1230
26612W        W41743   5.313   1.824  15.554  0.1074  0.0780 -0.0207
26613W        W41744   2.799   2.848  12.266 -0.0952 -0.0173 -0.0486
26614W        W41745   0.290   8.395  14.547  0.1380  0.2222 -0.1335
26615W        W41746  15.120  16.318   3.787 -0.0551  0.0992 -0.2370
26616W        W41747  16.232   6.963  12.804 -0.0230  0.3666  0.0042
26617W        W41748   8.224   2.197  14.869 -0.2050  0.0223  0.3006
26618W        W41749  15.146   1.319   4.991  0.2663  0.1796  0.0235
26619W        W41750  17.463   3.108  15.941 -0.0350 -0.1211 -0.0619
26620W        W41751  12.244  13.521   0.397  0.2042 -0.2256  0.0103
26621W        W41752   8.268   1.446   0.960 -0.1803 -0.4183  0.0855
26622W        W41753   7.603  10.434   4.562 -0.1401 -0.0811 -0.0894
26623W        W41754   4.091  15.758   4.667  0.0391  0.4191 -0.2652
26624W        W41755  14.450   6.997   5.255  0.0354 -0.0067  0.0782
26625W        W41756  11.941  11.501   2.563  0.0848 -0.1247  0.2862
26626W        W41757  15.250   1.024  12.078 -0.2983  0.1855 -0.2853
26627W        W41758   0.653  13.740  16.623  0.0559  0.1231 -0.5309
26628W        W41759   1.517  11.200   3.425  0.2275 -0.2354  0.1986
26629W        W41760   4.659   0.964   2.538 -0.0614  0.0121 -0.3562
26630W        W41761  16.674   6.232  16.147 -0.0214 -0.3748  0.1186
26631W        W41762  10.917   5.281   2.991 -0.0149  0.0318  0.1316
26632W        W41763  10.996   4.962   4.366  0.3495  0.1575 -0.1473
26633W        W41764   3.146   0.774  16.626 -0.1592 -0.1297 -0.2371
26634W        W41765  12.922   7.536  15.329 -0.1895  0.1016  0.1824
26635W        W41766   4.466  15.229   2.306  0.0488  0.0881 -0.1883
26636W        W41767   1.762  12.434  16.037 -0.0085  0.1505  0.1652
26637W        W41768  17.304   8.351   1.020 -0.0466  0.2733  0.2708
26638W        W41769   5.354  13.291  13.271 -0.0117 -0.1314 -0.0806
26639W        W41770   5.806   5.529   5.584 -0.0600 -0.1771  0.0515
26640W        W41771   8.933  12.904  13.780 -0.1389  0.1164  0.1010
26641W        W41772   3.949   4.312  15.842 -0.0847 -0.1894  0.2958
26642W        W41773   6.984  13.841  12.932 -0.1749 -0.0564 -0.1690
26643W        W41774   2.985   3.694  15.707 -0.1799  0.0963 -0.2397
26644W        W41775   9.118   8.150  13.645 -0.4272  0.1427  0.0029
26645W        W41776  12.957   3.103   0.289  0.1248 -0.1565 -0.1349
26646W        W41777  13.397   7.765   1.942 -0.1492 -0.0322  0.2291
26647W        W41778   7.832   2.929  15.115 -0.1024  0.1824 -0.0118
26648W        W41779   0.486  15.439  12.610 -0.1369 -0.0450 -0.4529
26649W        W41780   9.459  12.701   1.211  0.0201  0.1103  0.1136
26650W        W41781  13.512   5.206  13.339 -0.0652 -0.1929 -0.1983
26651W        W41782   0.632   5.908   1.229  0.0038  0.1803  0.0270
26652W        W41783  17.198   2.239  10.559  0.3245  0.0054  0.2312
26653W        W41784   6.891  11.355  15.830  0.2304  0.0317 -0.0560
26654W        W41785   7.533   8.711   4.601  0.1710  0.2108  0.0149
26655W        W41786  16.393  12.694  16.405  0.1167 -0.1732 -0.0616
26656W        W41787  13.550   3.251  14.782  0.0911 -0.0329 -0.1109
26657W        W41788   6.750  10.655  15.355 -0.1384 -0.0541 -0.0446
26658W        W41789   5.276   0.741   0.878 -0.0326  0.1522 -0.2583
26659W        W41790  10.735  14.046   2.007  0.1485  0.0069 -0.1277
26660W        W41791   2.100  17.123  15.524 -0.1028  0.1379  0.2150
26661W        W41792  15.822  14.900  11.415 -0.0439 -0.4872  0.1107
26662W        W41793   4.759  11.249  13.244 -0.0837  0.2803 -0.0649
26663W        W41794   0.592   7.296  15.956  0.1308  0.2538 -0.0682
26664W        W41795  12.516  14.339   0.062  0.2105 -0.2100 -0.1834
26665W        W41796  17.488   9.149   4.164 -0.2146 -0.0378  0.0857
26666W        W41797   4.226  17.605  12.640  0.2567  0.3207 -0.0040
26667W        W41798   8.832  17.641  13.431  0.0400  0.1857 -0.2229
26668W        W41799  17.637  17.630   5.622 -0.0191  0.0377  0.0104
26669W        W41800  14.528  13.879  16.667  0.0343  0.1762 -0.0074
26670W        W41801  15.321   4.599  13.962 -0.0476 -0.0260 -0.1464
26671W        W41802   7.822   8.727  11.995  0.4542  0.1675 -0.0939
26672W        W41803   1.290   5.856  15.336 -0.0614 -0.0600  0.0785
26673W        W41804   1.739   6.119  11.325  0.0663  0.2701 -0.2028
26674W        W41805   0.461  10.095   2.883 -0.0883  0.0262  0.1537
26675W        W41806   4.178   5.484   4.316 -0.2472  0.3031 -0.1402
26676W        W41807   9.130  15.127  12.875 -0.1238 -0.0381  0.1869
26677W        W41808  17.598  14.073   4.441  0.0164 -0.0251  0.1242
26678W        W41809  14.066  16.940  16.086  0.4016 -0.1541  0.1836
26679W        W41810   6.842   7.551   4.470 -0.1555  0.0859  0.1158
26680W        W41811   6.193   8.235  11.613 -0.0382 -0.1567  0.1920
26681W        W41812   2.611   7.766   2.488 -0.0315 -0.4091  0.2102
26682W        W41813   9.194   1.556  15.713 -0.0394 -0.1352 -0.1687
26683W        W41814   6.713   4.261  14.724 -0.0684  0.1055  0.2487
26684W        W41815   5.895   8.485  14.047 -0.0076 -0.0629  0.0627
26685W        W41816  16.708   0.927  11.588 -0.0583  0.1309 -0.2064
26686W        W41817  17.175   2.520   5.038 -0.0376 -0.0648 -0.1327
26687W        W41818   7.331   2.623   5.044  0.1915 -0.1504  0.0519
26688W        W41819   1.601   7.060   1.234  0.1723  0.0131  0.1481
26689W        W41820   0.784   7.413  13.036 -0.2249 -0.4079  0.0339
26690W        W41821   8.290   7.148   2.990 -0.0551 -0.1403  0.3425
26691W        W41822   4.071   4.398  12.261 -0.0938  0.2500  0.2827
26692W        W41823   8.078   6.903   0.743  0.0576  0.1354  0.0712
26693W        W41824   8.457   1.762  11.254 -0.1686 -0.0999 -0.1036
26694W        W41825   0.261   6.720  12.739 -0.1982  0.1588 -0.1872
26695W        W41826   3.840   2.802  16.739 -0.3260 -0.0165  0.3612
26696W        W41827  14.518   2.763   5.241  0.0647  0.1305  0.0625
26697W        W41828  12.773  15.487   2.207 -0.1085  0.1415 -0.1596
26698W        W41829  14.814  12.712   1.930 -0.1390 -0.0563 -0.2456
26699W        W41830  12.079  12.846  16.515  0.5215  0.0915 -0.0136
26700W        W41831   4.607  13.393   0.470 -0.1994  0.0693 -0.0757
26701W        W41832  15.677   2.568  11.225 -0.2448 -0.4078 -0.0278
26702W        W41833  13.851  12.449  15.117 -0.3410 -0.0922  0.0658
26703W        W41834   1.659  13.968   5.461  0.1217  0.0018  0.0641
26704W        W41835  10.166  15.668  11.595 -0.0620 -0.3084  0.0618
26705W        W41836   2.612  11.084   3.940  0.0780 -0.1496  0.0510
26706W        W41837  12.835   5.840  16.087  0.2046 -0.0401 -0.2330
26707W        W41838  13.437   0.760  15.601 -0.0140  0.2098 -0.2562
26708W        W41839  15.677   4.907  14.204  0.1206 -0.3330 -0.0158
26709W        W41840  13.207   9.514  13.370 -0.1557 -0.3747 -0.1446
26710W        W41841   0.475   7.705   4.389 -0.3362 -0.0282  0.1997
26711W        W41842  11.048  17.727   0.759 -0.2298  0.1692 -0.1942
26712W        W41843  16.281  17.579  13.775 -0.0037  0.0834  0.1398
26713W        W41844  10.873  14.489  11.978  0.2176 -0.2234 -0.2939
26714W        W41845   5.877   6.752  15.221  0.3796  0.2763  0.1631
26715W        W41846   9.770   9.928  15.909 -0.0543  0.0019 -0.0595
26716W        W41847   3.773   9.080  14.038  0.1123  0.4019  0.0316
26717W        W41848  16.757   8.900   6.007  0.0768 -0.1102  0.0226
26718W        W41849   7.875   2.600   0.266  0.1222 -0.2945  0.1429
26719W        W41850  15.437  15.177  11.747 -0.0251  0.2203 -0.1321
26720W        W41851  15.469   6.927   3.007  0.0295  0.0350 -0.0291
26721W        W41852  14.038   5.898   0.347 -0.3514  0.2328 -0.1188
26722W        W41853  11.925   9.385  14.659 -0.0667 -0.2415  0.2301
26723W        W41854   6.453   6.330   2.452  0.2223 -0.2309  0.0777
26724W        W41855   8.593  10.708  11.373 -0.0191 -0.3388  0.3599
26725W        W41856   6.221  14.899  15.762  0.1445 -0.1941  0.0452
26726W        W41857   5.898  14.473   0.248 -0.1897  0.2652 -0.0262
26727W        W41858   9.530   4.446   4.885 -0.1552 -0.0487 -0.1104
26728W        W41859   4.687   5.336  13.602 -0.0925 -0.0796 -0.3375
26729W        W41860  12.993  10.273   0.144  0.0124  0.3756 -0.1022
26730W        W41861  11.188   9.418   4.694  0.1455  0.0368 -0.1376
26731W        W41862   4.750   6.338   3.322 -0.0385  0.1755 -0.1425
26732W        W41863   3.683  11.840   3.803 -0.1973  0.3085  0.2945
26733W        W41864   4.050   4.999  15.247 -0.3673  0.0300 -0.0389
26734W        W41865  12.493   0.797   3.808 -0.1453  0.0844  0.0837
26735W        W41866  16.762  17.587   2.011 -0.0786 -0.0408  0.0756
26736W        W41867   0.886   1.604  13.535 -0.0676  0.1293  0.0158
26737W        W41868   7.767  12.696   1.804 -0.0383  0.0040  0.2576
26738W        W41869  13.866   7.271  12.873 -0.1931 -0.0452 -0.2209
26739W        W41870  13.792  11.691   2.554 -0.0031 -0.0399  0.1593
26740W        W41871  15.065   9.773   2.058  0.0800 -0.1775  0.0662
26741W        W41872   0.628   6.456  11.163  0.1157  0.3896  0.2195
26742W        W41873  13.361  17.675  12.585 -0.0551 -0.3320 -0.0324
26743W        W41874   2.415   6.061  13.822 -0.1976  0.4218  0.2331
26744W        W41875   4.878   4.275   5.913  0.0903  0.0330 -0.0504
26745W        W41876  14.834  11.252  15.194 -0.0446  0.0668 -0.0336
26746W        W41877   9.772   0.906   5.101 -0.4090 -0.0435 -0.2604
26747W        W41878  10.323   6.592   3.846 -0.0858 -0.3214  0.0874
26748W        W41879  13.025   5.970   5.630 -0.2152  0.0757 -0.0241
26749W        W41880  16.273   2.891  16.254 -0.0301  0.0748  0.2438
26750W        W41881   4.568   0.821   3.198 -0.0770 -0.1309 -0.1063
26751W        W41882  10.266   2.148   5.475  0.2205  0.3285  0.0569
26752W        W41883   3.105  13.414   4.873  0.2438 -0.1070 -0.1920
26753W        W41884   5.092   9.647  11.991 -0.1231 -0.1332  0.0318
26754W        W41885   5.854   9.065   3.576 -0.0364 -0.0218 -0.1449
26755W        W41886   2.482   4.920  15.818 -0.1184 -0.0569  0.0093
26756W        W41887   1.406  11.329   4.262 -0.1973  0.4383  0.1629
26757W        W41888  10.903   6.209   2.990 -0.1218 -0.2100 -0.1653
26758W        W41889  17.351   4.828   4.458 -0.0899  0.0481 -0.1043
26759W        W41890   3.445  16.436  14.078 -0.0616 -0.0339 -0.2824
26760W        W41891   8.139   5.028  15.124 -0.1234 -0.1924  0.0333
26761W        W41892   2.032   4.140   3.074 -0.0212 -0.2662 -0.0870
26762W        W41893   9.835  14.110   4.395  0.2633 -0.0187 -0.0145
26763W        W41894   7.864  13.010  15.569  0.2320 -0.3128  0.1753
26764W        W41895   1.651  12.165   3.173 -0.0151 -0.0170  0.0944
26765W        W41896  14.555   5.118  11.349  0.2866 -0.0108 -0.0646
26766W        W41897  12.615   2.927  11.998 -0.2285  0.2594 -0.1073
26767W        W41898  14.606  15.466  14.206 -0.1076 -0.1752 -0.0608
26768W        W41899   9.679   0.357   5.598  0.0686  0.0300 -0.0279
26769W        W41900   5.982   7.255   3.215  0.1409 -0.0711  0.1061
26770W        W41901   8.420  14.676  13.333 -0.1184 -0.0196 -0.0572
26771W        W41902  16.244  15.611   3.362 -0.0268 -0.1641  0.1325
26772W        W41903   9.133  11.177  16.210  0.0848 -0.0602 -0.1262
26773W        W41904   8.967   4.368  12.020 -0.2832 -0.2943 -0.2494
26774W        W41905  13.603   6.456  15.916 -0.0546 -0.1491 -0.1313
26775W        W41906   5.773   1.707  12.090 -0.1057 -0.0952  0.1183
26776W        W41907   3.966  14.846   4.814 -0.0497  0.3263 -0.0592
26777W        W41908   6.883   2.276   0.000 -0.0566 -0.1905 -0.0490
26778W        W41909  10.034   8.202  14.934  0.0727 -0.1796  0.0684
26779W        W41910  11.326   1.526   3.912  0.0061 -0.4482 -0.0965
26780W        W41911   8.055  16.806  14.406  0.2719 -0.2253 -0.2520
26781W        W41912   8.531  10.084  12.932 -0.2040  0.1404  0.2074
26782W        W41913   4.967  13.449  10.801 -0.1237  0.0409 -0.2141
26783W        W41914  15.328   5.560   0.877  0.2544 -0.0905 -0.1485
26784W        W41915   3.017   4.436   0.505 -0.2689 -0.1658  0.3972
26785W        W41916  17.765  15.025   4.842 -0.0581 -0.2336  0.1659
26786W        W41917   1.834   1.363   4.088  0.2268 -0.1610 -0.2734
26787W        W41918   3.962  14.364   2.638  0.3479  0.1281  0.0075
26788W        W41919  13.024   9.605   2.176  0.1490 -0.3454 -0.0197
26789W        W41920  12.968   6.470   4.349 -0.0262  0.1523 -0.2799
26790W        W41921   6.826  10.289   5.017 -0.0809  0.1706 -0.1036
26791W        W41922   6.249   4.117   0.471 -0.0782  0.2335  0.0896
26792W        W41923   0.465   1.993  11.809  0.0273  0.0117  0.0870
26793W        W41924  12.582   9.833  15.920  0.2167  0.0035  0.1065
26794W        W41925  12.457  14.993  16.431 -0.1661 -0.4011  0.1775
26795W        W41926  16.268   6.959  15.870 -0.0857  0.1138 -0.2475
26796W        W41927   8.750  11.560   0.450 -0.4272 -0.2462 -0.0500
26797W        W41928   2.221  16.818  13.580  0.3069 -0.1335  0.0668
26798W        W41929   7.240   2.508   3.184 -0.2892 -0.1067 -0.1499
26799W        W41930   8.650   3.500   3.376  0.0099 -0.1767  0.0373
26800W        W41931  17.793  13.584   2.459 -0.0463  0.0814 -0.1524
26801W        W41932  17.496   8.104   1.949  0.1572  0.0751  0.0524
26802W        W41933   3.898  10.782   3.019  0.0818 -0.2581 -0.0426
26803W        W41934  14.330   9.959  14.084  0.2099 -0.0516  0.0366
26804W        W41935   9.294  14.639  12.769 -0.1735 -0.0588 -0.0041
26805W        W41936   9.604  17.456   3.983  0.1557  0.3109  0.1728
26806W        W41937  13.349   9.726   1.360 -0.1446 -0.3612  0.2247
26807W        W41938   9.969   9.260  14.085 -0.4154  0.2172  0.0650
26808W        W41939   5.186  15.440  16.380 -0.1853  0.2960  0.2230
26809W        W41940  10.815   2.730   1.027  0.0634  0.2285  0.0795
26810W        W41941   0.846   4.124  13.401 -0.1355 -0.0765  0.0227
26811W        W41942   0.014  13.078   1.503  0.0688 -0.2003 -0.0129
26812W        W41943  15.324   9.164   0.726 -0.2096  0.3401 -0.0625
26813W        W41944  16.940   2.404  12.224  0.1227  0.1237 -0.0032
26814W        W41945  14.362   2.762   4.465  0.0327 -0.4435 -0.1010
26815W        W41946   4.358   1.190  12.418 -0.4610  0.1915 -0.0221
26816W        W41947   6.349  13.545   5.541  0.0241  0.1564  0.0661
26817W        W41948   3.240  14.959  13.023  0.1543  0.0436 -0.1288
26818W        W41949  10.312   1.364   0.420 -0.0473 -0.1474  0.0959
26819W        W41950  12.903   6.905   1.873  0.3576  0.1496 -0.1345
26820W        W41951  14.475  16.581  12.876  0.0593 -0.1817  0.0136
26821W        W41952  11.403   4.253   5.022 -0.3849  0.0304 -0.2335
26822W        W41953  15.674  16.698   4.871  0.0443 -0.0057 -0.0322
26823W        W41954   2.523   3.955   0.415 -0.1813 -0.2506 -0.1893
26824W        W41955  17.570   8.750   2.436 -0.2187 -0.1486 -0.1837
26825W        W41956  12.587   0.640  14.385  0.0241 -0.0450  0.2587
26826W        W41957  17.023   7.906   0.967 -0.1904 -0.1664 -0.2703
26827W        W41958   2.088  16.896   5.086  0.0258 -0.0837 -0.2087
26828W        W41959   5.687  11.963   4.698 -0.1546 -0.1322 -0.0794
26829W        W41960  12.392   0.641   5.529  0.0278  0.0078 -0.0316
26830W        W41961  12.467  15.145   5.688 -0.2568  0.1043 -0.0869
26831W        W41962  12.629  10.239   5.013  0.0702  0.0576  0.0755
26832W        W41963  12.867  17.574   3.791  0.1047  0.1997  0.0996
26833W        W41964  12.649  15.214   3.093  0.1678 -0.2038  0.1104
26834W        W41965  13.927   7.995  12.953  0.0027  0.0347  0.2116
26835W        W41966   4.398   0.172   3.804  0.1841  0.1109  0.0508
26836W        W41967   3.020   6.282   4.163 -0.0730 -0.2365  0.1684
26837W        W41968  11.358  12.948  12.591 -0.0818  0.1758  0.0493
26838W        W41969   0.024   9.653   4.688  0.0612 -0.0909  0.1092
26839W        W41970  15.854   5.439  12.502 -0.0444  0.1574 -0.2979
26840W        W41971   3.677   6.869   3.138 -0.0422 -0.0043 -0.1552
26841W        W41972  11.896   1.526  13.794  0.1484  0.0694 -0.0394
26842W        W41973   5.948   3.573  15.691  0.0236 -0.1159 -0.1217
26843W        W41974   7.021   1.573  16.623 -0.0584 -0.3879  0.1193
26844W        W41975  16.151  12.979   0.166 -0.1958  0.0538  0.0634
26845W        W41976  17.133   6.243   3.440 -0.0536 -0.0343  0.1024
26846W        W41977   1.398   0.340   0.804 -0.2160  0.2333  0.1398
26847W        W41978   9.423   4.703   5.329  0.1537 -0.1100  0.0347
26848W        W41979   9.787   1.405  14.207  0.0428 -0.0663  0.0268
26849W        W41980   7.847   5.875  11.212 -0.2468 -0.1742  0.0888
26850W        W41981  14.319   6.533   2.883  0.0719  0.1226  0.0022
26851W        W41982   6.339  12.496  15.121 -0.2065 -0.0213 -0.0674
26852W        W41983   3.234  11.880  11.577  0.0172 -0.0017 -0.1494
26853W        W41984   6.097   2.466  15.511 -0.2002  0.1406 -0.0450
26854W        W41985   8.875   5.179  14.854  0.0579  0.0182 -0.1453
26855W        W41986  10.527  14.354  15.578 -0.3300  0.1622 -0.1869
26856W        W41987   2.805  12.572   4.950  0.0578  0.1430  0.1003
26857W        W41988  17.638   3.997   2.978 -0.1668  0.0223 -0.1166
26858W        W41989  12.913   2.466   4.482 -0.0452 -0.4134 -0.0466
26859W        W41990  15.124  15.410   4.811 -0.2349 -0.1309  0.1252
26860W        W41991   8.045   9.015   0.184 -0.1176 -0.2231  0.1342
26861W        W41992  11.581  15.360  10.254 -0.1261  0.2040  0.2109
26862W        W41993  15.258   0.549   5.254  0.0186  0.0154  0.0960
26863W        W41994   9.817  12.271   3.086  0.0857  0.0565  0.0190
26864W        W41995  17.074   2.741   0.501  0.0547 -0.1766 -0.1893
26865W        W41996   4.188   8.872  15.748  0.3169 -0.0474  0.1876
26866W        W41997   5.380  12.539   5.381  0.1380 -0.1874  0.1938
26867W        W41998   0.490   1.477  11.704  0.0763  0.0287 -0.0845
26868W        W41999   7.395   5.046  11.115  0.2881 -0.0468  0.3610
26869W        W42000   0.375   2.125   0.980  0.1079  0.0828  0.1596
26870W        W42001  11.296   7.437   0.514 -0.1403  0.1300  0.0884
26871W        W42002   9.032   0.079   2.672  0.1241 -0.1725 -0.0103
26872W        W42003   2.537  17.067   3.235  0.3505  0.0274  0.0977
26873W        W42004  17.639  13.678  14.686  0.1948 -0.0118 -0.1705
26874W        W42005  11.407  12.672   0.087  0.0926  0.0220  0.0838
26875W        W42006   1.356  12.173   0.449  0.0348 -0.0181 -0.2167
26876W        W42007   5.146   9.542  13.865  0.0973  0.0594 -0.1813
26877W        W42008  13.354  14.575   0.543 -0.0153 -0.2231 -0.0579
26878W        W42009  11.134   3.612   2.426  0.0014  0.2041  0.2002
26879W        W42010  15.534  14.713  11.812  0.1376  0.1061 -0.0026
26880W        W42011  15.570   8.563   3.041 -0.5080 -0.0216  0.0593
26881W        W42012  11.673   8.735   5.724  0.0460  0.0941  0.1101
26882W        W42013   9.043  13.762  13.840  0.0545  0.0450 -0.1766
26883W        W42014   7.719   4.743   9.927 -0.2555 -0.4190 -0.1194
26884W        W42015   1.765  10.810  14.021  0.4752  0.1722 -0.1325
26885W        W42016   3.313   7.875  12.445 -0.0833  0.0582  0.2176
26886W        W42017   0.324   7.330  12.724  0.1250  0.1517 -0.0432
26887W        W42018   3.723   0.599  15.894  0.1106  0.0075 -0.0236
26888W        W42019  15.218  11.487   4.450 -0.1478  0.0412  0.1732
26889W        W42020  12.443   7.037  15.784 -0.1527  0.3510 -0.2563
26890W        W42021   5.040  11.630   0.424  0.1157 -0.2963  0.0206
26891W        W42022  10.791  14.635  14.412 -0.0739  0.0432 -0.1009
26892W        W42023  16.068   1.608   1.015 -0.2256 -0.1828  0.2986
26893W        W42024  17.881   8.166  13.083  0.1113 -0.1992  0.1673
26894W        W42025   1.345   3.133  15.306  0.0360  0.1261 -0.1700
26895W        W42026   7.992  11.149   0.884 -0.0294 -0.1054 -0.1252
26896W        W42027  12.195  14.539  16.498  0.1055 -0.1603  0.0013
26897W        W42028  11.516  13.735  15.636  0.4807  0.2369  0.0088
26898W        W42029   1.061   9.222  14.441  0.0646 -0.2166  0.2163
26899W        W42030   3.962  16.167   4.412 -0.1483  0.0493  0.1115
26900W        W42031   3.285   3.290  12.864  0.0468  0.1285  0.0068
26901W        W42032   6.335   6.400   3.068  0.0571  0.3708  0.1253
26902W        W42033  17.023  14.101   6.520  0.0417 -0.0660 -0.1121
26903W        W42034   0.557  10.427   1.448  0.4188  0.0111 -0.0148
26904W        W42035   8.306   5.083   6.007  0.0901  0.0120 -0.2081
26905W        W42036   3.670   4.648   1.793 -0.2787 -0.0014 -0.0584
26906W        W42037  10.208   7.785  11.679  0.0130  0.0550 -0.2129
26907W        W42038  10.802  15.893   1.335 -0.1647  0.1437  0.0490
26908W        W42039  13.008  11.440   3.381 -0.1297 -0.0619 -0.2756
26909W        W42040   9.403   2.291  14.346  0.0205  0.0262  0.0451
26910W        W42041  10.649  17.285  14.822 -0.0463  0.0083 -0.1261
26911W        W42042  17.513   2.485  15.231 -0.0009  0.2406  0.2165
26912W        W42043   1.231   9.019   4.811  0.1990  0.1582  0.1620
26913W        W42044  11.514  11.322   2.206 -0.1551 -0.2559 -0.0530
26914W        W42045   2.670   6.677   3.082  0.2642 -0.4009 -0.1727
26915W        W42046  12.672   8.850  10.854  0.3867 -0.2197  0.5948
26916W        W42047   2.192  11.015   1.927 -0.2938  0.3032 -0.1810
26917W        W42048  11.076  12.299  15.534 -0.2229 -0.0302  0.1385
26918W        W42049   3.107   8.081   3.310 -0.1436 -0.2864  0.2429
26919W        W42050  11.113  15.204   4.467  0.0725  0.0132 -0.1275
26920W        W42051   6.680   1.873  14.682 -0.0881 -0.1885 -0.3570
26921W        W42052   9.675   1.661  13.777 -0.1613  0.0646 -0.1994
26922W        W42053  15.334   7.706  11.311 -0.2186  0.1939 -0.4035
26923W        W42054  14.685   8.613  10.660 -0.1273  0.0325 -0.1083
26924W        W42055   9.439   1.771  13.008 -0.2042 -0.0147 -0.3552
26925W        W42056  14.741  12.263  11.498  0.1797 -0.2146 -0.2164
26926W        W42057   5.072   2.184   3.279  0.4570  0.4341 -0.0426
26927W        W42058  15.190   3.670  11.650 -0.0537 -0.2163  0.1779
26928W        W42059   4.785   8.174   0.059 -0.0503 -0.0777 -0.0438
26929W        W42060  11.080   6.279  12.031 -0.1591 -0.0675 -0.0615
26930W        W42061   9.230  14.333   2.886 -0.0039  0.1064 -0.0571
26931W        W42062   9.338  13.162   5.649  0.0014  0.1045  0.1988
26932W        W42063   3.529  10.309   3.727  0.2873 -0.0656  0.1730
26933W        W42064  15.561  12.624  12.586  0.0632 -0.0307  0.1919
26934W        W42065  13.626   0.744   0.191 -0.0021  0.1615 -0.1175
26935W        W42066  13.028   5.212   0.069 -0.0257 -0.0966  0.3088
26936W        W42067  14.240   1.034   3.745  0.2798 -0.0992 -0.2438
26937W        W42068   1.463  10.450  11.677 -0.1320  0.0918  0.0019
26938W        W42069  15.499   2.717  15.082 -0.2049  0.0871  0.2530
26939W        W42070   6.145  12.602  16.371  0.2391 -0.0144 -0.0932
26940W        W42071   9.292   0.696   5.611  0.1649 -0.3139  0.0267
26941W        W42072  16.818  13.780   5.070  0.0490  0.0592  0.0475
26942W        W42073   7.399  12.318  11.531  0.1245 -0.0615 -0.1295
26943W        W42074   3.969   3.138   0.888  0.3280  0.1725 -0.1197
26944W        W42075  13.635  13.445   1.855 -0.0707 -0.1206 -0.0190
26945W        W42076   0.438   0.592   4.629  0.2313  0.0750  0.0145
26946W        W42077  14.372   2.945  15.895  0.1668  0.2361 -0.0890
26947W        W42078   1.619  10.722  16.347 -0.0311 -0.1868 -0.2584
26948W        W42079   2.630   8.384   0.161 -0.0399 -0.0868 -0.1058
26949W        W42080   1.160   6.806  15.314 -0.1261 -0.0911  0.0163
26950W        W42081  16.528   2.795   2.756 -0.0523 -0.0060 -0.1488
26951W        W42082  10.460   7.536  10.937  0.1538 -0.0564  0.0950
26952W        W42083   8.530   1.141   0.584 -0.1973 -0.2735 -0.0861
26953W        W42084  17.016   9.660  12.961  0.2250  0.2016 -0.2253
26954W        W42085  13.663   0.346   0.978 -0.0031  0.1503 -0.0635
26955W        W42086  14.707  11.437   3.709  0.4288 -0.2835 -0.0170
26956W        W42087   3.713  13.629   1.339  0.3184 -0.0749  0.5338
26957W        W42088   8.393   3.739   2.910 -0.0198 -0.3595  0.0330
26958W        W42089   8.612  16.603   3.018  0.0452  0.0604 -0.0709
26959W        W42090  17.565   7.528   3.072  0.1046 -0.3395  0.0344
26960W        W42091   1.028   9.337  16.200  0.0088 -0.0436  0.1827
26961W        W42092   8.707  12.522  16.399  0.3269  0.3072 -0.1353
26962W        W42093  13.171  16.505  15.852  0.0615 -0.0543  0.0159
26963W        W42094   9.646   2.062  13.470  0.0015 -0.0913 -0.0597
26964W        W42095   0.759   7.828   3.390 -0.1842  0.2679 -0.2359
26965W        W42096  16.724   7.160  12.473  0.0974  0.0848 -0.1978
26966W        W42097   8.516  10.578   3.961 -0.0581 -0.1240  0.3288
26967W        W42098   1.702   9.072   5.584 -0.2710  0.0188  0.0949
26968W        W42099  11.175   6.591   0.570 -0.0747  0.1811  0.0499
26969W        W42100   8.366  14.549  14.940  0.0637 -0.2183  0.2882
26970W        W42101   9.546  16.860  11.724  0.0430  0.0029  0.1563
26971W        W42102   3.626   6.034  11.268 -0.0165 -0.0671 -0.0274
26972W        W42103   8.290  15.153   1.843  0.1809 -0.2262 -0.0266
26973W        W42104  15.702  14.359  13.634  0.1168  0.0953  0.0927
26974W        W42105   3.367   1.517   1.084 -0.2193 -0.0649  0.0755
26975W        W42106  17.121  17.208   1.472 -0.0590 -0.0993  0.2616
26976W        W42107   3.217   6.218   4.609  0.1040  0.0011  0.0057
26977W        W42108   7.984   0.470   5.143  0.2652 -0.2231  0.2786
26978W        W42109  16.660   8.977  13.521  0.0012  0.0812  0.0048
26979W        W42110   6.949   9.063  15.569  0.2834 -0.0835  0.3067
26980W        W42111   6.804   2.724   2.326 -0.1938  0.2503 -0.0135
26981W        W42112  10.900  10.867  14.152  0.2045  0.2223 -0.0047
26982W        W42113  14.958   3.667  12.141  0.0818 -0.0515  0.0009
26983W        W42114   9.625  13.647   4.037  0.3050 -0.1060  0.2214
26984W        W42115   7.120  10.409   3.259 -0.2743 -0.1718 -0.1648
26985W        W42116  17.520   8.617   1.988  0.0590 -0.0317 -0.0603
26986W        W42117   8.259  11.931   1.828  0.0918  0.0925 -0.2109
26987W        W42118   7.758  12.040  16.010  0.2145 -0.0973 -0.4039
26988W        W42119  16.509   6.516  13.689 -0.1967 -0.0124 -0.2098
26989W        W42120  10.601   1.588  15.763  0.0852  0.2106 -0.1531
26990W        W42121   7.730  10.497   5.268 -0.2158  0.1663  0.4112
26991W        W42122   8.950  10.346   3.290 -0.2623 -0.0249  0.3089
26992W        W42123  16.180  14.105  13.713 -0.0768 -0.0098  0.0247
26993W        W42124  11.609  14.935   1.516 -0.0048  0.1680 -0.0655
26994W        W42125  12.959   3.886  14.229 -0.1608  0.0963  0.0201
26995W        W42126  16.804   4.675  16.751 -0.0072 -0.2237 -0.1985
26996W        W42127   1.070   2.814   0.716 -0.0599 -0.0336  0.2117
26997W        W42128   3.876  11.134   2.026 -0.0495 -0.0244 -0.2115
26998W        W42129  15.638  12.973  16.234  0.3090  0.1031  0.0485
26999W        W42130  15.810   4.766   0.529 -0.0986 -0.1649 -0.1432
27000W        W42131  11.472  15.186  11.538 -0.0972  0.2772 -0.0346
27001W        W42132  14.850   3.885  11.277  0.0292 -0.0631  0.0182
27002W        W42133  15.461   9.853   2.724 -0.2806 -0.1410 -0.2421
27003W        W42134   6.976   9.142   3.677  0.1255  0.2443  0.1719
27004W        W42135   5.974   3.153  11.002  0.2819  0.0364  0.0952
27005W        W42136   6.256   9.676   2.196  0.1461 -0.0799 -0.2080
27006W        W42137   2.933  13.726   0.775 -0.0185 -0.0966  0.0114
27007W        W42138  11.509  14.446  12.819  0.0363 -0.3013 -0.0661
27008W        W42139   0.214  17.255   3.105 -0.1694  0.0429  0.0754
27009W        W42140   2.985  11.315   2.267 -0.1467  0.5830 -0.0168
27010W        W42141  14.183   8.845  13.938 -0.1457 -0.1903  0.0107
27011W        W42142  14.942   3.110   3.558  0.0522  0.0335  0.1365
27012W        W42143  11.294   6.945   2.816 -0.1856  0.1869  0.1494
27013W        W42144   4.776   6.106  15.540 -0.2414 -0.1038  0.0746
27014W        W42145   7.097  14.558   3.458  0.1691 -0.0822 -0.3568
27015W        W42146   5.983  11.704  15.035 -0.1371  0.0768 -0.1209
27016W        W42147  13.210  13.204   0.579 -0.2417 -0.1120 -0.0150
27017W        W42148  10.334  13.129   0.411 -0.1211 -0.0375  0.1223
27018W        W42149  16.490  10.957   5.459 -0.0472  0.1826  0.0838
27019W        W42150  12.360  10.538  13.544  0.1059  0.1860 -0.2861
27020W        W42151  17.336   1.687  14.449  0.0825 -0.1966  0.0391
27021W        W42152   3.905   5.797   1.946 -0.1162 -0.0223 -0.0674
27022W        W42153   1.437   2.561   0.394 -0.3770 -0.0280  0.1461
27023W        W42154  16.119  14.194   0.965 -0.0928  0.1855  0.0217
27024W        W42155   7.008  10.734  13.911  0.0676  0.1859  0.0107
27025W        W42156   0.147  16.717   6.565 -0.0551 -0.1165 -0.1569
27026W        W42157  14.501   1.956   2.932 -0.0503 -0.0856 -0.3118
27027W        W42158  12.146   6.807   4.670 -0.2582  0.1720 -0.1809
27028W        W42159  16.219  12.788  15.900  0.0933 -0.1496 -0.1970
27029W        W42160  17.265  11.565  16.013 -0.1828 -0.0609 -0.1692
27030W        W42161  15.396   0.983   4.071 -0.0673  0.1030 -0.1908
27031W        W42162  11.127   4.976   6.318  0.0641 -0.0437  0.1147
27032W        W42163  14.411  17.764   2.583  0.3529  0.0292 -0.0984
27033W        W42164   2.415   5.077  14.013  0.0775 -0.1379  0.1944
27034W        W42165   9.625  11.415   4.498  0.2526  0.1293 -0.0227
27035W        W42166   7.311   5.458  12.719 -0.0009  0.0280 -0.0202
27036W        W42167   1.127  13.885  13.349 -0.1655  0.3112  0.2656
27037W        W42168   8.410  15.641  13.238 -0.2160 -0.1259  0.3692
27038W        W42169  11.843  17.520   1.045 -0.1456  0.0479 -0.3794
27039W        W42170  14.538  12.809  12.489 -0.0374 -0.0526  0.0309
27040W        W42171   8.181  14.792   0.818  0.0013 -0.0376  0.0392
27041W        W42172   7.989  16.049  10.311  0.1518 -0.0320 -0.3435
27042W        W42173   8.619   4.369  16.169 -0.1787  0.0339 -0.0404
27043W        W42174   2.934  12.790   6.350  0.0181  0.0973 -0.3165
27044W        W42175   1.501   3.973  15.425 -0.3769 -0.2179 -0.1225
27045W        W42176   5.796  10.447   3.164  0.0656  0.0743  0.0819
27046W        W42177   9.050  16.664  14.796  0.2081 -0.2186 -0.1142
27047W        W42178  11.748  12.184   1.684  0.0827  0.1873 -0.0856
27048W        W42179  16.008  12.227  12.660 -0.0561 -0.1798 -0.0135
27049W        W42180   3.287  11.679   4.081  0.1054  0.0726  0.0940
27050W        W42181   3.286  14.427  13.620  0.4386  0.0116  0.0662
27051W        W42182  11.036  17.751  12.443  0.0596  0.0121  0.0452
27052W        W42183   4.465   3.240  14.679  0.0795  0.1577  0.1815
27053W        W42184   7.808  15.790  15.152  0.1873  0.1319  0.0424
27054W        W42185  15.935   1.831  12.176  0.0539  0.1296  0.0630
27055W        W42186  11.026   3.076   3.338  0.0480 -0.2141  0.1415
27056W        W42187   4.933  12.058  15.583 -0.0588 -0.1538 -0.2670
27057W        W42188  17.744   3.815  12.783 -0.1062 -0.0696  0.1734
27058W        W42189  16.322  15.228   3.042  0.0900 -0.1681  0.1312
27059W        W42190   1.635  16.408  15.913 -0.0943  0.0199 -0.0744
27060W        W42191  14.453   0.415  13.732 -0.2917 -0.0738  0.1949
27061W        W42192   6.098  14.837   3.020  0.0261 -0.0266 -0.0285
27062W        W42193   5.819  14.359   2.138  0.2291 -0.1366  0.4255
27063W        W42194   9.869   1.692   4.650 -0.1887 -0.1733  0.1811
27064W        W42195   2.620   5.714  16.310  0.0075 -0.0319  0.0736
27065W        W42196   2.314  12.305  12.739  0.2117  0.0921 -0.0421
27066W        W42197  11.024   6.540  11.508 -0.0649  0.0975 -0.1113
27067W        W42198   6.679   4.754  12.561 -0.0070  0.0065 -0.3603
27068W        W42199   2.184   7.461  14.829 -0.0280 -0.0180  0.1081
27069W        W42200  13.399  17.849  13.102  0.2824 -0.2771 -0.0784
27070W        W42201   6.871  11.244   3.479 -0.0084 -0.1849 -0.1755
27071W        W42202  13.128   6.441   2.183  0.2418  0.0256  0.0255
27072W        W42203  16.403   1.950   4.146 -0.2660 -0.2097 -0.3270
27073W        W42204   0.297   8.488  12.665 -0.1712 -0.1448 -0.1224
27074W        W42205   3.517  15.110  15.649 -0.0698  0.0235 -0.2043
27075W        W42206   9.661   8.577  14.664 -0.0457 -0.0431  0.1706
27076W        W42207   1.669  14.982   4.620  0.2410  0.2525  0.0173
27077W        W42208   8.207  14.267   1.579 -0.0288 -0.4328 -0.0170
27078W        W42209   0.123  14.498   5.146  0.1361  0.0742  0.3557
27079W        W42210  10.507  10.743   4.125  0.0563 -0.1700 -0.4008
27080W        W42211   2.800  14.141   5.405 -0.1437  0.1848 -0.1047
27081W        W42212   7.793   2.399  15.052 -0.0363  0.1508 -0.1435
27082W        W42213  10.833  12.561   0.869 -0.2133  0.1804 -0.1070
27083W        W42214   9.394   3.740   3.948 -0.0495  0.0715  0.2298
27084W        W42215   9.504   6.645   3.418  0.3212  0.0667 -0.0043
27085W        W42216  12.283   5.369  11.945  0.1152  0.0504  0.4084
27086W        W42217  17.809   6.567  16.008  0.1430  0.1754  0.1323
27087W        W42218   6.389  15.000  11.674 -0.0901 -0.2023 -0.1491
27088W        W42219   5.531   4.601   1.519 -0.1318 -0.1039  0.1383
27089W        W42220  14.906   0.378  12.667  0.0934  0.1236 -0.1055
27090W        W42221   0.204  10.356  12.257 -0.3808 -0.1732 -0.0096
27091W        W42222  13.083  14.816   1.813  0.1274 -0.0273  0.5051
27092W        W42223  11.994   7.137   1.724 -0.3005 -0.0105 -0.1318
27093W        W42224   8.073  10.394   4.290 -0.0602  0.0668  0.0296
27094W        W42225  12.261  14.031  16.376 -0.0299 -0.2741  0.3728
27095W        W42226  13.282  17.553   4.079 -0.1303 -0.1788  0.0579
27096W        W42227   0.758   4.988   0.841 -0.1106 -0.0921 -0.2806
27097W        W42228   3.236  15.587  14.715  0.0345  0.0918  0.2467
27098W        W42229   3.839   9.373   2.149  0.1205  0.0283  0.1034
27099W        W42230   4.088   4.310   6.159  0.2126 -0.3764 -0.0858
27100W        W42231  14.978  11.458   0.597  0.4933 -0.2847  0.0049
27101W        W42232  14.700  10.144   2.050  0.2076  0.0376  0.0132
27102W        W42233  12.992   0.134  12.883  0.0318 -0.0296  0.0995
27103W        W42234   7.302  17.613  12.454  0.0276 -0.1329 -0.2122
27104W        W42235  10.314  10.848   5.837 -0.0223  0.2343  0.0699
27105W        W42236  10.115   8.460   1.197 -0.1449 -0.1043 -0.0720
27106W        W42237   5.858   7.787   4.678  0.5039  0.1633 -0.0242
27107W        W42238   5.377  12.902   0.533  0.2783  0.5669 -0.0975
27108W        W42239   9.750   4.997   1.769  0.1646  0.1720  0.2053
27109W        W42240  16.145  12.008   1.096  0.1455  0.0616  0.1625
27110W        W42241   1.063   8.051  16.110  0.2250  0.0552  0.1941
27111W        W42242  14.270  11.435   4.708 -0.0484 -0.0471 -0.1947
27112W        W42243   1.298   0.218  15.865  0.1618 -0.1298  0.1033
27113W        W42244  15.603  17.395  16.111 -0.1005 -0.2528  0.2000
27114W        W42245  15.669  13.026   2.212 -0.0534  0.0557 -0.1399
27115W        W42246   6.563  11.805  16.655 -0.0872  0.1598  0.1456
27116W        W42247  13.280  16.947  15.114 -0.3421  0.0697  0.2278
27117W        W42248  10.862  15.647   4.402 -0.3240 -0.0817  0.0511
27118W        W42249   4.490   7.620  13.652 -0.0637 -0.0734  0.1359
27119W        W42250   8.305   9.826   5.425 -0.0127  0.0819 -0.2406
27120W        W42251   1.379  17.737  12.558  0.0746  0.0737  0.0147
27121W        W42252  11.388  16.702  10.830  0.0762 -0.1258 -0.0751
27122W        W42253   9.828  10.350  11.532  0.3172 -0.0649  0.0197
27123W        W42254  14.886  13.392   4.855  0.0476  0.0655  0.3993
27124W        W42255   4.677   5.871   3.492  0.0549  0.3158 -0.1506
27125W        W42256  14.446  17.254  16.380  0.1133 -0.2662 -0.1961
27126W        W42257  10.156   1.519  14.551  0.0743 -0.2934  0.2749
27127W        W42258   2.052   6.809  14.259 -0.3051  0.1673  0.0125
27128W        W42259  13.188   6.407   1.687  0.0506  0.1087 -0.0163
27129W        W42260  15.876   0.532   2.382 -0.1237  0.0385  0.0493
27130W        W42261  10.409  14.204  16.085  0.2178  0.2451  0.1098
27131W        W42262  11.371  10.086  14.291 -0.0593  0.1642  0.2387
27132W        W42263  17.448  16.328   2.355  0.1781  0.3496 -0.2576
27133W        W42264  13.708   2.575   1.807  0.1726 -0.1535 -0.1832
27134W        W42265  11.193  17.628  16.273  0.1853  0.2072 -0.0586
27135W        W42266  16.120   8.594   4.469  0.0985 -0.1516  0.0472
27136W        W42267   4.000  12.626  11.094 -0.2330 -0.0113 -0.1987
27137W        W42268  14.260  15.547   5.654  0.0547 -0.0539 -0.2459
27138W        W42269  12.200  17.800  15.312 -0.0319 -0.0938  0.1107
27139W        W42270   9.432  14.362   4.193  0.0430 -0.0469  0.0976
27140W        W42271   4.970   4.691   2.294  0.1151  0.2727 -0.1117
27141W        W42272  10.788  11.357   2.828 -0.0347 -0.0398 -0.2856
27142W        W42273  13.757  12.213  16.329 -0.1870  0.5483 -0.0916
27143W        W42274   6.723  16.257  13.672  0.0245 -0.0495  0.1879
27144W        W42275  15.231  17.281  12.673 -0.2340 -0.2024  0.1022
27145W        W42276   8.721  10.308  11.607  0.1517 -0.1217 -0.0492
27146W        W42277  10.500   7.960   4.005  0.2548  0.0906  0.0566
27147W        W42278   7.650   1.933   4.047 -0.1332  0.0747  0.2469
27148W        W42279   5.172  14.721  15.918  0.2157 -0.2834 -0.2899
27149W        W42280   0.879   2.915  12.828  0.0711  0.0828  0.0263
27150W        W42281   5.922   5.198   3.255 -0.2289 -0.0816 -0.0282
27151W        W42282  16.244  12.992   2.489  0.0636  0.2823  0.3533
27152W        W42283  10.133   3.586   5.553  0.3560 -0.2392  0.3638
27153W        W42284  14.798  17.522  14.808  0.0851 -0.0831 -0.2289
27154W        W42285  14.075  15.097   0.835 -0.2212  0.4576 -0.3111
27155W        W42286   5.494   2.350   3.525  0.1692  0.0051 -0.1481
27156W        W42287   7.248   7.276   0.659 -0.0892 -0.1377  0.0152
27157W        W42288  13.951  10.542   1.768  0.2486  0.0330 -0.0829
27158W        W42289   5.259   7.275   4.231  0.0052  0.2578 -0.3130
27159W        W42290   3.961  15.279   5.093  0.1295  0.0345 -0.0158
27160W        W42291   8.392  10.978   2.999  0.0873  0.0935 -0.0553
27161W        W42292  17.830  15.446   3.174 -0.1128  0.1731 -0.0416
27162W        W42293   9.272   5.141  14.582  0.3228 -0.0121 -0.1900
27163W        W42294   5.128   3.133   1.353 -0.1331 -0.1043  0.2962
27164W        W42295  13.224   6.150  15.933  0.0558  0.1268  0.0600
27165W        W42296  15.668  17.805   5.204  0.0894  0.1058  0.0613
27166W        W42297   9.092   0.820   3.887 -0.3769  0.0237 -0.0617
27167W        W42298  10.909   4.207  14.546 -0.0869  0.2263 -0.1229
27168W        W42299  13.889   0.149   4.957  0.0857  0.2389  0.0841
27169W        W42300   2.209  14.092  16.610  0.0411  0.3150  0.1693
27170W        W42301  12.835   1.585  16.640  0.0722  0.2261 -0.0643
27171W        W42302   6.644   2.092   3.071  0.2820 -0.0068  0.2759
27172W        W42303  11.424   8.415  11.584  0.2194  0.1143 -0.2587
27173W        W42304   9.125   3.071   2.006  0.0162  0.5083 -0.1803
27174W        W42305   8.759  14.421   5.904  0.6328 -0.0533 -0.2085
27175W        W42306  16.070   2.972   1.465 -0.0174  0.0006  0.1658
27176W        W42307   6.163  17.074   3.653  0.0989  0.1243  0.1606
27177W        W42308   5.483  10.662  16.521 -0.1139 -0.1554 -0.0056
27178W        W42309   6.844   1.528  11.844 -0.0799 -0.1015  0.0264
27179W        W42310  13.957  11.539   6.160  0.0248 -0.2218  0.0739
27180W        W42311   9.230   8.550  11.867  0.1600  0.3191  0.1750
27181W        W42312   4.239   6.691  12.889 -0.0950 -0.3176 -0.5002
27182W        W42313  12.436  14.901  15.377  0.1662 -0.1913  0.0140
27183W        W42314  17.707  15.771   6.214 -0.0861  0.4088 -0.1813
27184W        W42315  12.344   6.860   5.254  0.0524 -0.0012 -0.1230
27185W        W42316   7.151   1.032   3.688 -0.1734  0.1723  0.2517
27186W        W42317  17.320   1.763   1.270 -0.0306  0.1711 -0.0746
27187W        W42318   3.250  14.302   5.565 -0.1263  0.0205  0.4010
27188W        W42319   5.689  16.999   2.592  0.1917  0.0457  0.2261
27189W        W42320   7.701   7.604  16.031  0.1680  0.0610  0.1074
27190W        W42321  16.504   4.381  13.015 -0.2716 -0.0966 -0.2036
27191W        W42322   6.355  14.012   4.461 -0.2179 -0.0512  0.0636
27192W        W42323   2.393  12.280  13.735  0.1494  0.0364 -0.2331
27193W        W42324  10.514  14.728  11.681  0.1112 -0.2626 -0.2764
27194W        W42325   1.277  10.641  12.835 -0.2601 -0.3194  0.2398
27195W        W42326   6.287  11.455   3.971 -0.1410 -0.1140  0.0685
27196W        W42327  17.726  17.773  14.269  0.0980  0.0931  0.2076
27197W        W42328  15.381   1.862   4.258  0.0618  0.1213  0.0600
27198W        W42329  14.150   9.285   4.230 -0.1468  0.3574  0.0803
27199W        W42330  10.669   0.285  14.045  0.0548 -0.2218 -0.2814
27200W        W42331   3.856   4.757   0.940  0.0513 -0.2706  0.0853
27201W        W42332  14.195   2.280   1.005 -0.2892  0.1151  0.2507
27202W        W42333  15.616  15.643  16.574 -0.0524 -0.3004  0.3232
27203W        W42334  13.825   3.638  16.153 -0.0160 -0.1912  0.1941
27204W        W42335   1.172  17.750   0.695  0.0309  0.0757 -0.2002
27205W        W42336   1.606   1.319   0.593  0.0619 -0.1851 -0.1444
27206W        W42337   3.031   6.766   1.441  0.4154  0.0921 -0.2415
27207W        W42338   1.936  13.083  11.144  0.0778  0.1544  0.0307
27208W        W42339  10.658  12.177   0.467 -0.1938  0.0615  0.2196
27209W        W42340  16.978   8.363  15.706  0.0423 -0.2041 -0.0561
27210W        W42341  13.408   9.707   5.189  0.1899  0.1534 -0.1028
27211W        W42342  13.313   9.471   4.733  0.2009 -0.2509  0.1948
27212W        W42343   1.170  10.704  15.504  0.1867  0.0245 -0.2098
27213W        W42344  14.416   6.431  16.690 -0.1672 -0.0318 -0.0506
27214W        W42345  10.246   6.710   5.169  0.0908  0.0177 -0.0713
27215W        W42346   0.199   8.513   5.385  0.3205  0.0174 -0.1067
27216W        W42347  12.620  11.183  14.940  0.0506 -0.5325 -0.0791
27217W        W42348   3.266  17.553   5.884  0.1877 -0.0113  0.1113
27218W        W42349   1.214   6.151  12.025 -0.1617  0.0344  0.0507
27219W        W42350  12.271   1.506   5.898 -0.2242 -0.1636  0.2582
27220W        W42351  12.051   8.620  12.297  0.0302  0.1068 -0.0632
27221W        W42352  16.321   5.711   3.840 -0.2493 -0.1103  0.0780
27222W        W42353  17.312  15.107   4.215 -0.2749  0.0321  0.2672
27223W        W42354  10.351   0.975   2.173 -0.3916  0.0095 -0.3649
27224W        W42355   6.612  10.829  12.525 -0.3455 -0.3800  0.1122
27225W        W42356   6.279   4.549  12.351  0.1338 -0.0083  0.1101
27226W        W42357  11.360  17.245   0.414  0.2723 -0.0739 -0.0899
27227W        W42358  13.820   7.304  11.345 -0.0847  0.1279 -0.1111
27228W        W42359  16.529   4.873  15.903 -0.0294 -0.0528  0.3614
27229W        W42360  12.683   4.774  15.523  0.2365  0.0620  0.0344
27230W        W42361  16.137  12.082  11.354  0.2655 -0.0832  0.2041
27231W        W42362   7.538   5.730  13.069  0.0427  0.0527 -0.2013
27232W        W42363   6.990   4.971  12.892  0.2448 -0.0332  0.1529
27233W        W42364   0.145  12.811  14.913 -0.1121  0.3018  0.0809
27234W        W42365   8.831   5.716   1.109 -0.0503 -0.1704 -0.1406
27235W        W42366  17.526  11.376   3.289 -0.1482 -0.0473 -0.0673
27236W        W42367  15.823   8.145  12.999  0.1429 -0.2758 -0.0362
27237W        W42368  12.893   6.145   3.451  0.0157  0.0619  0.1150
27238W        W42369  14.071   6.446  13.373 -0.0461  0.0340  0.0910
27239W        W42370  13.564  16.595   5.623  0.1394  0.2236  0.2621
27240W        W42371  11.492   8.427  13.075 -0.0180 -0.1578  0.2328
27241W        W42372   0.099   9.251  11.351 -0.0722 -0.0689  0.1817
27242W        W42373  12.806  14.966   2.242  0.1785 -0.2239  0.0691
27243W        W42374   5.207   7.521  16.277 -0.0620  0.4830  0.1787
27244W        W42375  11.669   9.016  16.507 -0.1015  0.2651  0.2716
27245W        W42376   5.560  16.984   3.860  0.3525  0.0560  0.1347
27246W        W42377   3.849   4.624  12.682 -0.3685  0.0632 -0.1000
27247W        W42378   6.906   7.321   3.632  0.0421 -0.2532  0.1480
27248W        W42379  16.075  12.289   4.896  0.2823 -0.0437 -0.2054
27249W        W42380   8.269  13.916  12.565 -0.1991 -0.3072 -0.2689
27250W        W42381   6.744  13.365   0.301  0.0812  0.4599  0.0845
27251W        W42382   2.689   1.363   2.961 -0.1578 -0.2366  0.0964
27252W        W42383   1.051   4.052   4.235  0.0156 -0.1873 -0.0516
27253W        W42384   4.426   5.324   4.890 -0.2115 -0.0437 -0.0987
27254W        W42385  13.345  11.156  12.431  0.0957 -0.2719 -0.2790
27255W        W42386   6.780   4.877   3.658 -0.1480 -0.0861 -0.0072
27256W        W42387   7.709  11.489   0.089 -0.1215  0.5478  0.0073
27257W        W42388  12.119   2.308  11.387  0.0888  0.4285 -0.4126
27258W        W42389   0.088   3.408  11.551 -0.1366  0.1377  0.0259
27259W        W42390   5.596   5.959  16.299 -0.2833  0.2006 -0.2868
27260W        W42391   8.889   1.723  16.530  0.0861  0.0407 -0.1216
27261W        W42392  10.347   5.184  15.566  0.2761 -0.0874 -0.1951
27262W        W42393  14.775   5.442  13.278 -0.0166  0.1406  0.3846
27263W        W42394  10.854  16.741  16.311  0.0830 -0.0327 -0.4604
27264W        W42395  15.635   0.792  11.386 -0.1032  0.1615 -0.2659
27265W        W42396   1.594   1.793  12.518 -0.0031 -0.4965  0.0515
27266W        W42397   8.632   5.967   2.087  0.4473 -0.2000  0.3708
27267W        W42398  13.180   8.358  15.472 -0.3113 -0.2567  0.0845
27268W        W42399   8.693   3.834  11.867 -0.1152 -0.0104  0.0066
27269W        W42400  17.151   3.637  14.182 -0.0945  0.0697  0.1395
27270W        W42401   3.144   9.615   6.413  0.0924 -0.0139  0.2705
27271W        W42402  17.023   9.470  11.752  0.4120 -0.2033 -0.0256
27272W        W42403   8.101   6.792  14.708 -0.2563  0.0889  0.0350
27273W        W42404   6.314  17.686   5.098 -0.3164 -0.0915  0.2527
27274W        W42405   0.842  11.417   1.384  0.3418  0.0753 -0.1219
27275W        W42406  17.200   4.026   3.239 -0.1050  0.1258  0.1872
27276W        W42407  10.352  11.763   2.505  0.3021  0.5934  0.2583
27277W        W42408  15.788   3.945   4.612 -0.1041 -0.1929  0.1311
27278W        W42409  13.078   0.974   1.423  0.1508 -0.0735 -0.0280
27279W        W42410   9.926   4.080   4.718 -0.1311  0.3057  0.2232
27280W        W42411  12.324  11.250  15.748 -0.0148 -0.1188  0.1203
27281W        W42412  12.804  11.286  15.493 -0.1538 -0.2256  0.0477
27282W        W42413  14.412   2.039   1.489 -0.2645  0.0139  0.2289
27283W        W42414  17.269  11.892   0.167 -0.0152  0.0090  0.0268
27284W        W42415  13.045   4.824  11.709  0.1344 -0.1402 -0.5064
27285W        W42416   0.517   2.590  15.480 -0.1320  0.2462 -0.0364
27286W        W42417   2.494   4.131   1.909 -0.0117  0.0144  0.1293
27287W        W42418  16.008  15.820  12.109 -0.2586 -0.0584  0.0710
27288W        W42419   6.095  12.406  12.147  0.1342  0.1405  0.1092
27289W        W42420  14.341   2.547  12.138  0.1733  0.3425 -0.0116
27290W        W42421  12.423   7.305   2.062 -0.0981  0.0126 -0.1236
27291W        W42422   4.160   7.299   2.507 -0.0150 -0.1360  0.1275
27292W        W42423   4.358   2.294   1.098  0.0332 -0.3246 -0.1327
27293W        W42424   9.399  11.138   0.985 -0.0199  0.1973 -0.2381
27294W        W42425  14.679   5.355   3.170  0.2454 -0.1109 -0.1578
27295W        W42426  13.451   5.825  16.280  0.2125 -0.2732  0.1226
27296W        W42427   8.679   6.122   2.611 -0.1539  0.3774 -0.3344
27297W        W42428  14.825   9.710  13.244 -0.1190 -0.2774  0.1915
27298W        W42429   9.142   4.283   0.672  0.0955  0.1559  0.0854
27299W        W42430   8.585   3.655   0.763 -0.2791  0.0407 -0.0313
27300W        W42431  17.181  11.656   5.736 -0.2394  0.2458  0.0075
27301W        W42432  11.067   8.052  15.700 -0.1067  0.0878 -0.0304
27302W        W42433  12.134   0.972   0.209 -0.2359  0.0309 -0.2299
27303W        W42434   2.212   5.527  12.534 -0.0459 -0.0480  0.0823
27304W        W42435  16.430   7.190  13.294 -0.1650 -0.3047 -0.0155
27305W        W42436   2.543  16.559   4.459 -0.2689 -0.1809  0.5055
27306W        W42437  11.361   2.193  12.693 -0.0338  0.0775 -0.0297
27307W        W42438  12.950   6.003   2.065  0.0891 -0.3338 -0.0539
27308W        W42439   4.700  14.591  12.657 -0.0336 -0.0504 -0.1932
27309W        W42440   2.748   3.339  15.493 -0.0042 -0.0603  0.2315
27310W        W42441   6.415   6.144  12.795 -0.0303 -0.0499 -0.0835
27311W        W42442   5.620   0.163   0.165 -0.1659  0.1011  0.1585
27312W        W42443   2.042  12.792   1.906 -0.0345 -0.2122 -0.0651
27313W        W42444  17.410  12.554   4.355 -0.1448 -0.0873  0.1848
27314W        W42445   9.036  16.204  11.983 -0.0721  0.1575  0.0513
27315W        W42446   7.589  12.628  12.861 -0.1012  0.0561 -0.3077
27316W        W42447   4.152  12.884   1.135  0.1263 -0.0426  0.1155
27317W        W42448  17.434   6.993  16.775  0.1581  0.1943 -0.0843
27318W        W42449  17.616   9.912   4.370  0.1671  0.1143 -0.0200
27319W        W42450  11.991   9.767  16.687 -0.3290 -0.0572 -0.0067
27320W        W42451   7.321   1.469  15.756 -0.3241  0.0058  0.0979
27321W        W42452   1.989  16.649  15.606 -0.2608  0.0488  0.0489
27322W        W42453   4.549   2.610   3.433 -0.0980 -0.1648  0.2151
27323W        W42454   6.960   6.889  12.528 -0.1012 -0.1433  0.1715
27324W        W42455   8.067  17.440  15.159  0.0155 -0.6634  0.2485
27325W        W42456   1.322   9.997  15.184  0.1654  0.0759 -0.0515
27326W        W42457   8.794  12.877  16.050  0.0977  0.0843  0.3177
27327W        W42458  13.687  14.200  10.798 -0.2000 -0.4180 -0.1689
27328W        W42459  14.297  15.958   5.375 -0.1214 -0.1795  0.3015
27329W        W42460   9.804   6.403  16.351  0.2493  0.1141 -0.3323
27330W        W42461   1.550   6.604   5.272 -0.0419 -0.1145 -0.0825
27331W        W42462  12.157   8.630   0.410 -0.0074 -0.2731 -0.2972
27332W        W42463   4.686  17.516  11.964  0.3930  0.0717  0.1324
27333W        W42464  15.469  16.209  14.297  0.0369  0.0080 -0.1852
27334W        W42465  10.858   9.841   4.822  0.3471 -0.1637 -0.1223
27335W        W42466  17.634   7.730  16.143 -0.1656  0.2949  0.0324
27336W        W42467  12.605  11.779  13.000  0.0829  0.0116  0.0840
27337W        W42468  15.730   4.748  13.694 -0.0837 -0.1617 -0.1988
27338W        W42469   0.539   0.035   3.364  0.2087  0.0884 -0.0870
27339W        W42470   4.537   5.802   4.239 -0.0867  0.5391  0.0261
27340W        W42471  14.636  17.098  15.089 -0.1992 -0.0915  0.1223
27341W        W42472   0.216   2.608  15.930  0.3027  0.2139 -0.0368
27342W        W42473   3.292   9.300  13.763 -0.0223 -0.0660 -0.2521
27343W        W42474  15.181   1.694   2.003  0.3608  0.1582 -0.0683
27344W        W42475  16.752   0.148  14.625  0.2742  0.1508 -0.2555
27345W        W42476   8.355   5.934  11.314  0.1757 -0.0919  0.0156
27346W        W42477  11.670  13.448   1.071  0.0126 -0.1112 -0.0934
27347W        W42478   1.027  12.120   5.645 -0.0590 -0.2447 -0.2281
27348W        W42479   4.962  14.571   5.556 -0.0074 -0.0836  0.1583
27349W        W42480   8.119  11.018   3.419 -0.1386 -0.0632 -0.0869
27350W        W42481   6.775  10.952   6.489 -0.3311  0.0036 -0.2219
27351W        W42482   4.511  12.718  16.379  0.1184 -0.1182 -0.0051
27352W        W42483   8.662   0.986   0.132  0.1145  0.0807 -0.1948
27353W        W42484  15.234  15.362   2.040  0.1092  0.1036  0.0988
27354W        W42485   8.903  14.497  13.376 -0.0118 -0.0703 -0.0205
27355W        W42486   2.728  17.206   0.979 -0.1087 -0.1211 -0.1162
27356W        W42487  13.053  12.013   4.984 -0.1128 -0.0898 -0.2029
27357W        W42488  16.230   3.236  12.382 -0.0017  0.1918 -0.2817
27358W        W42489  17.125  12.351  11.952  0.0343 -0.2846  0.0833
27359W        W42490  14.102   0.905   4.446  0.1796 -0.0171 -0.1139
27360W        W42491   0.859   6.403   1.345  0.0250  0.2008  0.0803
27361W        W42492   2.996  12.239  11.864  0.2790 -0.1381 -0.1105
27362W        W42493   1.790   4.895   3.451  0.1206  0.1005 -0.0512
27363W        W42494   2.486   1.914  15.703  0.0863 -0.0416 -0.0546
27364W        W42495   5.156   1.351   0.340 -0.1181 -0.3056 -0.0678
27365W        W42496  15.757   7.942   4.349  0.1610  0.2246 -0.1679
27366W        W42497  13.234   9.391  13.868  0.0448  0.0162  0.1484
27367W        W42498   5.987  10.501   3.705 -0.1470  0.0699  0.0707
27368W        W42499  14.915  10.182   0.704 -0.0524  0.2591 -0.3874
27369W        W42500   2.340   6.218   4.193  0.4161  0.1771  0.0692
27370W        W42501   1.157   1.567  12.526  0.3157 -0.1876 -0.1542
27371W        W42502  10.479  15.864  15.228  0.0702  0.1525 -0.2442
27372W        W42503  11.859  13.255   5.282  0.0250 -0.2036 -0.0703
27373W        W42504   4.078  11.563   0.287  0.1654  0.0467 -0.0817
27374W        W42505   6.753  14.152  15.519 -0.0461 -0.1014 -0.1286
27375W        W42506   8.267  11.004   4.901 -0.2091 -0.2834  0.0748
27376W        W42507  10.569   1.717  11.917  0.0399  0.0324 -0.0644
27377W        W42508  17.666  12.059  15.179 -0.0013  0.0556  0.0477
27378W        W42509   0.471   7.481   1.641  0.1309  0.0097  0.0727
27379W        W42510   1.096  13.821   1.439  0.1091  0.0852 -0.1670
27380W        W42511   8.841  16.178  14.610  0.0395  0.1720 -0.0439
27381W        W42512  14.040   0.093   0.771 -0.2466  0.1344  0.1085
27382W        W42513  16.930   2.182   1.142 -0.2314  0.1742 -0.0910
27383W        W42514  14.641  11.043  15.656 -0.0128  0.2644 -0.0020
27384W        W42515  12.811   6.859  11.980  0.0306 -0.1242  0.0043
27385W        W42516  16.776  17.414   5.330  0.1496 -0.0017 -0.0607
27386W        W42517  15.038  16.032  11.504 -0.0005  0.1382  0.0859
27387W        W42518  12.687   9.273  12.586 -0.2730  0.1923 -0.0602
27388W        W42519   1.161  10.339  12.080 -0.0279  0.4778  0.4977
27389W        W42520  14.474   5.822   3.248 -0.2828  0.0468 -0.0847
27390W        W42521  17.292   2.036  15.456 -0.1853 -0.1978 -0.0780
27391W        W42522   1.004   3.472  14.716 -0.0671  0.0862 -0.0138
27392W        W42523  12.861   4.084  12.192 -0.2583  0.0468  0.0519
27393W        W42524   7.808  16.444   4.201  0.2850  0.2759 -0.0130
27394W        W42525   2.558  12.617   0.505 -0.0829  0.0151  0.1395
27395W        W42526   8.631   6.247   3.136 -0.2930  0.0097 -0.3007
27396W        W42527  11.312   0.206  11.136 -0.1273  0.2588  0.2137
27397W        W42528  12.322  15.075  11.841  0.0861 -0.1598 -0.1885
27398W        W42529  17.418   3.540   3.952 -0.4675 -0.1848  0.0111
27399W        W42530   1.104  15.892   3.311  0.3826  0.0544  0.0328
27400W        W42531  15.686   2.166   2.491 -0.0034  0.0261 -0.1135
27401W        W42532   3.524   6.860   5.753  0.1128  0.0688 -0.1025
27402W        W42533  10.775  14.637   0.469  0.0896 -0.1767  0.2317
27403W        W42534  10.837  12.046   6.305 -0.1326  0.3094  0.0916
27404W        W42535   1.281   0.871  15.100  0.1138 -0.0890 -0.0626
27405W        W42536   2.084  14.064   4.225  0.0626  0.1946  0.1616
27406W        W42537   4.079   5.802  16.265 -0.1283  0.0977  0.0209
27407W        W42538   9.600   8.474  12.874 -0.1677  0.2015  0.1592
27408W        W42539  12.877   8.444   2.706 -0.1439 -0.0130 -0.1442
27409W        W42540   8.824  14.078   3.087  0.1321  0.1313  0.2826
27410W        W42541   6.666  12.203   2.833 -0.0335  0.2149 -0.0588
27411W        W42542  16.337   8.702   3.965 -0.0518 -0.0754 -0.0355
27412W        W42543  12.824   5.667   4.297  0.0477  0.1952 -0.0055
27413W        W42544  16.642   6.228   4.625 -0.0749 -0.4324  0.0703
27414W        W42545  16.218   5.397  10.720 -0.3245 -0.0143  0.0743
27415W        W42546   3.541  16.431   3.065  0.0759  0.0188  0.0701
27416W        W42547  12.520   6.396   5.378  0.1514  0.0086 -0.0157
27417W        W42548  17.364  12.122   5.597  0.1130  0.0114  0.1946
27418W        W42549   4.949   6.722   4.652 -0.2507  0.0537  0.0425
27419W        W42550   1.499  17.707   0.320 -0.0184 -0.0699  0.1065
27420W        W42551  13.859  14.138  16.214 -0.1592 -0.0728  0.0273
27421W        W42552  16.298   2.913   0.051 -0.1611  0.0429 -0.0857
27422W        W42553   4.719  13.167   3.464 -0.0915  0.1727  0.1031
27423W        W42554  15.136   8.962   3.602 -0.1478 -0.1854 -0.3495
27424W        W42555  12.253   1.394   4.910  0.1800 -0.2220 -0.0833
27425W        W42556  14.671   0.657   5.123  0.1209 -0.1001 -0.0654
27426W        W42557  12.024  16.543   0.985  0.0552 -0.2170  0.1755
27427W        W42558   0.893  15.204  14.371 -0.2069  0.1296 -0.1589
27428W        W42559   2.405   4.731   3.043 -0.1719 -0.0174  0.0118
27429W        W42560   8.325   1.010  12.807 -0.0261  0.0750 -0.0906
27430W        W42561   8.834   3.127   1.593  0.2679 -0.0433  0.3497
27431W        W42562  14.575   8.425   2.795 -0.1376 -0.0098 -0.1551
27432W        W42563  10.514  11.195  15.288  0.3358  0.2636  0.0898
27433W        W42564   9.993   9.471  11.646 -0.1036  0.0323 -0.0386
27434W        W42565   2.584   0.527   0.763 -0.0753  0.3678 -0.0161
27435W        W42566  10.828   9.529  15.395  0.3170 -0.2452 -0.0605
27436W        W42567  16.955  17.881   5.296 -0.1087  0.0478 -0.3521
27437W        W42568  13.619   4.523   2.642 -0.0124 -0.0995 -0.1507
27438W        W42569  12.667   1.127  16.691 -0.2345 -0.1091 -0.2400
27439W        W42570  16.677  16.720  13.216  0.3005  0.0045  0.0070
27440W        W42571   8.970   9.774  15.533  0.3502 -0.0073 -0.2295
27441W        W42572   1.688   7.554   1.841  0.2478  0.1199 -0.0260
27442W        W42573   3.100   2.088   3.363 -0.0304  0.4208 -0.0666
27443W        W42574   5.412   2.554  11.323  0.0508  0.2847  0.0640
27444W        W42575   0.511   5.379  11.732  0.0579  0.1438 -0.0932
27445W        W42576  16.354   7.944  12.762  0.1130 -0.1635 -0.0912
27446W        W42577   7.032   0.004  13.606  0.1132 -0.2497  0.2296
27447W        W42578   1.853   3.063  15.267  0.1477  0.1357  0.2958
27448W        W42579   4.666  14.704   3.478  0.1862  0.0355  0.1144
27449W        W42580   4.499  17.037   1.204 -0.0161  0.2385 -0.2596
27450W        W42581   4.765  14.044   0.939  0.0236  0.2905  0.3251
27451W        W42582  14.792  10.662   1.012  0.1223 -0.3003  0.0891
27452W        W42583  16.183  10.666  15.535  0.2581  0.0715 -0.1635
27453W        W42584  15.278   0.968   2.873 -0.1740 -0.2554  0.1407
27454W        W42585  17.071   1.304  15.026  0.2178 -0.1417  0.0516
27455W        W42586  10.689   6.554   5.663  0.1886  0.1994  0.0700
27456W        W42587  12.860   7.000  12.523  0.3279 -0.1339  0.4439
27457W        W42588  16.336   8.680  16.774 -0.0173 -0.1083  0.2445
27458W        W42589  10.614   0.177   2.265 -0.2307  0.0824 -0.1393
27459W        W42590   4.495   2.727   4.662  0.3500 -0.1360 -0.1747
27460W        W42591  15.134  14.236  14.346  0.2679 -0.1924  0.1445
27461W        W42592  14.373   5.909  12.328  0.1649 -0.0433  0.0204
27462W        W42593  16.556   5.294  15.593  0.0413  0.1880  0.2477
27463W        W42594  12.177  13.742  14.958 -0.1440 -0.2207  0.1638
27464W        W42595  15.171   4.620   2.805  0.0194  0.2113 -0.2299
27465W        W42596   4.432  11.004   5.634 -0.0799  0.0973  0.0992
27466W        W42597  14.708  13.397  15.263  0.0926 -0.1443  0.0396
27467W        W42598   9.508   3.120  11.215  0.1085 -0.2041  0.1493
27468W        W42599  16.638  16.606  14.094 -0.2288  0.1205 -0.3490
27469W        W42600   4.409  10.708   3.704 -0.1417  0.0500  0.0638
27470W        W42601   1.104   2.643   4.345  0.1564  0.0149 -0.1177
27471W        W42602   1.580   7.396  12.774  0.0585 -0.2583 -0.2557
27472W        W42603   3.200  13.977  15.119 -0.1833 -0.1196  0.0597
27473W        W42604  16.813   8.394   4.859  0.2581  0.0715  0.0895
27474W        W42605   7.724   0.586   1.860  0.4150  0.3375  0.0246
27475W        W42606   2.236  17.874   4.694  0.0246  0.3285  0.1018
27476W        W42607   6.351   8.647  13.823 -0.5163  0.1103 -0.0613
27477W        W42608   2.923   8.302  13.552  0.0290  0.1379  0.0802
27478W        W42609   2.978   5.281   4.999 -0.1284 -0.0417 -0.2061
27479W        W42610  17.249   0.374  12.951 -0.3169 -0.0511 -0.5103
27480W        W42611  14.316  12.053   1.393 -0.0900  0.1471 -0.0911
27481W        W42612   2.405   4.263  13.214  0.2661  0.0392  0.1565
27482W        W42613   4.119  10.397   0.878 -0.0097 -0.0689 -0.1973
27483W        W42614   5.515  16.973   5.886  0.2335 -0.0620 -0.2165
27484W        W42615  10.283   5.701   4.177  0.3983  0.0158 -0.1960
27485W        W42616   9.692   9.236   4.337  0.2142  0.3670  0.0695
27486W        W42617  16.262   7.755   4.360  0.3252 -0.0489 -0.1716
27487W        W42618  14.695  12.352  16.725  0.1108  0.3213 -0.3788
27488W        W42619   9.510  10.036   4.766 -0.0699  0.2323  0.3302
27489W        W42620   1.956   8.430   0.830  0.3329  0.1286  0.2981
27490W        W42621  10.209   2.732   3.144 -0.1607  0.2650  0.0294
27491W        W42622   1.980   2.079  14.786 -0.1935 -0.0583 -0.2406
27492W        W42623  10.881   2.373   3.701  0.1576  0.4715 -0.1752
27493W        W42624   9.699   3.817   2.224 -0.1287 -0.1247 -0.1075
27494W        W42625  11.950   1.212  12.762  0.0811 -0.1161  0.1864
27495W        W42626   5.528  15.886   4.729  0.0967 -0.1917 -0.0428
27496W        W42627  15.222   6.904  15.761  0.0450  0.0201  0.1616
27497W        W42628  13.963   6.302   5.378 -0.1010  0.0763 -0.1205
27498W        W42629   7.676   1.244  13.417  0.0332 -0.0721  0.0749
27499W        W42630  15.300  12.221  10.689  0.2354  0.0222 -0.1578
27500W        W42631   8.820   4.125   1.448  0.1800 -0.0170 -0.2621
27501W        W42632   0.778   8.476  15.446 -0.4577  0.0607 -0.2309
27502W        W42633   8.845  11.563   4.246  0.0669 -0.1183 -0.3927
27503W        W42634   8.216  12.911   2.442 -0.2519  0.0394  0.0103
27504W        W42635   4.378   1.401   5.601  0.2519 -0.1969 -0.0032
27505W        W42636  15.030  17.653   3.494 -0.3089  0.2361  0.0850
27506W        W42637  10.326   8.911  13.406 -0.1009  0.1445 -0.1331
27507W        W42638  16.526  11.286   1.379  0.2196  0.0570  0.0332
27508W        W42639  11.221  12.754  15.473  0.3906  0.0039 -0.1695
27509W        W42640  10.965   5.162  12.365  0.0145  0.0187 -0.0245
27510W        W42641   5.689  14.868  13.671  0.0413  0.2777  0.0625
27511W        W42642  13.890   5.029  14.242 -0.0219  0.0032  0.1108
27512W        W42643   1.981   1.777   2.436  0.0251  0.3623 -0.1750
27513W        W42644   0.969  12.786  13.131 -0.0978 -0.0600 -0.0568
27514W        W42645  15.563  15.942   0.539 -0.0968 -0.0911  0.2281
27515W        W42646   0.464   8.451   1.030  0.0025 -0.2655 -0.1196
27516W        W42647   9.202   7.027  15.740  0.0491 -0.4061 -0.0987
27517W        W42648  13.432   9.153   3.133 -0.2362  0.0089 -0.0462
27518W        W42649   5.228  15.278  14.344 -0.0818  0.2539  0.1386
27519W        W42650  16.885   4.865  15.553 -0.1020  0.1693  0.1317
27520W        W42651  12.028  14.361   0.907  0.2963  0.2749  0.2571
27521W        W42652   0.711   7.750   5.147 -0.0990 -0.3049  0.1764
27522W        W42653   0.464   9.332  15.229 -0.1058 -0.1936  0.1932
27523W        W42654  10.370   0.394   0.971  0.0526  0.0503 -0.1226
27524W        W42655   4.414  10.340  12.965 -0.0939  0.1717 -0.0823
27525W        W42656   2.848   0.046   4.179  0.2917 -0.1972 -0.0977
27526W        W42657   5.006   6.495   1.200 -0.0350 -0.1109 -0.0490
27527W        W42658   2.844   5.072   5.583  0.1778  0.0702 -0.0502
27528W        W42659   1.134  14.459  14.574 -0.1989  0.0026  0.1584
27529W        W42660  12.488   0.300   4.516 -0.0436 -0.4351 -0.0579
27530W        W42661   8.100   0.860   4.770  0.0827  0.1544 -0.0351
27531W        W42662  13.714   7.540  14.163 -0.0518  0.0580  0.0489
27532W        W42663  17.026  11.141  11.304  0.2350  0.1382 -0.1091
27533W        W42664   4.229   5.380   1.408 -0.1495 -0.1815  0.1739
27534W        W42665  12.749   0.481   4.066 -0.1476  0.0537 -0.0007
27535W        W42666  10.318  14.139  12.600 -0.1150  0.2821  0.0491
27536W        W42667  11.094  10.784  15.837  0.1459 -0.0266  0.0064
27537W        W42668   2.693  15.903  13.958  0.1329 -0.2066 -0.0103
27538W        W42669  17.189  16.261   5.561 -0.1881 -0.0292  0.1820
27539W        W42670   4.181   1.467  14.958 -0.0549 -0.1215  0.0963
27540W        W42671   3.291  10.380  11.831  0.2559  0.3734 -0.0227
27541W        W42672   5.926  12.138  13.505  0.2682  0.2010  0.2730
27542W        W42673  15.627  17.801  11.609  0.0582 -0.2304  0.1300
27543W        W42674   0.479   4.041  15.761  0.0728 -0.1181  0.0325
27544W        W42675   6.774   7.916   0.792  0.2093 -0.3338 -0.1781
27545W        W42676   6.384  14.338   0.378  0.5849 -0.0783  0.1558
27546W        W42677   5.442  14.444  12.991 -0.0825  0.1671 -0.0649
27547W        W42678  16.358   4.649   5.906 -0.1198  0.0291  0.0358
27548W        W42679  17.583   7.878   0.153 -0.0945 -0.0412  0.0041
27549W        W42680  17.403   6.946   3.029  0.3444 -0.0350  0.0829
27550W        W42681   6.645   8.118  14.911 -0.2770 -0.0902 -0.1506
27551W        W42682  15.601   6.343  11.198  0.0980  0.2348  0.0499
27552W        W42683  10.021   5.488  12.661 -0.2614 -0.0692  0.2472
27553W        W42684   5.174   8.445   4.236  0.1929 -0.3186  0.1461
27554W        W42685  15.556  17.063  13.263  0.3581  0.2220  0.5386
27555W        W42686   0.062  16.899   1.699  0.1697 -0.1681 -0.1157
27556W        W42687   4.342   2.837  16.666  0.0232  0.2961 -0.1506
27557W        W42688   5.380  15.217  11.939 -0.0373 -0.0996  0.3331
27558W        W42689  16.343  16.197   6.401 -0.2776 -0.1271  0.0978
27559W        W42690   0.414  13.181  16.144  0.2386 -0.0327 -0.2201
27560W        W42691   5.872   6.440   1.562 -0.1231  0.0600  0.1366
27561W        W42692   6.198  14.286  13.061 -0.0388 -0.2142  0.3556
27562W        W42693   5.342   6.350  16.510 -0.0096 -0.2126  0.0065
27563W        W42694   5.424  14.499  16.743 -0.0887 -0.0193  0.1177
27564W        W42695  12.088  16.070   2.631 -0.1107 -0.0568 -0.0064
27565W        W42696  17.690   0.923  15.850 -0.1218 -0.2993 -0.4125
27566W        W42697  13.271   6.380   5.768  0.0418 -0.0770 -0.2724
27567W        W42698   3.238   7.289   4.332 -0.3053 -0.2062  0.1287
27568W        W42699  15.320   6.598  10.382  0.1932 -0.3859 -0.1721
27569W        W42700  14.236   6.662  12.993  0.2662 -0.1375 -0.3213
27570W        W42701   4.644  12.983  12.457 -0.1789  0.2078  0.2009
27571W        W42702  15.031   8.451  12.418 -0.2071  0.1910 -0.0506
27572W        W42703   7.848  13.264   0.634  0.1133  0.1300  0.1010
27573W        W42704  14.240   2.133  13.402 -0.1445 -0.2833 -0.1655
27574W        W42705  14.935  14.118  16.436 -0.0480 -0.0797  0.0262
27575W        W42706  17.670   6.936   1.197 -0.0482  0.1053 -0.3176
27576W        W42707  10.058   0.202   4.529  0.0039  0.4383 -0.3341
27577W        W42708   2.348  14.984   5.631 -0.0571  0.1176  0.0631
27578W        W42709   1.197  10.070   2.407 -0.1967  0.0755 -0.0483
27579W        W42710  14.533   8.313   2.194  0.0758  0.1060  0.0491
27580W        W42711  15.279  17.097  14.076  0.4745 -0.0108  0.0800
27581W        W42712   9.423  16.915   2.745 -0.3162 -0.1210  0.0934
27582W        W42713  11.681   7.045  15.041 -0.1110 -0.0907 -0.2147
27583W        W42714  13.436  16.003  13.489  0.1611  0.1895 -0.2453
27584W        W42715   3.076  12.479   2.224  0.0333 -0.2404 -0.2374
27585W        W42716   6.440  12.776   6.138  0.0971 -0.2240 -0.0995
27586W        W42717   6.753   6.662  13.766  0.3694  0.0180  0.0709
27587W        W42718   8.605   5.214   3.846  0.2554  0.0634  0.0168
27588W        W42719   9.225  13.151   3.856 -0.3327  0.2306  0.0022
27589W        W42720   1.380   1.164   0.123  0.0521  0.0782  0.1868
27590W        W42721   2.367  16.002   1.535 -0.2402  0.0092 -0.0038
27591W        W42722   2.314   8.994  16.066  0.0801  0.1659 -0.1185
27592W        W42723   5.787  13.063  15.020 -0.1570  0.1557  0.1572
27593W        W42724   7.806   8.055   1.555  0.2560 -0.0580  0.0590
27594W        W42725   6.571   2.335  13.413 -0.0307  0.2712  0.1436
27595W        W42726  11.391  12.270  15.961 -0.0426 -0.0748 -0.2817
27596W        W42727  11.956  15.586  15.149  0.2741 -0.1060  0.0186
27597W        W42728   3.169   0.150  15.408  0.0720  0.1558  0.1300
27598W        W42729   1.925   8.639   2.889 -0.1415  0.0562 -0.1092
27599W        W42730   2.272  11.129  15.921  0.1781 -0.0539 -0.1858
27600W        W42731   5.286   8.377  16.537  0.1756 -0.0791  0.1753
27601W        W42732  14.955   4.405   5.056  0.2795 -0.1268  0.0612
27602W        W42733  15.521   7.176  12.110  0.1600 -0.0130 -0.0664
27603W        W42734  12.025  13.744  12.735 -0.0929  0.1648 -0.1566
27604W        W42735   3.706   6.785   1.639 -0.2153 -0.0037 -0.2288
27605W        W42736   4.969  15.177  13.257 -0.2843  0.1227 -0.1070
27606W        W42737   5.541  16.398  13.736 -0.1167  0.0020  0.0692
27607W        W42738   2.583  15.258   3.616  0.0657  0.1298 -0.0639
27608W        W42739   2.010   4.670  14.391  0.1096 -0.2356 -0.0698
27609W        W42740  16.959  14.792  13.430 -0.1002 -0.1029  0.0342
27610W        W42741  10.709  13.208   4.429 -0.0630  0.0351 -0.0563
27611W        W42742  14.959  12.079  12.717  0.4574 -0.2375 -0.1110
27612W        W42743   2.133  15.972  13.718 -0.0398 -0.1761  0.2494
27613W        W42744   7.532   0.778  11.645  0.0067  0.0649  0.1349
27614W        W42745  15.717   6.532   1.396 -0.1559  0.1789 -0.1126
27615W        W42746   2.768   4.190   0.862 -0.1241  0.0882 -0.0359
27616W        W42747  14.495   3.943   4.224  0.3746 -0.2171 -0.0632
27617W        W42748  13.620   4.315   2.088  0.0403 -0.1186  0.0199
27618W        W42749   0.509   5.203  15.183 -0.1935  0.0374  0.5072
27619W        W42750  12.446   1.672  13.842 -0.0486 -0.0386  0.0152
27620W        W42751  12.222  15.219   1.500 -0.3074  0.0606 -0.1437
27621W        W42752   8.732   1.545   3.259  0.1034  0.0535 -0.1441
27622W        W42753  11.200  10.571  14.454  0.2911 -0.0715  0.2143
27623W        W42754  14.436  11.160   1.896 -0.2466  0.0947 -0.0973
27624W        W42755   9.599  12.943   2.373  0.1390  0.0448 -0.2359
27625W        W42756  12.829  10.394  12.139 -0.0276 -0.2511  0.0732
27626W        W42757  17.141   4.298   2.145 -0.1552  0.0578  0.1768
27627W        W42758  11.534   2.772  14.789 -0.0260 -0.1755 -0.3111
27628W        W42759   0.277  11.126   2.578  0.1362  0.0406 -0.0732
27629W        W42760   3.470   6.108  11.835  0.0325  0.0063  0.0577
27630W        W42761  10.289   7.785   5.104 -0.2153 -0.0936  0.2461
27631W        W42762   0.182   3.628   2.993 -0.2932 -0.3050 -0.0165
27632W        W42763   4.594   3.310  10.585  0.0255 -0.2144  0.0015
27633W        W42764   7.670   4.898  14.998  0.1928  0.3507  0.0756
27634W        W42765   4.147   9.379   2.544 -0.0020  0.3087 -0.0859
27635W        W42766   0.292  14.746  14.724  0.1219 -0.2676 -0.0780
27636W        W42767   2.539   1.621  13.385  0.1489 -0.1290  0.1009
27637W        W42768   8.488   2.151  16.023 -0.0107 -0.1053  0.1671
27638W        W42769  17.135   8.047   1.494 -0.3021  0.0967  0.1395
27639W        W42770  12.907  11.221  15.986  0.0665  0.0716  0.0123
27640W        W42771   7.724  17.024  15.291 -0.1439  0.1157  0.2666
27641W        W42772  17.790   2.049   1.276 -0.1171 -0.3295  0.5106
27642W        W42773  16.113   8.657   3.010 -0.1273  0.0332 -0.1640
27643W        W42774   0.906  10.741   4.266 -0.0382  0.0309  0.0491
27644W        W42775   5.829   4.821  11.242 -0.0133 -0.0648  0.2667
27645W        W42776   0.932   8.863  14.066 -0.1305 -0.1813  0.2190
27646W        W42777   4.315   7.579   2.920  0.1515  0.0560  0.0617
27647W        W42778   0.674   5.465   4.654  0.1435 -0.0150  0.0438
27648W        W42779   6.833   8.897   4.133 -0.0195  0.1009 -0.1163
27649W        W42780  17.577   2.059  13.128  0.1710  0.0554 -0.0859
27650W        W42781   0.933  15.743   5.080 -0.0347 -0.0261 -0.1271
27651W        W42782   7.167   3.990   4.715 -0.2401 -0.2282  0.0774
27652W        W42783   3.038   3.373  12.397 -0.0915 -0.0769 -0.0742
27653W        W42784   2.167   2.882   4.933  0.4771  0.0494 -0.1973
27654W        W42785   4.657  15.548  12.359  0.0884 -0.0375  0.2164
27655W        W42786   8.783   1.777   4.754  0.1330 -0.3965  0.3106
27656W        W42787  11.815   1.959   3.724  0.0556 -0.0273 -0.0294
27657W        W42788   3.098  11.032   3.521 -0.1168  0.1287 -0.0015
27658W        W42789   5.417  14.555  15.082  0.1314  0.0535 -0.1334
27659W        W42790   1.418  14.557  16.244 -0.1507  0.0169  0.3507
27660W        W42791   9.527   3.322  10.755 -0.1397 -0.1367 -0.0378
27661W        W42792   1.082   5.440  13.300 -0.0252 -0.0014 -0.0012
27662W        W42793   7.060   4.496  12.704  0.0339  0.0181 -0.0203
27663W        W42794   4.835   8.103   4.076  0.0533  0.2741 -0.1859
27664W        W42795   3.887   6.134  14.260 -0.1098  0.0783 -0.0043
27665W        W42796   6.279   9.846  14.270 -0.0631  0.0828  0.1066
27666W        W42797   9.155  16.647  15.868 -0.2856  0.0958 -0.0484
27667W        W42798   2.973   0.792   1.976  0.2090 -0.1429 -0.0163
27668W        W42799  15.311  11.543   0.937  0.0821  0.0143 -0.1419
27669W        W42800   0.783   6.004   1.711 -0.0805 -0.3003 -0.1219
27670W        W42801   7.441   7.001  11.522  0.2059  0.0126  0.1275
27671W        W42802  16.332  16.196   1.557  0.4031  0.2195  0.0143
27672W        W42803  14.308  15.412  16.146 -0.1809 -0.5182  0.1927
27673W        W42804  13.325   7.580   2.379  0.1854 -0.1178  0.5170
27674W        W42805  10.098   9.083   3.562  0.0743 -0.0569 -0.1004
27675W        W42806   7.363  15.766  12.520  0.2068 -0.1527 -0.0933
27676W        W42807   8.926   8.887   4.522  0.1192  0.0267 -0.0832
27677W        W42808  17.681  10.047  12.162  0.2159 -0.1456  0.2323
27678W        W42809   7.934   3.663  15.735  0.0757 -0.0191  0.1231
27679W        W42810   6.685   1.305   2.424 -0.1667 -0.0057  0.2416
27680W        W42811  12.160  11.965  15.231  0.0217 -0.0131 -0.0355
27681W        W42812   6.626  12.361  11.940  0.4510 -0.1254  0.1785
27682W        W42813   5.118  17.500  16.275 -0.0747 -0.0699  0.3483
27683W        W42814  14.654  15.765  16.369 -0.1483 -0.5692  0.1679
27684W        W42815   7.726   5.813  12.639 -0.0875  0.0775  0.1869
27685W        W42816   2.110   0.956   1.591 -0.0082 -0.0997 -0.2223
27686W        W42817  14.528   5.615   3.779  0.0672 -0.1437  0.1603
27687W        W42818   2.549  12.089   2.886  0.0524  0.4962  0.0605
27688W        W42819   4.528   9.907   1.925  0.2082 -0.2276  0.0077
27689W        W42820   1.229   4.736   5.014  0.1007  0.0503  0.3819
27690W        W42821  11.013  12.515  14.545  0.2491 -0.0497  0.2257
27691W        W42822   1.931  13.652  13.046 -0.1115  0.2153 -0.3752
27692W        W42823   5.984   2.410   3.348  0.1477 -0.0512 -0.1954
27693W        W42824  11.387  11.858  11.718 -0.0512 -0.0223 -0.4010
27694W        W42825  10.975  15.351   1.552 -0.0252  0.1193  0.1257
27695W        W42826   7.618   7.597  14.011 -0.1167 -0.1294 -0.1523
27696W        W42827  13.457  11.195   0.887 -0.0916 -0.0339 -0.1403
27697W        W42828  11.005   1.931   1.724 -0.0137 -0.1662 -0.0264
27698W        W42829   6.979  12.049   3.623  0.0857 -0.0449 -0.0060
27699W        W42830  16.765  15.898   4.358  0.1989  0.1481  0.1987
27700W        W42831   7.712   2.275  14.005 -0.4359  0.1302 -0.3241
27701W        W42832   1.488  12.553  13.646 -0.2848  0.2889 -0.0141
27702W        W42833   4.143   1.452   1.493  0.0972 -0.1317 -0.1861
27703W        W42834   4.294   7.715  11.779 -0.0464 -0.2259  0.1273
27704W        W42835  12.236   5.708   0.690 -0.1464  0.0441 -0.0853
27705W        W42836   8.121  14.590  16.628  0.1755  0.1751 -0.2765
27706W        W42837   0.891   7.270   2.500  0.1025  0.0112 -0.1051
27707W        W42838   2.144   1.341   4.759  0.2605  0.1702  0.0746
27708W        W42839  16.524   6.083   1.565  0.0138  0.1591 -0.1543
27709W        W42840  15.336   8.723   1.033  0.1551  0.0944 -0.2023
27710W        W42841  13.011   1.522   1.782  0.3354  0.0257  0.0967
27711W        W42842  15.111   6.531   2.665 -0.1253 -0.1013 -0.1487
27712W        W42843   8.447  10.210  12.035 -0.1970 -0.2209 -0.0011
27713W        W42844  14.630   4.327  15.024 -0.1490 -0.3440  0.0875
27714W        W42845  13.748  16.547   2.627 -0.0345 -0.0365  0.1579
27715W        W42846   7.541   2.735  14.748 -0.0558  0.0818  0.1391
27716W        W42847   0.950   1.995  13.934  0.0357 -0.0484 -0.0715
27717W        W42848   9.952   1.250   0.854  0.1211  0.2358  0.0034
27718W        W42849  10.825  15.985  14.221  0.0295  0.2030 -0.0387
27719W        W42850  10.897  13.630  13.852 -0.3423  0.4304 -0.2705
27720W        W42851   8.688   1.372  12.774 -0.1098  0.1006 -0.0596
27721W        W42852   2.157   5.026   4.311  0.2310  0.0090 -0.0390
27722W        W42853  15.881   4.116   0.305 -0.0253  0.1461  0.0986
27723W        W42854  10.528   7.328  16.059 -0.2875  0.2019 -0.1665
27724W        W42855   4.810  11.697   2.269 -0.1108 -0.1043 -0.0827
27725W        W42856   5.865   2.225  11.306  0.1468  0.2293  0.3198
27726W        W42857  16.605  12.385  15.753  0.0855  0.1916 -0.2169
27727W        W42858  13.644   9.297  12.031 -0.1840  0.1684  0.1427
27728W        W42859   7.283  12.765   0.294  0.4254  0.2323 -0.0275
27729W        W42860   6.259  12.709   0.111  0.0752  0.4548 -0.0938
27730W        W42861   7.797  13.061   2.118 -0.0506 -0.0693 -0.1534
27731W        W42862   1.103   5.888   0.706 -0.1841  0.1684 -0.2264
27732W        W42863  17.784  11.459  13.969 -0.1037  0.2691 -0.4125
27733W        W42864  15.110   0.867  12.682  0.0997  0.3164 -0.1648
27734W        W42865  16.252  12.315  16.172  0.1599 -0.0900  0.1552
27735W        W42866  13.884  13.235  13.060 -0.0851 -0.2150  0.0327
27736W        W42867   8.907   5.059   5.173  0.0919  0.0891  0.1923
27737W        W42868  14.838   8.948   0.962  0.0158  0.0027 -0.0637
27738W        W42869  16.096  10.390   5.146  0.0729 -0.2080 -0.0939
27739W        W42870   5.015   6.456   0.165  0.1040 -0.0976 -0.0235
27740W        W42871  15.828   3.847  15.448 -0.1043 -0.0585  0.0113
27741W        W42872  15.246   8.106  15.020  0.2133 -0.2008 -0.2889
27742W        W42873  13.492  12.918   0.909  0.1241  0.4236  0.2386
27743W        W42874  16.722   3.099   4.190 -0.2046  0.2871 -0.1098
27744W        W42875   3.707   5.176   4.429  0.0374  0.3260  0.1061
27745W        W42876   8.929  15.713   3.449 -0.0573  0.2144  0.2436
27746W        W42877   3.457  10.870  14.117 -0.1296 -0.1974 -0.3767
27747W        W42878   9.985  13.934   0.873 -0.0456  0.0753 -0.1506
27748W        W42879   2.312   0.121  13.422 -0.1775 -0.1047 -0.1912
27749W        W42880   9.154   5.732   3.411 -0.2344  0.2508  0.0073
27750W        W42881  10.286  16.466  10.311  0.2670 -0.0337  0.0817
27751W        W42882   8.942  14.696  10.606  0.0012 -0.0718  0.2203
27752W        W42883  17.796  16.162  16.073 -0.1040  0.0557  0.1277
27753W        W42884   2.297  12.856   3.200  0.0802  0.0938 -0.1300
27754W        W42885   2.943  15.587   3.445 -0.1909 -0.4398  0.1750
27755W        W42886  17.671  17.064   3.018 -0.0957 -0.1778 -0.0498
27756W        W42887  12.624  13.746  12.546 -0.1209  0.0937  0.0809
27757W        W42888  14.111   9.990   1.242 -0.0925  0.1039 -0.0357
27758W        W42889   9.557  13.539   0.100  0.0602  0.1421 -0.4836
27759W        W42890  10.786  14.105   3.287 -0.2197  0.3083  0.0591
27760W        W42891  15.574  14.036   0.970 -0.0507 -0.1039  0.2950
27761W        W42892   3.806   7.717   0.475  0.0241  0.2831 -0.2012
27762W        W42893   3.657   1.039   0.948  0.0674  0.0597  0.0819
27763W        W42894   6.883  12.229  12.733 -0.0566 -0.2182 -0.1959
27764W        W42895   2.774   7.357  15.767 -0.0807 -0.3748 -0.2004
27765W        W42896   6.460  14.431   4.148 -0.1053  0.2680  0.1634
27766W        W42897  12.092  12.888   1.349 -0.0831 -0.3024 -0.1513
27767W        W42898   9.950  16.288  14.538  0.0634 -0.0504  0.0704
27768W        W42899   0.618   8.746  13.683 -0.1923  0.0386 -0.0557
27769W        W42900   8.604   1.154   2.907 -0.0107 -0.3474  0.1409
27770W        W42901  15.158  14.465  16.699 -0.0440  0.2859  0.2729
27771W        W42902  12.687  13.815   5.186  0.1746  0.1551  0.0956
27772W        W42903   8.432   8.841  13.949 -0.0386 -0.4231  0.2874
27773W        W42904  11.678   3.431   4.999 -0.0491 -0.0124  0.0475
27774W        W42905   4.934   0.879   0.477 -0.4483 -0.1346  0.2047
27775W        W42906   1.621  16.767  13.660  0.2209 -0.1979  0.0479
27776W        W42907   8.348   4.214  13.811 -0.0492 -0.1410  0.1105
27777W        W42908   7.999  12.384   2.729  0.1133  0.1400 -0.0883
27778W        W42909  13.262   5.223  11.585  0.2857 -0.0531 -0.1204
27779W        W42910  14.809  15.075  13.430 -0.1106 -0.1492  0.2481
27780W        W42911  15.870   6.801  12.421 -0.2060 -0.3028  0.1601
27781W        W42912   6.589  17.556   5.485 -0.1376 -0.2855 -0.0071
27782W        W42913  16.228   1.592  15.427  0.0167 -0.3187 -0.2455
27783W        W42914  15.231  14.519  13.178 -0.5014  0.0332  0.2076
27784W        W42915   0.737   7.634  14.963  0.2629 -0.0435 -0.1107
27785W        W42916   7.257   4.802  13.980 -0.1287  0.2370 -0.4605
27786W        W42917   0.204  16.525  14.990 -0.1510  0.3584 -0.1453
27787W        W42918  13.004   1.545  11.623 -0.2149 -0.1129  0.3351
27788W        W42919  17.873   2.684   4.453  0.1254 -0.0691 -0.1919
27789W        W42920   6.570  11.221   2.645  0.1067 -0.2071 -0.0844
27790W        W42921   5.497   9.016   4.923  0.0574  0.1408  0.0610
27791W        W42922  14.680  13.670   0.707 -0.2191 -0.1724 -0.1611
27792W        W42923   2.976   9.285  13.343  0.0097  0.0331  0.1106
27793W        W42924  10.381   5.924   0.386  0.2070  0.0288  0.1137
27794W        W42925  16.151  13.614  16.681  0.4695 -0.3338 -0.1041
27795W        W42926  14.744  14.786  13.851 -0.0241  0.1838 -0.2296
27796W        W42927   1.363   1.846   1.557  0.0543 -0.0374  0.0321
27797W        W42928   6.508   1.922   1.294 -0.1993  0.0499  0.0915
27798W        W42929   2.981   6.806   2.417  0.0700 -0.2202 -0.0989
27799W        W42930  15.935   3.672  11.119  0.1994  0.0957  0.2049
27800W        W42931   9.392  14.604  13.918  0.1446 -0.0878  0.3021
27801W        W42932   2.739  16.818  14.144 -0.2749 -0.1148 -0.0122
27802W        W42933   5.818   6.048   1.200 -0.4414 -0.0575 -0.1883
27803W        W42934  14.290   7.823  15.272  0.0883  0.0012  0.0109
27804W        W42935  15.125   3.598   1.618  0.2809 -0.2764  0.1364
27805W        W42936   9.360  17.322  14.949 -0.0385  0.1009 -0.0787
27806W        W42937   5.324  13.966  13.455 -0.3376  0.0306  0.2240
27807W        W42938   1.463   5.298  15.019  0.1774 -0.0582 -0.2663
27808W        W42939  13.147   1.394   5.928  0.1099  0.3033 -0.0983
27809W        W42940   7.935  14.506   1.152 -0.2819  0.2490 -0.0761
27810W        W42941   2.206  10.043  15.016  0.1269  0.3780 -0.3471
27811W        W42942   3.909   6.582   2.054  0.1255 -0.2621 -0.1583
27812W        W42943  12.818  14.881   4.725 -0.0840  0.1793 -0.1824
27813W        W42944  14.338  10.177  15.412 -0.1127 -0.0802  0.0682
27814W        W42945   3.133  15.391  11.650  0.0354 -0.2786  0.0965
27815W        W42946   0.953  13.911  11.930  0.0737 -0.1335  0.3624
27816W        W42947   2.972   3.920   2.126 -0.2073  0.0424  0.0834
27817W        W42948   0.770   5.053  14.486 -0.0461  0.2350  0.0307
27818W        W42949  11.091   4.885  16.714  0.0488  0.0599 -0.1078
27819W        W42950   4.435   7.894   5.778  0.0438 -0.0494  0.3913
27820W        W42951   9.260  16.067   0.242 -0.0720 -0.1311  0.0686
27821W        W42952  13.226   8.992  13.343 -0.4141  0.1232 -0.0057
27822W        W42953  15.568   7.474   5.628 -0.1444  0.0415  0.1450
27823W        W42954   4.105   6.307  12.508 -0.0206  0.0062  0.0714
27824W        W42955   1.267   6.236   0.335 -0.2662  0.0306  0.0104
27825W        W42956   0.644   2.314   5.567 -0.1136 -0.1182 -0.1875
27826W        W42957   3.489  15.857   0.305 -0.0216 -0.0457 -0.1731
27827W        W42958  17.763   4.162  11.891  0.0377  0.0947 -0.4085
27828W        W42959  14.247   5.962   2.005 -0.0020 -0.0851 -0.1442
27829W        W42960   1.925   7.267   1.536 -0.3170 -0.1812  0.3830
27830W        W42961  10.953  16.663   3.491 -0.0476  0.0591 -0.0649
27831W        W42962  12.769  14.557   5.576 -0.1118 -0.0077  0.0851
27832W        W42963   4.523   7.671  12.617 -0.0481 -0.0718 -0.0948
27833W        W42964  14.163  15.112  12.406  0.0807  0.0880  0.0531
27834W        W42965   9.163  11.301   3.369 -0.0401 -0.0129  0.0904
27835W        W42966   5.473   4.311  11.977 -0.2097 -0.0683  0.0495
27836W        W42967  15.635   2.820  13.189  0.0249 -0.2391  0.1867
27837W        W42968  16.605   2.968  13.495 -0.0180 -0.0737  0.3250
27838W        W42969   8.569  17.451   0.454 -0.3950 -0.0207  0.1651
27839W        W42970  14.672  15.756  11.241  0.2597 -0.0255  0.1041
27840W        W42971   0.331   0.423  13.565 -0.0718  0.4063  0.2498
27841W        W42972  14.931   9.133   2.640  0.0232 -0.0847  0.1800
27842W        W42973   3.941  17.121  14.986 -0.1014  0.2015 -0.1590
27843W        W42974   6.363  12.808  13.339 -0.0669 -0.0555 -0.0400
27844W        W42975   3.047  14.980  11.391 -0.1368 -0.2586  0.0720
27845W        W42976  12.083   7.039   0.705  0.0536 -0.0526  0.1077
27846W        W42977   7.472   7.209  14.318  0.4700 -0.3375  0.0975
27847W        W42978   7.683   0.807   1.119 -0.2144  0.0957 -0.3040
27848W        W42979   8.550   1.852   3.927 -0.0989  0.3724  0.3501
27849W        W42980  11.013   3.023   2.190  0.1456 -0.0123  0.1061
27850W        W42981   5.562   2.010   2.031  0.3199 -0.3508 -0.4181
27851W        W42982  14.902  16.914  12.785  0.0969 -0.1381  0.2020
27852W        W42983  16.924   0.272  12.582 -0.0199 -0.3382  0.2638
27853W        W42984   0.381   7.217   1.256  0.0532  0.0704  0.0684
27854W        W42985   3.094   9.812  14.667  0.2611 -0.0045  0.1784
27855W        W42986  11.714  10.657  15.197  0.1964 -0.1107  0.0371
27856W        W42987   0.852   1.078  15.203  0.0072 -0.0308 -0.2302
27857W        W42988  16.266   5.817   1.194 -0.4634  0.0894 -0.0114
27858W        W42989  10.527   8.114  11.777  0.0634 -0.1555  0.0420
27859W        W42990  16.077  13.996   3.769  0.1878  0.0543 -0.1550
27860W        W42991  12.924   4.067   2.891  0.0828  0.2921  0.0673
27861W        W42992   9.950  16.632   1.322 -0.0234 -0.0279  0.2076
27862W        W42993   0.563   6.637   0.052  0.0475 -0.2325  0.1412
27863W        W42994   9.725   0.531  14.523 -0.2537 -0.3070 -0.3469
27864W        W42995  17.573  14.342   2.316 -0.1999 -0.3740  0.1726
27865W        W42996  15.768  17.504   1.731 -0.2434 -0.2161  0.0061
27866W        W42997   4.132   1.340   2.470 -0.0959 -0.0212 -0.2076
27867W        W42998   2.156  15.422   3.368  0.0680  0.0644  0.0470
27868W        W42999   2.788  11.459   4.339 -0.0325  0.1621 -0.1931
27869W        W43000   3.856   2.397  12.759  0.0926 -0.3109 -0.3825
27870W        W43001   4.091   2.643   2.975  0.1257  0.0155  0.3603
27871W        W43002   3.370   6.437   3.418 -0.2927 -0.0691  0.1346
27872W        W43003  16.150   3.226  11.516  0.1928  0.1160  0.2497
27873W        W43004  17.665  14.125   5.030 -0.0714 -0.3830 -0.0032
27874W        W43005  17.230  10.712   2.013  0.1307  0.2782  0.0627
27875W        W43006   5.505   9.034  11.992  0.0294 -0.0111  0.0431
27876W        W43007   3.302  13.241  13.014 -0.2083  0.0493 -0.1091
27877W        W43008  11.008  16.937   5.203 -0.0936  0.0861 -0.1511
27878W        W43009  10.288  11.917   5.326  0.1958  0.2410  0.0068
27879W        W43010   5.455   0.920  13.654 -0.0955 -0.0092 -0.1132
27880W        W43011  15.212   2.575  11.529 -0.1420  0.2017  0.4096
27881W        W43012  14.095   1.594   2.660  0.1471  0.2110  0.0514
27882W        W43013  16.012  11.437   4.219  0.1385  0.0528  0.3414
27883W        W43014   0.236   1.714  12.367 -0.2354 -0.1213 -0.2984
27884W        W43015  10.498   7.894   0.222 -0.3395 -0.0827  0.2595
27885W        W43016  12.495   6.085  15.853  0.0072  0.2949  0.2921
27886W        W43017  13.202   3.997  13.086 -0.5013  0.1975  0.0346
27887W        W43018   0.436  15.089   3.714 -0.0893  0.2505  0.0362
27888W        W43019   1.560   1.024   4.337  0.0411  0.1081  0.0684
27889W        W43020   0.971   2.283  11.953 -0.1133  0.1986 -0.1538
27890W        W43021   9.704  12.612   4.300  0.2645  0.0267  0.1763
27891W        W43022   6.538   7.175   1.970 -0.0443  0.1510  0.0907
27892W        W43023  10.099   9.876  13.265  0.0181  0.1373  0.2477
27893W        W43024   2.378   2.868   1.970 -0.1587  0.2228  0.1970
27894W        W43025   2.647   7.106   4.378 -0.1187 -0.1820  0.1243
27895W        W43026  10.801   4.725   1.658 -0.2722  0.0561 -0.0128
27896W        W43027   9.819   1.811   3.853  0.1357  0.1631  0.0523
27897W        W43028  12.218  16.047   3.553  0.1862  0.0942  0.0586
27898W        W43029   4.171  17.344  11.839  0.2126 -0.0075 -0.0721
27899W        W43030   1.462  17.650  13.857 -0.2905 -0.1053  0.2514
27900W        W43031   2.402   9.839  16.308 -0.0262  0.1290  0.1370
27901W        W43032   0.400  15.611   0.535 -0.2194 -0.2935 -0.4679
27902W        W43033   7.817   1.728   2.619 -0.2024  0.0723  0.1503
27903W        W43034   0.554   3.970  12.481  0.1132 -0.1254  0.0482
27904W        W43035  15.323  11.786  13.190 -0.0443 -0.0504 -0.1413
27905W        W43036  16.641   2.111  12.985 -0.1474  0.0277  0.0694
27906W        W43037  13.581  17.216  16.158  0.0901  0.0902 -0.1180
27907W        W43038   6.408   4.290  13.952 -0.1560 -0.0334  0.1318
27908W        W43039   8.269   4.809   2.147 -0.3078 -0.0724  0.1292
27909W        W43040   4.218  12.334  14.249 -0.0441  0.1998 -0.0898
27910W        W43041   4.287   7.865  11.340 -0.0231  0.0327 -0.0734
27911W        W43042  15.961  17.810  14.467  0.1877  0.1939 -0.1490
27912W        W43043   0.477   1.892   3.299 -0.0582 -0.0913  0.0967
27913W        W43044  11.357   5.573   0.475  0.0900 -0.0351 -0.2908
27914W        W43045   7.998   6.913   2.664 -0.1237  0.1854  0.1673
27915W        W43046  10.960  10.107  16.555 -0.1924 -0.1486 -0.0036
27916W        W43047   8.300   8.468   3.740 -0.2929 -0.5438 -0.1859
27917W        W43048   4.303  15.952  14.938  0.1658  0.0422  0.0512
27918W        W43049   1.088   9.644   5.432 -0.2481 -0.2164 -0.0898
27919W        W43050   8.923   9.771   2.727  0.0434 -0.2112 -0.2062
27920W        W43051   2.903   8.251  11.345  0.0118 -0.2910  0.0911
27921W        W43052  14.728  15.289   5.549  0.0599  0.3213 -0.2407
27922W        W43053   4.190   9.616   0.559  0.2898 -0.1409  0.0207
27923W        W43054   9.108  10.201   4.579 -0.0928 -0.0764  0.2481
27924W        W43055  10.534  12.177  15.693  0.1791  0.1050 -0.3612
27925W        W43056   1.992   8.108   1.755  0.1936 -0.1633  0.1123
27926W        W43057  10.440  15.973   1.018  0.0622 -0.1122  0.4188
27927W        W43058   8.998  12.853  14.711 -0.0723  0.1760  0.0041
27928W        W43059   9.936  10.944   0.290  0.0736  0.3384  0.0616
27929W        W43060   2.934   2.185   5.390  0.0994 -0.2503  0.0081
27930W        W43061   1.075  13.814   6.138 -0.0744  0.0607 -0.1934
27931W        W43062   9.287  15.679  15.069 -0.1568  0.0955 -0.1908
27932W        W43063  10.706   9.547  13.426  0.0315 -0.1443  0.0546
27933W        W43064   0.997  12.410  16.214 -0.0554 -0.0825 -0.0969
27934W        W43065   8.941  13.961   5.876  0.0895  0.2206 -0.2253
27935W        W43066   6.877   4.385  15.179  0.2163  0.0711  0.2284
27936W        W43067   7.335   8.570   3.726 -0.0583 -0.0401 -0.1682
27937W        W43068  16.541   1.754   4.634 -0.0632 -0.0843 -0.0877
27938W        W43069  16.527   7.704  15.492 -0.0630 -0.0128 -0.0386
27939W        W43070  11.373   9.947   0.044  0.1519 -0.0252 -0.2292
27940W        W43071  17.081  17.725   2.909  0.0959 -0.2101  0.1250
27941W        W43072   1.574   4.478  15.330 -0.0256  0.0941 -0.0045
27942W        W43073  11.027  17.526  13.419 -0.0557 -0.1836 -0.2393
27943W        W43074  11.130  17.102   1.284  0.4131 -0.0686 -0.1415
27944W        W43075   8.440   0.861  14.240 -0.4141  0.1062  0.0435
27945W        W43076   7.936   5.239  10.993  0.1134  0.1129  0.2161
27946W        W43077   1.735  16.620  14.810 -0.0453  0.4368  0.0103
27947W        W43078  15.909  15.392   4.378 -0.1323 -0.0103  0.0940
27948W        W43079   1.045  12.907  15.352  0.1836 -0.0744 -0.3657
27949W        W43080   2.678   1.583  11.804  0.1661 -0.1973  0.1817
27950W        W43081   3.657  13.836   3.857 -0.1097 -0.0781 -0.1951
27951W        W43082   1.120   4.367  11.138 -0.1536 -0.0724 -0.0882
27952W        W43083   9.144  13.067   0.911 -0.0987  0.0638 -0.1237
27953W        W43084  12.087   2.267  16.721  0.0175 -0.0561 -0.0722
27954W        W43085   8.456   5.858   0.778 -0.1587  0.1350  0.0268
27955W        W43086  10.403   7.479   0.887  0.0422 -0.1646  0.1207
27956W        W43087   4.544   1.100  14.859  0.1451  0.1947  0.1347
27957W        W43088   8.010  16.785   3.955 -0.1181 -0.0150 -0.0370
27958W        W43089   8.931  11.964  11.602  0.0083  0.0663 -0.0326
27959W        W43090   7.658   4.895  12.027  0.1372  0.0248  0.2160
27960W        W43091   7.414   2.861  10.928 -0.0303 -0.0746  0.1673
27961W        W43092   3.043   1.639   4.875 -0.2624 -0.0435  0.1162
27962W        W43093  14.076  16.582  15.154  0.0932 -0.1606 -0.0908
27963W        W43094  11.847  14.894  11.680 -0.0884  0.0033  0.0386
27964W        W43095  12.722   0.972   0.364 -0.1528  0.0334 -0.1166
27965W        W43096   1.392  10.360  13.298 -0.0154 -0.5143 -0.0093
27966W        W43097   7.455  13.985  13.876 -0.3334 -0.2052  0.0314
27967W        W43098  13.422  13.206   2.386  0.0111  0.1137  0.3099
27968W        W43099  13.769   9.184   6.139 -0.2260 -0.1139 -0.0623
27969W        W43100  10.695  11.083   5.016 -0.2431  0.2103 -0.2285
27970W        W43101  14.585   3.485   3.928 -0.2763 -0.2090 -0.1292
27971W        W43102   1.854   5.083  13.325 -0.1495  0.2522  0.3657
27972W        W43103   8.155   2.021  10.591  0.2286 -0.0324 -0.0464
27973W        W43104   9.320   9.370  12.964  0.0125  0.1952 -0.2363
27974W        W43105  10.066   8.491  12.586 -0.1367  0.0898 -0.0042
27975W        W43106   3.982   6.019   4.153  0.0179  0.0089  0.0493
27976W        W43107  10.123   8.489  13.164 -0.0323  0.0626  0.3968
27977W        W43108   5.676  17.466   1.725 -0.2942  0.0778 -0.1280
27978W        W43109   9.689   0.576   9.858 -0.1038  0.1963 -0.0427
27979W        W43110   0.430   8.845  14.195 -0.3581  0.2659 -0.0147
27980W        W43111  17.604  17.747  16.435  0.3181  0.0336  0.0179
27981W        W43112   0.193   7.220  14.540 -0.1495  0.0404 -0.1378
27982W        W43113  13.370  13.264  13.195 -0.0410  0.1921  0.0142
27983W        W43114  12.942  12.958  11.516 -0.0373  0.0870  0.0120
27984W        W43115  14.528   0.038   3.473 -0.0991 -0.0143  0.1357
27985W        W43116   2.078   2.458  13.252 -0.0021  0.1879 -0.0678
27986W        W43117   9.661   3.220  16.187 -0.0856 -0.0504 -0.2114
27987W        W43118  17.692  12.791   0.587 -0.1394  0.1131 -0.1949
27988W        W43119   1.053  14.105   0.611  0.0196 -0.1706  0.0818
27989W        W43120   0.392   4.021   1.965 -0.1209  0.2309 -0.1433
27990W        W43121  10.904  13.953   4.557 -0.1580  0.1846 -0.3931
27991W        W43122  10.700   4.051   2.579  0.1054  0.1111 -0.2092
27992W        W43123   2.181   1.093   4.322  0.2729  0.0968 -0.0794
27993W        W43124   1.239   7.155   5.000  0.0365 -0.2681 -0.0817
27994W        W43125   1.945   9.130  13.242 -0.1563  0.0129  0.1139
27995W        W43126   1.620  11.583  10.983 -0.0501 -0.3204  0.0500
27996W        W43127  16.383  10.450   0.399  0.2927 -0.0633  0.1083
27997W        W43128   0.174   9.199   1.676 -0.0020 -0.1304  0.2326
27998W        W43129   0.378   7.805  10.096  0.1542  0.0011  0.1876
27999W        W43130   6.857  11.733  13.646  0.0600 -0.1642  0.0544
28000W        W43131  16.597   7.897   1.247 -0.1026  0.2639 -0.1301
28001W        W43132   4.950   2.757   4.585 -0.1428 -0.0595  0.1275
28002W        W43133   7.234  10.518   0.870  0.2344 -0.0562  0.0345
28003W        W43134   7.470  13.166  12.768 -0.3643  0.0350  0.0777
28004W        W43135   4.657  10.510   2.699 -0.1849  0.0514  0.2429
28005W        W43136  11.727   0.629  16.381 -0.0797  0.0169 -0.0363
28006W        W43137   2.748   0.530   3.981  0.2395  0.1814  0.0810
28007W        W43138  14.776  14.671  15.656  0.1241 -0.2614 -0.1795
28008W        W43139   6.265  13.827  13.372 -0.0545  0.1215 -0.1189
28009W        W43140  16.539   0.811   0.400  0.0056  0.1612  0.3130
28010W        W43141   3.966   8.712  13.761 -0.3319 -0.2906  0.0140
28011W        W43142  16.257   2.945  11.982 -0.0110  0.2346  0.1009
28012W        W43143   4.324  15.957   2.835  0.0943  0.1461 -0.2089
28013W        W43144   7.237   9.770  10.593  0.0207 -0.0800  0.3004
28014W        W43145  11.101   7.405  15.820  0.0418 -0.2581 -0.1959
28015W        W43146  12.752  12.005   5.897 -0.1514 -0.0983 -0.0858
28016W        W43147  14.984   3.467  14.498 -0.0241  0.0699  0.0282
28017W        W43148   1.016   5.119  16.402 -0.2354  0.1787  0.0696
28018W        W43149   6.973   8.065   4.485 -0.4568  0.1140 -0.2721
28019W        W43150   2.494   7.933  11.332 -0.1819  0.1651 -0.0996
28020W        W43151   1.638  11.809  14.004 -0.1522 -0.1719 -0.1068
28021W        W43152   0.361  13.100   1.126  0.0053  0.0767 -0.0166
28022W        W43153  11.246   7.895  13.049  0.1609  0.0349  0.1154
28023W        W43154   8.928  17.786   0.817  0.2665 -0.1261  0.0352
28024W        W43155  14.703  15.638   0.541 -0.0805 -0.0919  0.1226
28025W        W43156  15.316   5.051   0.588 -0.0853  0.1125 -0.0366
28026W        W43157   3.391   1.164   5.806 -0.0885 -0.2600  0.0162
28027W        W43158  11.474  16.193   3.893  0.0792 -0.1041  0.1602
28028W        W43159  12.756   7.971  12.684 -0.1057  0.2746  0.2343
28029W        W43160   0.152  13.919  11.808  0.0945 -0.0113  0.0981
28030W        W43161  14.211   6.031  12.839 -0.1587 -0.0362 -0.2111
28031W        W43162   8.826  10.233  12.448  0.2335  0.4643 -0.2089
28032W        W43163  17.663   5.722  11.992 -0.3807  0.0101 -0.1239
28033W        W43164  14.702   0.308   6.706  0.1521  0.2189  0.3426
28034W        W43165  13.123   9.589  11.201  0.1381 -0.0824  0.3363
28035W        W43166  14.054   4.588  11.171  0.1661 -0.1586 -0.0838
28036W        W43167   9.353  11.690  13.831 -0.1556  0.1192 -0.0641
28037W        W43168  17.830  16.732  12.647 -0.0203 -0.0828 -0.2846
28038W        W43169  14.281  14.571   5.557 -0.2647 -0.0218  0.1467
28039W        W43170   3.548   3.746   0.826 -0.2827  0.4031  0.4590
28040W        W43171  17.552   5.206  14.827 -0.1559  0.0161 -0.3417
28041W        W43172  14.122  17.627  13.854 -0.1582 -0.1972  0.0498
28042W        W43173   2.313   5.253  12.068  0.1609 -0.0608 -0.0273
28043W        W43174   3.224  17.773   5.150  0.0134  0.3637 -0.1057
28044W        W43175  13.697   4.299   0.750  0.0274 -0.2367  0.0690
28045W        W43176  15.031  14.849   0.784  0.3891 -0.1241 -0.1405
28046W        W43177   5.757   8.522  11.491 -0.0400  0.3064 -0.1553
28047W        W43178   0.915  11.452  13.349  0.1586  0.0662  0.1602
28048W        W43179   4.968   1.217   4.511 -0.0320  0.1922  0.1703
28049W        W43180   1.663   7.901  12.993  0.0629 -0.1320 -0.1260
28050W        W43181   0.350   8.188   6.006 -0.1525  0.1599 -0.0597
28051W        W43182  16.689   7.546  10.488  0.0844  0.2984  0.2122
28052W        W43183  14.843   9.966   3.030  0.0887 -0.2989  0.0554
28053W        W43184  11.343  11.071  12.452 -0.4134  0.0455  0.0391
28054W        W43185  17.369   7.486  15.770  0.1994  0.1887  0.1125
28055W        W43186   3.532  17.848  11.474  0.3165 -0.0909  0.0252
28056W        W43187  12.418  14.810   0.393  0.0180 -0.0615 -0.4194
28057W        W43188  11.809   5.622  16.427 -0.4299  0.1412 -0.0933
28058W        W43189   1.920   1.631   5.948 -0.1700 -0.2180  0.2686
28059W        W43190   8.022   0.788  13.616 -0.0099 -0.3086  0.0380
28060W        W43191   7.452  17.140  12.639  0.0316  0.1888  0.0998
28061W        W43192   3.861  11.226  15.407  0.2293  0.3433  0.0004
28062W        W43193   2.188  14.506   6.214  0.1086  0.3109 -0.1126
28063W        W43194  17.584   0.185   7.102  0.0608 -0.3061  0.2702
28064W        W43195  16.115  10.035   1.390  0.2236 -0.2566 -0.0531
28065W        W43196   2.680  15.712   0.405 -0.2025 -0.1669 -0.2439
28066W        W43197   9.753  14.574  13.067 -0.0208 -0.0864 -0.0856
28067W        W43198  10.642  11.390   1.948  0.1500 -0.3662 -0.1506
28068W        W43199  11.505  14.262   1.006 -0.2507  0.3353 -0.1267
28069W        W43200  10.506  12.879   3.230 -0.1787 -0.2000  0.1074
28070W        W43201   5.651   3.083  11.438 -0.0561 -0.0577  0.1499
28071W        W43202   5.278   7.203   3.130  0.4479 -0.2590 -0.0980
28072W        W43203   5.147  13.197   2.256 -0.1599  0.2056 -0.0193
28073W        W43204  12.437   2.127  14.540 -0.1145  0.2320  0.0584
28074W        W43205   6.801   8.622  15.866 -0.0666 -0.0533  0.1970
28075W        W43206  15.374   8.376  11.432  0.2447 -0.1623 -0.2441
28076W        W43207   2.875  10.144  16.147 -0.0345  0.0530 -0.2001
28077W        W43208   8.656  11.471   3.183 -0.2145 -0.0086  0.1546
28078W        W43209  17.647   4.224   3.439 -0.0389  0.0007 -0.3627
28079W        W43210  11.134   3.883   5.324  0.0562 -0.0049 -0.1041
28080W        W43211  12.657   5.756   3.826 -0.0372 -0.0436 -0.0227
28081W        W43212  17.544   5.673   0.430 -0.1705  0.2016 -0.2647
28082W        W43213   7.381  16.819   0.030 -0.1640 -0.1119 -0.1785
28083W        W43214   7.023  17.270   0.762 -0.4102 -0.2765 -0.0835
28084W        W43215  16.933   0.584   5.907  0.1572  0.1819  0.0911
28085W        W43216   0.432   9.983   4.753  0.3588  0.2210  0.3062
28086W        W43217   1.441  15.527   5.059  0.0464  0.0301  0.1433
28087W        W43218  15.959   4.320  13.544  0.0597 -0.1335  0.2085
28088W        W43219   7.629   6.959  14.747  0.0861  0.1908 -0.0399
28089W        W43220   2.769   3.193   4.445  0.0847  0.0148  0.0228
28090W        W43221   4.228  12.922   1.722 -0.2527  0.0077  0.2159
28091W        W43222   2.490   8.799   4.582  0.2235  0.1189  0.1140
28092W        W43223  12.629   4.066   4.137  0.2751  0.0849  0.2971
28093W        W43224   5.845  10.149  14.899  0.1933 -0.1912 -0.1498
28094W        W43225   6.243   2.332   1.040  0.3447  0.3637 -0.0459
28095W        W43226  12.509  14.971   6.238  0.2159  0.0743 -0.2265
28096W        W43227   0.325  16.363   3.199  0.1186  0.0697 -0.1106
28097W        W43228  12.350   5.241  15.626 -0.1427 -0.0428 -0.2967
28098W        W43229   3.437   0.516  16.291 -0.1685 -0.0342  0.2658
28099W        W43230  10.848   6.490   3.756 -0.2224  0.1992  0.1389
28100W        W43231  11.178  13.123  15.985 -0.1517  0.2303 -0.1947
28101W        W43232  10.584   2.542  13.837 -0.0728  0.1967 -0.3029
28102W        W43233  17.628  13.677   4.110 -0.3094  0.1760 -0.2765
28103W        W43234  16.041  12.165   2.210  0.4577 -0.2886 -0.0345
28104W        W43235  11.884   7.643  12.640 -0.1803 -0.1377  0.1366
28105W        W43236   3.953   1.486   3.866  0.2712  0.1817  0.1182
28106W        W43237   7.150   3.731   3.662 -0.2631 -0.0463  0.0964
28107W        W43238  16.737   0.073   2.363  0.0701  0.1980  0.1093
28108W        W43239  15.301   5.403  11.045  0.0832  0.2444  0.0938
28109W        W43240   3.242  12.266   5.329 -0.0241 -0.1499 -0.1487
28110W        W43241  17.654   0.235   5.739  0.2742 -0.1174 -0.1000
28111W        W43242  10.753   7.717   0.614  0.0532  0.0926  0.1348
28112W        W43243  17.730   2.927  13.321  0.0800  0.1144  0.2090
28113W        W43244  13.512   7.941   1.376 -0.1442  0.0418 -0.0950
28114W        W43245   8.146  15.983  12.981 -0.2354 -0.1721 -0.0095
28115W        W43246   8.592   6.061  13.044 -0.2516  0.0134 -0.0809
28116W        W43247  16.868   5.479   2.070 -0.2205  0.1768 -0.0119
28117W        W43248  15.812  12.111   0.199  0.1365 -0.1688  0.0063
28118W        W43249  11.356   7.030  12.470 -0.3455  0.3111 -0.0432
28119W        W43250   5.669   3.741  16.639 -0.0177  0.2371  0.2487
28120W        W43251   3.606  15.700   1.636  0.1191  0.0496 -0.0821
28121W        W43252   2.175   8.786   1.405 -0.0174  0.0245 -0.1789
28122W        W43253  13.046   9.003   1.402 -0.1706  0.0943 -0.2339
28123W        W43254   7.964   5.917   2.878 -0.0147  0.2628  0.2880
28124W        W43255  14.047  10.287  13.075 -0.1128  0.1416 -0.5509
28125W        W43256   9.379   4.300  12.393  0.1703 -0.2396  0.5977
28126W        W43257   3.982   6.220   5.324  0.3495 -0.0965  0.1960
28127W        W43258   6.635  11.413   0.217  0.1034  0.0717 -0.1300
28128W        W43259   4.291  14.236   0.608 -0.0606  0.0211  0.1813
28129W        W43260  15.555  12.749  14.667 -0.1219 -0.1395  0.2244
28130W        W43261   6.378  12.597  11.118 -0.3149 -0.1863  0.0456
28131W        W43262   2.813   3.080  12.725  0.2575  0.1473 -0.2003
28132W        W43263  13.197   4.459   0.547 -0.0459  0.3617 -0.0951
28133W        W43264  13.090  15.576  13.799  0.0634  0.0999  0.1026
28134W        W43265  11.760  14.930  14.348  0.1919  0.0571  0.3498
28135W        W43266   4.732   7.143   4.297 -0.0409  0.2248  0.1544
28136W        W43267   7.038  10.646  15.872 -0.1278 -0.1629 -0.0348
28137W        W43268   7.329   7.497   2.854 -0.0363  0.0133  0.3585
28138W        W43269   9.022  13.335  14.759 -0.0287 -0.3343 -0.0102
28139W        W43270   6.690   8.009   3.080 -0.0382  0.2698 -0.2381
28140W        W43271   3.360   3.964   4.164  0.0071  0.1749 -0.1528
28141W        W43272   4.955  13.078   0.833  0.0547 -0.1803 -0.0092
28142W        W43273   4.974  14.078   5.505  0.2611  0.2224  0.4753
28143W        W43274  16.079   1.028  11.570  0.0744 -0.0822  0.1733
28144W        W43275   8.953   7.207   3.743 -0.1190  0.3060  0.0002
28145W        W43276   4.448  11.820  16.309  0.1493  0.0781  0.1140
28146W        W43277  10.672  11.722   1.504 -0.0907  0.4001 -0.2618
28147W        W43278   8.036  14.412  15.390  0.0330 -0.0739 -0.0460
28148W        W43279   1.343   5.541   0.312 -0.0637  0.1418 -0.1018
28149W        W43280  12.278   1.448   2.059 -0.1321  0.0167 -0.4699
28150W        W43281   1.465  10.714  12.327 -0.0414 -0.1176  0.0193
28151W        W43282   5.305  15.537   4.918 -0.1633  0.1079  0.1349
28152W        W43283  11.575  13.236   2.539 -0.0729  0.2181  0.1994
28153W        W43284  14.981  10.998  15.997  0.1531 -0.1826 -0.2030
28154W        W43285  16.106   8.256  16.770 -0.4454  0.0681  0.1774
28155W        W43286   1.636  17.453  14.324 -0.1530 -0.1696  0.0238
28156W        W43287   1.283   2.675  12.486 -0.1163  0.1120  0.0163
28157W        W43288   9.781  11.929   3.545  0.3687  0.1597  0.0993
28158W        W43289   4.290  15.624  12.753  0.1578  0.1816  0.0677
28159W        W43290  17.782   4.430   4.557 -0.1078 -0.1671 -0.0330
28160W        W43291  10.695   8.688   5.797  0.2465 -0.1854  0.1137
28161W        W43292  16.374   6.492  13.195  0.0409 -0.3044 -0.0444
28162W        W43293   0.951  11.045  11.314 -0.0413  0.0134 -0.1044
28163W        W43294   8.135   0.739   4.310  0.1885  0.1162 -0.3564
28164W        W43295  14.428   9.657   5.894  0.1465  0.2134 -0.4386
28165W        W43296  13.231   9.949   5.825 -0.1357  0.0888  0.0152
28166W        W43297   8.069   3.951  12.796 -0.1233 -0.1891  0.0965
28167W        W43298  12.028   4.786  10.849 -0.0532 -0.1233 -0.1716
28168W        W43299  15.271  13.733  16.235 -0.0505 -0.0084 -0.0447
28169W        W43300   6.260   3.066   4.818 -0.1921 -0.1069  0.1137
28170W        W43301  10.086  15.932  14.939 -0.0104 -0.0266  0.0007
28171W        W43302  11.773   3.302   1.106 -0.2893  0.0595  0.3144
28172W        W43303  16.606  17.046  15.732 -0.1302 -0.0325  0.3892
28173W        W43304   4.139   1.097  15.777  0.0060 -0.0088 -0.4227
28174W        W43305   8.510   8.984   6.086 -0.0572  0.0482 -0.1547
28175W        W43306  10.901   7.212   2.463 -0.1270 -0.0279  0.0805
28176W        W43307   3.431   4.779   4.451  0.1658  0.1498 -0.1335
28177W        W43308  17.735  13.598   0.662  0.0039  0.4248 -0.2034
28178W        W43309  10.732  15.383   2.532 -0.1636  0.1056  0.0767
28179W        W43310   4.626   9.042   1.672  0.1933 -0.3943 -0.2562
28180W        W43311  16.806  13.943  15.656 -0.4531  0.1868  0.0591
28181W        W43312   5.464   1.725   0.523 -0.0309 -0.1401  0.1619
28182W        W43313  14.963   5.636   3.441 -0.0989  0.0644 -0.3527
28183W        W43314   6.241  10.470  12.554  0.2652  0.0721  0.0575
28184W        W43315  16.323   1.327   5.542  0.1214 -0.4301  0.0302
28185W        W43316   4.391   5.090  11.362  0.0243  0.0809 -0.1781
28186W        W43317   4.435   0.005  13.025 -0.2029  0.0344  0.1425
28187W        W43318  12.233  11.777   2.857 -0.0562  0.1161  0.1426
28188W        W43319  16.119  12.386  11.840  0.0697  0.0541 -0.3713
28189W        W43320   9.142  10.331  14.562 -0.2295 -0.0435  0.1513
28190W        W43321   5.884   1.470   0.385  0.0825 -0.0255  0.1249
28191W        W43322   7.747   3.654  12.318 -0.1007 -0.2429  0.0383
28192W        W43323  11.443  10.770   1.446 -0.0069 -0.2540 -0.0724
28193W        W43324  13.946   3.533   1.389  0.0076  0.2526  0.0278
28194W        W43325   8.206   9.164  13.205 -0.0860  0.3027  0.1434
28195W        W43326   8.477   0.015  15.847  0.0143 -0.2593 -0.0811
28196W        W43327  12.245   0.117   2.575 -0.0501  0.2363  0.0064
28197W        W43328  14.559  17.540   3.988 -0.3473 -0.0711  0.1742
28198W        W43329  17.482  11.097   3.845 -0.1570 -0.0544 -0.2515
28199W        W43330  13.169   4.191   1.928 -0.1673  0.2077  0.1198
28200W        W43331   7.078  13.441  13.358  0.0857  0.0814  0.0504
28201W        W43332   5.739   6.735  12.513  0.0587 -0.3691 -0.2998
28202W        W43333   3.383  13.455   0.014  0.1053 -0.2904 -0.0285
28203W        W43334  12.425   3.309   5.133 -0.1179 -0.0894  0.0127
28204W        W43335  17.675  11.822  12.554 -0.2110  0.1306 -0.0557
28205W        W43336  17.835   3.978  14.054  0.3109 -0.0518 -0.0984
28206W        W43337   1.799   3.315   4.109  0.0159  0.0155 -0.1018
28207W        W43338  12.326   6.265   4.594 -0.3122 -0.0844  0.1821
28208W        W43339  15.959  10.996   3.565  0.1350 -0.0240 -0.0120
28209W        W43340   5.136  14.913   4.669  0.1036  0.0487  0.1189
28210W        W43341  12.275  16.169  13.856  0.0211 -0.0372  0.0967
28211W        W43342  16.083   6.733  11.512 -0.0132 -0.3674 -0.0704
28212W        W43343   4.955   5.373  12.142  0.0561  0.1235 -0.0208
28213W        W43344  15.906  10.705  14.640 -0.0030 -0.1007 -0.0327
28214W        W43345   1.747   1.831   3.443  0.0983 -0.3879  0.1893
28215W        W43346  15.372   5.571   1.443 -0.1564 -0.0994 -0.0482
28216W        W43347  15.827  10.711   5.790 -0.0911 -0.3029 -0.2813
28217W        W43348  15.549   2.124   2.001  0.0681  0.2613 -0.3713
28218W        W43349   5.671   3.246  15.457  0.2576 -0.3394 -0.6191
28219W        W43350  11.545   9.972  12.620 -0.2923  0.2051 -0.0346
28220W        W43351   0.648  13.669  15.012  0.1174  0.2939 -0.1861
28221W        W43352   6.122   6.244  11.289  0.2010 -0.1132  0.0644
28222W        W43353  16.636  13.695  16.594  0.2256 -0.0880  0.1247
28223W        W43354   2.127  10.240   4.183 -0.0419  0.0922 -0.2672
28224W        W43355   7.676  14.025   1.761  0.2370 -0.0709 -0.2600
28225W        W43356   7.940   7.372  11.445 -0.0020 -0.3066  0.0351
28226W        W43357  12.957   0.963  15.848  0.2093  0.3019 -0.0630
28227W        W43358  13.171  15.046  13.178  0.0259  0.1671  0.1704
28228W        W43359   7.707  11.600   3.185 -0.0011 -0.0530  0.2894
28229W        W43360  15.316  14.038   3.088  0.2116 -0.0604 -0.1791
28230W        W43361   3.126  10.483   0.494 -0.0893  0.1116  0.4388
28231W        W43362   5.477   2.923  14.039  0.1170 -0.1334 -0.2189
28232W        W43363  17.157  13.913  13.803  0.1591  0.1462  0.4295
28233W        W43364   1.235   2.021  12.924 -0.2207  0.1615  0.0740
28234W        W43365  14.566   9.910  16.680  0.0321 -0.0147  0.0307
28235W        W43366  10.803  17.577   2.597 -0.1731  0.1682  0.2540
28236W        W43367  17.131  11.978  13.429 -0.2526  0.2054  0.0797
28237W        W43368  10.252  17.588  12.848  0.1318 -0.0384 -0.3791
28238W        W43369   5.742   0.715  14.513  0.2154  0.1747  0.0570
28239W        W43370   3.109   3.883   5.562 -0.3276  0.4334 -0.1172
28240W        W43371   3.001  10.299  12.783  0.3266  0.1201 -0.0110
28241W        W43372   7.225  10.335   2.690 -0.1652  0.0153 -0.0769
28242W        W43373  15.858  17.047  16.287  0.0918  0.1481 -0.0364
28243W        W43374   9.199   3.345  14.784  0.1505 -0.1117  0.0042
28244W        W43375  15.531   7.831   0.885 -0.0627  0.2071  0.0676
28245W        W43376  15.996  10.622   0.088  0.1343 -0.0119 -0.3203
28246W        W43377   3.705  16.203   1.688  0.1359 -0.0208 -0.3434
28247W        W43378  13.081  13.745   3.032  0.2334  0.2667  0.0821
28248W        W43379   4.125   9.872   2.796 -0.2058  0.2755 -0.1414
28249W        W43380   9.392   2.813   0.855  0.1839  0.1291 -0.0950
28250W        W43381  16.968  15.565   2.283  0.0117  0.0194  0.1662
28251W        W43382  13.261   8.153  11.252  0.0944  0.0509 -0.0144
28252W        W43383   4.283  10.694  11.621 -0.0037 -0.0970  0.2107
28253W        W43384  13.149   8.838  13.969  0.3864  0.0147  0.1489
28254W        W43385  17.386   9.190  16.412  0.3200  0.2288  0.2450
28255W        W43386  10.604   9.840  13.061  0.0114  0.2260 -0.3299
28256W        W43387   7.342   8.873   5.027 -0.1246  0.0440  0.0450
28257W        W43388   8.268   1.517  12.990 -0.0774 -0.1990 -0.0016
28258W        W43389  17.358   4.093  12.889  0.2252  0.1982 -0.0555
28259W        W43390   8.401   1.488  13.871  0.0867 -0.0672 -0.0576
28260W        W43391  14.534  12.229   5.803 -0.0212 -0.2139  0.1326
28261W        W43392   9.335  16.095  13.815 -0.0044 -0.0114  0.1818
28262W        W43393   1.333   6.656  16.253 -0.0342  0.0669  0.0601
28263W        W43394  16.580   5.951   2.055  0.5544  0.0617 -0.0804
28264W        W43395  11.931   4.800   0.083 -0.3639  0.0895 -0.3077
28265W        W43396   2.707   8.881  12.412 -0.1581  0.2253 -0.0466
28266W        W43397   8.409   3.136  14.373 -0.0217  0.0508 -0.1262
28267W        W43398   7.199  14.021  14.266 -0.2917  0.2469  0.1656
28268W        W43399   8.356  14.182   3.326 -0.1753  0.0736  0.0672
28269W        W43400  16.905   6.955   4.705 -0.0367  0.0265 -0.2668
28270W        W43401   0.460  16.851   5.649  0.0314 -0.0993 -0.0527
28271W        W43402   1.006   3.613   1.643 -0.1218 -0.0060 -0.1792
28272W        W43403  14.208  11.188   5.159  0.0417 -0.0826  0.0104
28273W        W43404   2.173  16.724   4.156 -0.2098  0.3488 -0.3128
28274W        W43405   0.439  13.157  12.068  0.0650 -0.1937  0.0047
28275W        W43406   2.373   9.267   2.344 -0.1115  0.3180  0.1227
28276W        W43407   7.057   2.498   4.589  0.0108 -0.1960 -0.1129
28277W        W43408   4.124  13.789  14.703 -0.2486  0.2577  0.0973
28278W        W43409   2.425   5.424   5.845  0.1548  0.0047 -0.3869
28279W        W43410   6.502  14.535  14.832 -0.0437  0.0553  0.1138
28280W        W43411   3.118  16.531   1.703  0.2828 -0.1245  0.2395
28281W        W43412   9.980   8.029  12.610 -0.0734  0.1603 -0.0599
28282W        W43413   2.792   0.316   1.256 -0.0998 -0.0509  0.0906
28283W        W43414  10.372   3.190  12.349 -0.0461  0.1667  0.2128
28284W        W43415  14.295   8.760  16.496 -0.2915  0.1763  0.2277
28285W        W43416  10.642  10.983  13.753  0.2756 -0.1035 -0.3221
28286W        W43417   1.574   8.673  14.982 -0.1134  0.2752 -0.0360
28287W        W43418   3.006   4.011   0.171  0.1399 -0.2148 -0.0298
28288W        W43419  15.261   2.507   0.839 -0.1302  0.1724  0.0644
28289W        W43420   0.183   7.866  12.679 -0.0787 -0.0256  0.1489
28290W        W43421   0.690   4.198   3.242 -0.2479  0.0462 -0.1012
28291W        W43422  10.590   1.885  15.339  0.0118 -0.1304  0.2577
28292W        W43423  12.340   9.652   4.336 -0.0499  0.0851 -0.1268
28293W        W43424  11.920  17.042   1.992 -0.1373  0.0212  0.0867
28294W        W43425   8.955   5.541   1.606  0.0492 -0.1762  0.0126
28295W        W43426  13.684   3.447  15.212  0.1466  0.0371  0.1703
28296W        W43427   2.294   1.503  15.459 -0.0240  0.0082  0.1571
28297W        W43428  13.688  13.627  12.735  0.0818  0.0279 -0.0102
28298W        W43429  16.739  14.775  14.456  0.0979  0.2194 -0.1201
28299W        W43430  15.945   6.827  16.311 -0.3017  0.1615  0.0101
28300W        W43431  13.287  11.187  15.549  0.2229 -0.0885  0.2690
28301W        W43432   1.411  15.091  16.027  0.1266  0.4318  0.2327
28302W        W43433  10.798   9.027   2.973 -0.0827  0.0160  0.2275
28303W        W43434  16.748  17.655  11.875 -0.1159  0.2665  0.1605
28304W        W43435  12.201   3.864   6.175 -0.0981  0.1111  0.0524
28305W        W43436   4.381  14.729   1.490  0.0783  0.1324  0.0537
28306W        W43437   7.433   3.994  16.691  0.3205  0.1415  0.1047
28307W        W43438  13.851   3.126   4.963 -0.1456  0.0536  0.0064
28308W        W43439  12.876   5.585   3.313  0.3326  0.2658  0.0524
28309W        W43440   5.116  13.568  13.576  0.0419  0.1006 -0.0889
28310W        W43441  13.147   9.820   0.420 -0.4456 -0.0043  0.2117
28311W        W43442  12.029   5.223   2.939  0.0240 -0.1041 -0.0229
28312W        W43443  10.081  13.134   4.768  0.1125  0.1567  0.1846
28313W        W43444  15.147   8.485  14.562  0.1656 -0.3401 -0.0757
28314W        W43445  11.200   9.072  16.237 -0.1689  0.1930 -0.1685
28315W        W43446  11.026  14.969   5.161  0.1655  0.0329 -0.0441
28316W        W43447   2.865  10.314   5.519  0.1099  0.6093  0.0725
28317W        W43448   6.886   7.113   0.156  0.1157 -0.3857  0.3738
28318W        W43449   0.112   9.724  16.262  0.0059  0.2712  0.2145
28319W        W43450   6.617  12.605   4.467 -0.0645 -0.0065 -0.0228
28320W        W43451   8.947   5.494   3.005 -0.1545 -0.0854 -0.0798
28321W        W43452  10.889  11.891  13.968  0.3732  0.0780 -0.1171
28322W        W43453   7.986   1.753   1.315  0.2084 -0.0083  0.1120
28323W        W43454  15.974  11.228   2.077  0.1130  0.0881  0.0930
28324W        W43455  10.362   0.921   1.073 -0.5019  0.1961 -0.0669
28325W        W43456   5.740   8.225  16.514 -0.0777  0.1202  0.0350
28326W        W43457  13.100  14.325  14.008  0.4671  0.1287 -0.4413
28327W        W43458  13.807  10.631   5.378 -0.2537  0.0007  0.0759
28328W        W43459   5.147   5.115   0.982  0.1198 -0.1767 -0.2529
28329W        W43460  17.758  15.795   2.763  0.0066 -0.2064 -0.1512
28330W        W43461  17.037  10.223   3.365 -0.2415  0.0157  0.0171
28331W        W43462   5.928   8.903  13.622  0.1528  0.1477 -0.0166
28332W        W43463   7.452  13.103   0.952  0.0723  0.0809  0.0534
28333W        W43464   7.452   3.170   1.157  0.1025 -0.1109  0.2015
28334W        W43465  13.414   6.528   0.216 -0.2190 -0.2679 -0.1990
28335W        W43466   2.494  16.838   5.625 -0.3149  0.1011  0.1298
28336W        W43467  10.503  17.076   4.151 -0.1488  0.0032 -0.1889
28337W        W43468   5.555  10.202  12.671 -0.0690  0.0074 -0.2764
28338W        W43469   2.121  15.848   0.282  0.1397  0.0959  0.0396
28339W        W43470   8.423  13.401   1.766  0.0257 -0.5755  0.1298
28340W        W43471  10.119   7.934  15.412  0.0391 -0.0043  0.2023
28341W        W43472   9.348  12.999  12.437 -0.2573  0.1662 -0.0131
28342W        W43473   7.810  17.640   5.000 -0.1281  0.1137  0.2921
28343W        W43474  10.287   3.801   4.232  0.1292 -0.0522 -0.0784
28344W        W43475   8.182   8.432  15.723  0.0031  0.2634 -0.1271
28345W        W43476   7.171   1.417   2.060 -0.0490  0.0083  0.3481
28346W        W43477  16.956  15.956  14.720 -0.1532 -0.0782  0.2328
28347W        W43478   6.412   5.787  13.755 -0.2294 -0.1370  0.0798
28348W        W43479   9.164   1.764  13.519 -0.0882  0.2478  0.3429
28349W        W43480   4.492   4.544  16.114  0.4199  0.3638  0.1569
28350W        W43481   0.115   4.198  15.386  0.0993  0.0338 -0.1826
28351W        W43482  15.039  16.466   1.758 -0.2275 -0.0646  0.1039
28352W        W43483   5.309  11.754   5.016  0.3347 -0.2102  0.1120
28353W        W43484   4.103  15.722   3.228 -0.0955  0.0506  0.0734
28354W        W43485   1.519   0.313  10.860  0.2635  0.0160 -0.0215
28355W        W43486  10.739  16.904  14.483 -0.0486  0.0536 -0.0634
28356W        W43487   3.691   7.811  14.147 -0.0982  0.2395 -0.0242
28357W        W43488   5.827  14.787  15.324  0.2520  0.0376 -0.3999
28358W        W43489   6.583   3.460  14.777 -0.1835 -0.1126 -0.0470
28359W        W43490   6.708  10.598   1.012 -0.3338 -0.0469 -0.0889
28360W        W43491  12.395   0.662  13.878  0.0741  0.0483 -0.0132
28361W        W43492  15.820  13.022   3.351  0.0360  0.1882  0.1975
28362W        W43493  10.761   5.483  13.229 -0.3042  0.0390 -0.3689
28363W        W43494   8.179  15.335  14.222 -0.1585  0.0111  0.2237
28364W        W43495  10.206   5.273   5.336 -0.0813  0.1188  0.2840
28365W        W43496  10.819  11.657   2.338 -0.0062 -0.2257  0.0252
28366W        W43497   4.724   5.962   2.064  0.0640  0.0358  0.0691
28367W        W43498  13.951  11.368   0.802 -0.1739 -0.1534  0.0091
28368W        W43499  10.369   8.897   1.066  0.1027  0.3581 -0.2961
28369W        W43500   9.572  16.621   0.385  0.0941 -0.0246  0.1719
28370W        W43501  16.839   2.616   4.201 -0.0224  0.1066 -0.0375
28371W        W43502   0.961   0.584   0.820 -0.2273 -0.1500  0.1133
28372W        W43503  13.550  12.086   5.299 -0.1079  0.0469 -0.0960
28373W        W43504  11.999   8.716  15.743  0.0335  0.1819 -0.0471
28374W        W43505   1.888   2.148   2.122  0.0298  0.0603  0.0097
28375W        W43506  11.420  12.059   3.256  0.2043  0.1182  0.1551
28376W        W43507  16.680  16.942   5.279 -0.2433 -0.0018  0.0554
28377W        W43508   8.660   3.661  10.757  0.0820  0.2276 -0.2128
28378W        W43509   5.691  14.913  12.827  0.2130  0.0070 -0.0322
28379W        W43510   2.086  10.589  16.142 -0.2109 -0.0533 -0.0059
28380W        W43511   8.962  15.915  12.454 -0.4519 -0.0543 -0.0383
28381W        W43512   9.555  12.786   3.672 -0.2359  0.1053 -0.0528
28382W        W43513   1.496  11.884  11.464  0.1178  0.1324 -0.0438
28383W        W43514   8.202   2.328  16.413 -0.0987  0.0200  0.0780
28384W        W43515  13.408  10.665   5.045  0.2142 -0.4803 -0.0680
28385W        W43516  12.510  11.331   0.726 -0.1198  0.1157 -0.0142
28386W        W43517   8.115   0.554  16.467 -0.2694  0.0004 -0.0833
28387W        W43518   6.016  15.822   1.076 -0.1583  0.0085  0.0647
28388W        W43519   8.537  16.922   1.628  0.1317  0.0122  0.0029
28389W        W43520  15.961   8.980   6.242  0.0187 -0.0341  0.1311
28390W        W43521   6.759  13.641  14.309  0.0025 -0.0197 -0.0376
28391W        W43522  10.047   7.546  16.183 -0.0371  0.2265 -0.1226
28392W        W43523  14.459   7.012  15.943 -0.1454 -0.0808 -0.0726
28393W        W43524   8.814   3.064  12.707  0.0237 -0.3062 -0.1604
28394W        W43525   8.377  12.427   5.624 -0.2038 -0.0231 -0.6787
28395W        W43526  15.879  15.374   3.098 -0.1993 -0.1490 -0.0544
28396W        W43527   9.817  10.812  14.493  0.0341  0.1210  0.1776
28397W        W43528   3.397  14.758  11.706 -0.0047 -0.0218  0.3490
28398W        W43529  12.768   2.470  12.952 -0.0787 -0.1960  0.4647
28399W        W43530  14.540   5.674   0.549  0.1946 -0.1940  0.1663
28400W        W43531   1.724  12.283   0.159 -0.0861 -0.1007  0.0680
28401W        W43532  12.557  11.875   6.357 -0.1176  0.4260  0.2038
28402W        W43533   6.842   7.432   0.834 -0.3827  0.1368 -0.1731
28403W        W43534   0.122  10.157  11.743  0.2070  0.0465 -0.1560
28404W        W43535  16.779   7.834   2.029 -0.1233  0.2197  0.2341
28405W        W43536   5.606   8.592   2.690 -0.1786 -0.0597  0.3354
28406W        W43537   0.743   9.332   5.300  0.3265 -0.2546 -0.1581
28407W        W43538  10.326  14.657   2.536 -0.0651 -0.0176 -0.0826
28408W        W43539  11.719   7.988  15.360  0.2146  0.0952 -0.1608
28409W        W43540   9.597   0.181  16.158  0.0619 -0.2074 -0.4242
28410W        W43541  15.801   4.687   5.192  0.1093 -0.0558  0.1401
28411W        W43542  13.007   7.953  14.577 -0.1398 -0.0637  0.1667
28412W        W43543   8.843  13.375  15.759 -0.0669 -0.0367 -0.3066
28413W        W43544   0.332  13.180   4.784  0.2886  0.1007  0.0039
28414W        W43545   9.534  17.579  12.800 -0.1478  0.0987  0.2687
28415W        W43546   7.366   9.339   5.795  0.3120 -0.2707  0.2697
28416W        W43547   5.842  16.809  14.483  0.0253 -0.1857 -0.1077
28417W        W43548  16.142  16.691  13.967 -0.1395 -0.0593 -0.2915
28418W        W43549  15.515   6.200   3.784  0.0743 -0.0595 -0.0795
28419W        W43550  15.379   1.258  15.886  0.1933  0.0481 -0.1446
28420W        W43551   7.283   7.463   1.319  0.0785  0.0838  0.0685
28421W        W43552   0.691   3.730   0.702 -0.0763  0.1882  0.1829
28422W        W43553  14.439   9.260   4.861 -0.0369 -0.3384 -0.0018
28423W        W43554  10.274   0.064  11.435 -0.0728  0.0380  0.2936
28424W        W43555  14.435  17.190  14.509  0.0374  0.0151  0.1406
28425W        W43556   4.463  17.655   4.178  0.0247  0.5334  0.0919
28426W        W43557  13.237   0.126   1.184 -0.0885  0.0812  0.1917
28427W        W43558   2.140   7.035  13.307 -0.1559 -0.0455 -0.1375
28428W        W43559   9.219   4.584  12.814 -0.0700 -0.2083  0.0624
28429W        W43560   4.171   8.790   4.226 -0.0498 -0.3455 -0.1601
28430W        W43561  13.385   7.318  14.503  0.2353  0.2164  0.2552
28431W        W43562   3.710  13.022  12.247  0.1174  0.3554  0.3500
28432W        W43563  12.214   2.272   5.160 -0.0854  0.1153 -0.0278
28433W        W43564  14.611   9.619   2.269  0.3903  0.1427 -0.0037
28434W        W43565   9.497  13.114   2.885  0.2545 -0.3149  0.1560
28435W        W43566  11.375  17.295  15.772  0.0428 -0.0050  0.1819
28436W        W43567  16.247  17.643   4.571  0.0982 -0.0829 -0.0455
28437W        W43568   4.984   0.630   4.113  0.1743  0.2645 -0.0680
28438W        W43569   0.524  15.170  15.139 -0.2369 -0.0831  0.0025
28439W        W43570   8.319  10.621   5.318  0.1689 -0.3921 -0.1891
28440W        W43571  17.215   8.925   0.909 -0.2844  0.2291 -0.2349
28441W        W43572   7.696  16.555   5.701  0.3088 -0.1609  0.0062
28442W        W43573  15.962   7.129  15.508 -0.0647 -0.0018 -0.2440
28443W        W43574   1.880  15.069  15.714 -0.0469  0.1650  0.2194
28444W        W43575  17.815  15.686  14.063 -0.0824 -0.0307 -0.1693
28445W        W43576  17.670   9.728  13.912  0.0099  0.1197 -0.0781
28446W        W43577   7.510  11.753  12.431 -0.1527  0.2002 -0.3487
28447W        W43578   7.889   4.739  15.467 -0.3109 -0.2750 -0.2884
28448W        W43579  16.786   8.204  16.207  0.0142  0.1063 -0.0055
28449W        W43580  14.926   0.962   5.427 -0.0155 -0.1098 -0.2636
28450W        W43581   5.595  10.106  16.582 -0.0864  0.1039 -0.0996
28451W        W43582  13.694   4.567  12.919  0.4153 -0.1757  0.0583
28452W        W43583   5.092  14.476  14.308  0.1774 -0.2712 -0.2043
28453W        W43584   5.737   5.683  12.748 -0.1446 -0.2607  0.0816
28454W        W43585   7.834   1.124  11.788 -0.2233 -0.3690  0.0332
28455W        W43586  16.732  13.258   4.250 -0.4513 -0.0619  0.0750
28456W        W43587  16.837   9.879  11.603  0.3216 -0.1803  0.1318
28457W        W43588   4.144   0.822  14.535  0.0160 -0.2139  0.1918
28458W        W43589   2.687  14.188   3.491  0.0207 -0.1685 -0.0633
28459W        W43590   8.050   2.139   2.174  0.0553  0.2344 -0.0856
28460W        W43591   2.301  12.307  11.458  0.1193 -0.1115 -0.1799
28461W        W43592   8.067  16.279  12.362  0.2276  0.0111  0.0688
28462W        W43593   9.142   7.441  14.282  0.6103 -0.2843 -0.1553
28463W        W43594   1.718  16.485   4.325  0.0422 -0.1047  0.1452
28464W        W43595   3.064   4.957   4.138  0.2202  0.1729 -0.0935
28465W        W43596   8.123  17.219   0.236  0.2384 -0.1788 -0.0209
28466W        W43597   3.029  13.617  16.421 -0.3269 -0.2610  0.0124
28467W        W43598   7.314   0.467  13.396  0.0445  0.3903  0.1193
28468W        W43599   6.984  13.283  12.851  0.1570  0.1486  0.0064
28469W        W43600  16.116   1.827  16.547 -0.1266 -0.3510 -0.1090
28470W        W43601  12.371   0.877   3.194 -0.0883  0.1601 -0.1132
28471W        W43602  14.094   0.490   5.226 -0.3376  0.1088 -0.0729
28472W        W43603  14.848   3.106   5.152 -0.1675 -0.0684 -0.0768
28473W        W43604  10.987   4.966  13.366  0.1900 -0.1801 -0.0655
28474W        W43605  14.373   2.519  13.671 -0.0266 -0.2154  0.0205
28475W        W43606   6.867   3.408  12.463  0.0113  0.3690 -0.1003
28476W        W43607   7.702   2.514   5.356  0.3545 -0.1666 -0.2409
28477W        W43608   0.477   4.588  14.613  0.0312  0.0719  0.1884
28478W        W43609  10.357   5.510  11.806 -0.2831  0.1384 -0.1202
28479W        W43610   8.212   5.177   1.784  0.1436 -0.2624 -0.0504
28480W        W43611   7.294   1.111   4.195  0.0712 -0.0789 -0.3638
28481W        W43612   6.367   4.122  13.147  0.3089  0.1126  0.0048
28482W        W43613   2.952  10.863   3.087 -0.1747 -0.3323  0.1276
28483W        W43614   8.624  17.613  14.462 -0.0462 -0.1230  0.1586
28484W        W43615   5.187   3.088  16.568  0.0431  0.0232 -0.3321
28485W        W43616   4.115   3.277   0.003  0.2247 -0.0717 -0.4291
28486W        W43617   9.082  16.322  12.875 -0.1685  0.2950 -0.0881
28487W        W43618   0.422   0.597  15.307  0.0148  0.2271 -0.3783
28488W        W43619  16.905   8.753   6.467  0.3588 -0.0599 -0.2851
28489W        W43620  11.118   1.185   4.250  0.1105  0.1183  0.1305
28490W        W43621   0.967  14.222  12.352  0.0359  0.0581 -0.0407
28491W        W43622   2.296   7.082  16.601 -0.0350 -0.0339 -0.1398
28492W        W43623  14.758   4.788  14.064  0.0500  0.0934 -0.0045
28493W        W43624   8.616   3.344   5.405  0.3150  0.4792  0.1642
28494W        W43625   3.877  13.591   3.139  0.1823  0.2340  0.1992
28495W        W43626   0.019   0.024  13.202 -0.0427 -0.0009 -0.3231
28496W        W43627  16.766  13.602  16.110  0.0377 -0.0287  0.4142
28497W        W43628   9.188   1.526   1.119  0.1455 -0.0825 -0.1213
28498W        W43629   9.723   5.981  14.371  0.0360  0.1234  0.2976
28499W        W43630  10.454   0.251   4.848  0.2441  0.0112  0.1600
28500W        W43631   8.115   2.135  15.390 -0.1517  0.0137  0.1035
28501W        W43632   9.112  13.007   2.490 -0.2885  0.2405 -0.0875
28502W        W43633  14.625   8.871   0.508  0.3721  0.0394 -0.0865
28503W        W43634  13.593  14.472  16.766  0.1153 -0.1530 -0.1126
28504W        W43635  14.298  12.659   1.156  0.1454 -0.3241  0.1761
28505W        W43636   4.395   1.550  11.942 -0.1863  0.0454  0.2078
28506W        W43637   9.094   7.261   1.510 -0.1600  0.2914  0.1498
28507W        W43638  13.680   7.557   6.270  0.0333  0.0876 -0.1843
28508W        W43639  10.314  13.873  14.837  0.1204  0.2859  0.1382
28509W        W43640  10.940  15.475  14.155  0.1762 -0.1297  0.1581
28510W        W43641   3.724   4.669  13.229 -0.1276 -0.0857  0.0720
28511W        W43642   7.759  10.701  11.697  0.1660 -0.1688 -0.1781
28512W        W43643   1.599  13.061  13.744  0.3119  0.0961  0.0041
28513W        W43644  10.388  12.995  12.716 -0.0745  0.0186  0.2425
28514W        W43645  10.136   2.328  16.047 -0.0731  0.0553  0.0449
28515W        W43646  12.691  13.963  15.256  0.1850  0.0770  0.5560
28516W        W43647  10.396   4.584   0.359 -0.0309  0.0801  0.3396
28517W        W43648   3.135   2.219  16.771  0.1315 -0.1985  0.1145
28518W        W43649   0.642   0.935   0.563 -0.0337 -0.0709  0.0823
28519W        W43650   9.948   4.534   1.677  0.0945  0.2999 -0.1549
28520W        W43651   5.546  16.156  16.719  0.0581  0.0890  0.0942
28521W        W43652  12.492  15.502  12.379 -0.0675  0.0682 -0.0077
28522W        W43653   7.935   3.000  14.512 -0.0392 -0.0513  0.1985
28523W        W43654   8.479  16.241  12.693  0.2650 -0.4638 -0.1618
28524W        W43655  14.516   1.683  12.640  0.1878 -0.0843 -0.0547
28525W        W43656  13.258   8.131  12.772  0.1795  0.0875 -0.3743
28526W        W43657  10.848   4.529  11.059  0.1426 -0.1801  0.0269
28527W        W43658   3.408   2.015   4.918 -0.1657 -0.0317  0.1618
28528W        W43659   9.378  13.029  15.620 -0.0062  0.0230 -0.0148
28529W        W43660   3.610  13.113  11.761  0.2574 -0.0066 -0.1263
28530W        W43661  10.400   2.786  11.093  0.2572  0.0686 -0.0262
28531W        W43662   5.515   0.560  11.766  0.1806 -0.2554 -0.2782
28532W        W43663   8.826   5.647   3.892 -0.0842  0.0929 -0.1296
28533W        W43664  15.627  13.527  14.011  0.2016 -0.0156 -0.0484
28534W        W43665  10.430   1.871  14.396 -0.1303 -0.2222  0.3166
28535W        W43666  11.672   3.033  13.184  0.3146  0.0003 -0.1656
28536W        W43667  15.576  12.279   3.679 -0.0345  0.2436  0.3295
28537W        W43668  12.439   1.562  14.649 -0.0595 -0.2596 -0.0973
28538W        W43669  17.315   7.925   2.854  0.1156  0.0564 -0.1160
28539W        W43670   8.998  13.368   2.782  0.0686  0.0028  0.0963
28540W        W43671   3.611   3.116   4.460 -0.1309  0.0307  0.2157
28541W        W43672   8.406  13.607   1.158 -0.5276 -0.0371 -0.0523
28542W        W43673   7.060  11.359   1.981 -0.7275 -0.2130 -0.1010
28543W        W43674   2.936  10.725  11.979 -0.3504  0.0065 -0.0932
28544W        W43675  11.623   0.966   5.299 -0.2274  0.0461  0.0109
28545W        W43676   1.000   0.204   4.371  0.2062  0.2375 -0.1469
28546W        W43677  12.992   2.801  11.588 -0.2650 -0.4633 -0.1320
28547W        W43678   5.355   5.607  15.979 -0.1019  0.0452 -0.0079
28548W        W43679   7.547  14.510   3.289  0.1408 -0.2211 -0.2034
28549W        W43680   3.937   7.172   5.763  0.1442 -0.1021  0.2000
28550W        W43681  12.610  14.911  12.311 -0.4747  0.0975  0.1660
28551W        W43682  13.616   4.217  14.682  0.0357  0.1130 -0.0980
28552W        W43683   5.243  13.041  11.263  0.0056 -0.3339  0.1606
28553W        W43684  10.508   3.500   3.804  0.1589  0.0102 -0.0206
28554W        W43685  10.112   7.170   5.128 -0.2815 -0.0929  0.2453
28555W        W43686  14.989  12.749   0.307  0.0889  0.0324  0.1329
28556W        W43687   7.112   1.919   3.242  0.2645  0.2102 -0.0960
28557W        W43688   7.709  11.301  12.493  0.0888 -0.0267 -0.4263
28558W        W43689  13.242   6.300   6.624 -0.2402 -0.2153  0.0644
28559W        W43690  15.690   5.608   2.572  0.0743 -0.0753  0.0129
28560W        W43691  15.547   7.132   4.135  0.0573  0.2873  0.1073
28561W        W43692   5.350  11.992  15.809  0.0085  0.1235  0.2083
28562W        W43693   1.436  16.908   4.533 -0.2007  0.2154 -0.2161
28563W        W43694   4.278   9.085  11.850  0.0295  0.0172 -0.0197
28564W        W43695  13.503   1.520  12.452  0.1205 -0.3634  0.1607
28565W        W43696   8.981  10.551  14.043 -0.2645  0.2512 -0.0020
28566W        W43697   1.047  15.672   2.080 -0.1218 -0.3360 -0.2769
28567W        W43698  13.265   6.741  12.360 -0.1165 -0.1657  0.0388
28568W        W43699  15.283   8.659  13.291  0.3748  0.1074 -0.0744
28569W        W43700  17.062  10.294  11.530 -0.0587  0.2557 -0.1165
28570W        W43701   0.339  10.823  16.603 -0.1473  0.0178  0.1302
28571W        W43702  11.194   3.950  14.913 -0.3188 -0.1623 -0.0605
28572W        W43703  13.420  11.221  11.887  0.2081  0.0261  0.2157
28573W        W43704  13.103   8.884  15.037 -0.1919  0.1437 -0.1346
28574W        W43705   4.632   2.351  16.684  0.1899  0.1796 -0.2815
28575W        W43706  17.771   2.779   3.579  0.1680  0.0056  0.0976
28576W        W43707  13.451  15.325  16.276 -0.0238  0.0996  0.2005
28577W        W43708   1.414  11.213  11.490 -0.0829  0.4268 -0.0759
28578W        W43709  14.106  14.546  13.089  0.0287  0.1912 -0.1828
28579W        W43710   3.712  14.126  12.820 -0.0396 -0.0437 -0.0976
28580W        W43711   6.034  15.729   5.115 -0.0961 -0.3945  0.3926
28581W        W43712   1.726   5.080   0.306 -0.1468 -0.2087  0.0957
28582W        W43713  15.858  12.025   2.661 -0.0907  0.0734  0.0129
28583W        W43714   4.744   6.214   4.553  0.1553  0.0167 -0.1557
28584W        W43715  13.378  10.309   5.374 -0.1157  0.1927 -0.1465
28585W        W43716  15.991  17.058   0.415 -0.2004  0.0850 -0.1495
28586W        W43717  12.899  14.404   1.565  0.0092 -0.2405  0.2412
28587W        W43718  16.028   2.026   2.821 -0.2099 -0.0433 -0.3460
28588W        W43719  10.951  17.414  10.694 -0.1246  0.2493  0.1242
28589W        W43720  17.506   1.132  11.691 -0.3044 -0.1132 -0.0257
28590W        W43721   0.221   4.881   0.850  0.0038 -0.0373  0.4424
28591W        W43722   6.532   6.773  14.476 -0.0248  0.3157 -0.3521
28592W        W43723   6.775  12.190  15.847  0.2422 -0.0665  0.1085
28593W        W43724   1.982  10.624   5.722  0.1001  0.4007 -0.1825
28594W        W43725  11.885   6.193  11.759 -0.0823  0.0225  0.3111
28595W        W43726   1.523   3.808   4.592  0.1697 -0.1701  0.0229
28596W        W43727  17.633  16.978  16.377  0.0587  0.1380 -0.0898
28597W        W43728   2.752  12.050   3.548 -0.0628 -0.2695 -0.2678
28598W        W43729  10.303   2.418   1.881 -0.4430 -0.2375  0.0416
28599W        W43730  15.405  15.046  12.250 -0.1467  0.0305  0.0730
28600W        W43731  11.860  10.412  12.760  0.0572  0.3600 -0.2559
28601W        W43732  15.279   9.019   3.022 -0.0500 -0.3273  0.1922
28602W        W43733   2.293   6.501   2.145 -0.0007  0.2238  0.3782
28603W        W43734   4.312   6.877   6.090  0.0095 -0.0889  0.0479
28604W        W43735  10.180  15.401   3.302 -0.0708  0.2500  0.0663
28605W        W43736   6.396   5.395   1.423 -0.4183 -0.1539 -0.0604
28606W        W43737  13.417  12.341   4.012  0.1797  0.0052  0.0352
28607W        W43738   8.520   5.752   2.999  0.1516  0.1109  0.2841
28608W        W43739   5.037   1.442  16.607 -0.0066 -0.1296  0.0161
28609W        W43740  14.847   6.075  16.369 -0.1603 -0.0850  0.1134
28610W        W43741   0.894   1.628   2.583 -0.0914  0.5261  0.2711
28611W        W43742  11.350  11.145   1.073 -0.5028  0.3976 -0.1993
28612W        W43743   8.840  17.147   1.240 -0.2074 -0.3427  0.2316
28613W        W43744  17.427  11.354   1.425 -0.3005  0.2462 -0.0611
28614W        W43745   1.187  16.602  14.629 -0.1886 -0.0254 -0.0940
28615W        W43746   0.914  17.034  14.731 -0.0575 -0.0073 -0.0521
28616W        W43747  13.255   6.489  14.784 -0.0203 -0.2757 -0.2307
28617W        W43748  14.668   0.273  14.204  0.2743 -0.0297 -0.2105
28618W        W43749  14.263   9.783   3.104  0.2937 -0.2338 -0.3701
28619W        W43750  16.561  14.723   5.489  0.1348  0.2013 -0.2895
28620W        W43751  17.604   3.966   2.082  0.1423  0.0113 -0.1009
28621W        W43752  11.871  13.384  15.414 -0.0262  0.0139  0.0842
28622W        W43753   7.964  17.848   3.082 -0.0649 -0.0975 -0.1226
28623W        W43754   1.260   9.468   5.037 -0.1723  0.5034 -0.1367
28624W        W43755  15.562   6.242   2.410 -0.1709  0.1872  0.0619
28625W        W43756   9.827  12.821  15.237  0.0111  0.1285 -0.2359
28626W        W43757   7.693   6.462  13.788 -0.0768  0.1148  0.0505
28627W        W43758   4.620   5.328  11.782 -0.1230 -0.2002 -0.1892
28628W        W43759   3.453  12.735   6.377 -0.0762  0.0267 -0.0623
28629W        W43760  12.388   6.856  12.776 -0.0201 -0.1373  0.0477
28630W        W43761  15.846   8.143   2.204  0.0853 -0.0362 -0.0179
28631W        W43762   1.259   7.629  13.112 -0.0528 -0.1240 -0.0440
28632W        W43763  12.503   8.754  11.298 -0.0716 -0.2670 -0.0531
28633W        W43764   4.541  11.322   2.586  0.2707  0.1320  0.2952
28634W        W43765  13.174   5.451   2.907 -0.3369  0.1996 -0.0593
28635W        W43766  13.408   9.202  11.573  0.0806 -0.1040 -0.1506
28636W        W43767   3.850   7.711  12.118  0.1248  0.2928  0.1688
28637W        W43768  14.291  14.648  15.938  0.0120  0.1689  0.1105
28638W        W43769   6.983   8.316   3.352  0.0956 -0.1544  0.2182
28639W        W43770   5.733   2.928  10.597  0.0505 -0.0247  0.1070
28640W        W43771   5.125  14.341  16.397  0.2063 -0.0135  0.1752
28641W        W43772   7.056   7.038   2.721 -0.1837  0.0350 -0.0794
28642W        W43773  16.680   2.510   0.204 -0.1667  0.0413  0.4567
28643W        W43774   6.089   4.800   2.178  0.1654 -0.3911  0.2042
28644W        W43775   2.413   5.502   3.588  0.1532  0.0512  0.1240
28645W        W43776  13.335  14.172  14.924  0.0383 -0.0877 -0.3705
28646W        W43777   0.460   3.436   4.570 -0.2655 -0.1294  0.0651
28647W        W43778  16.994   2.697  14.190 -0.1493  0.1007  0.0113
28648W        W43779   3.775  12.362   5.490  0.1258 -0.0634 -0.0059
28649W        W43780  10.434  17.375  11.476  0.1344 -0.0965  0.1095
28650W        W43781   6.094  14.548   0.755 -0.0278 -0.0659 -0.0138
28651W        W43782  16.350   1.961  13.940 -0.0172  0.3575 -0.0532
28652W        W43783   5.932  10.112   2.356  0.1457  0.0601  0.0081
28653W        W43784  16.460   2.101  13.457  0.0141  0.2782  0.1776
28654W        W43785   7.367  10.112  14.546 -0.2366 -0.2886  0.1943
28655W        W43786  16.048   0.484   2.827  0.2814  0.0771 -0.4814
28656W        W43787  10.626  11.721  15.370  0.3102  0.1226  0.0944
28657W        W43788  11.004   2.213   5.130 -0.1240 -0.0301  0.0004
28658W        W43789  16.545  11.629  14.028 -0.0985  0.0060  0.1111
28659W        W43790   3.177   0.466   6.611  0.0467  0.2298  0.2220
28660W        W43791  12.378   6.028  14.929 -0.0313  0.1895  0.1684
28661W        W43792   4.614   9.256  14.645 -0.0533 -0.1500 -0.0318
28662W        W43793   8.196   2.754   1.095 -0.0522  0.3515  0.2272
28663W        W43794  12.214   0.735  12.745  0.0440 -0.2501 -0.2366
28664W        W43795  17.124  10.121   2.080 -0.4084 -0.2233  0.0184
28665W        W43796   5.092   1.887   2.207  0.0186  0.3586  0.1139
28666W        W43797  14.282   0.379   1.680 -0.2808  0.1097  0.1026
28667W        W43798  17.585  16.233  10.811  0.1786 -0.0234 -0.1635
28668W        W43799   7.271   6.010  14.699  0.0652  0.2414 -0.0712
28669W        W43800  15.392   6.150  13.783 -0.0741  0.0152 -0.0707
28670W        W43801  14.655   3.867   2.960  0.0166 -0.1119 -0.0536
28671W        W43802  11.211   9.676  12.342  0.0352 -0.1378 -0.0110
28672W        W43803   5.751  16.753  13.412  0.0042  0.2056 -0.1746
28673W        W43804   2.631   5.179   3.946 -0.4155  0.2369  0.4960
28674W        W43805  15.926  14.357   5.475  0.2707 -0.2871 -0.2163
28675W        W43806   6.560   1.730  14.068 -0.2165  0.2787  0.0803
28676W        W43807   7.099  17.494  16.202 -0.1091 -0.2480 -0.3330
28677W        W43808  13.677  13.820  15.116 -0.1353 -0.1602  0.4073
28678W        W43809  14.204  16.519  12.327 -0.0544 -0.0684  0.2169
28679W        W43810  12.621   8.218  14.507  0.2607 -0.1485  0.0115
28680W        W43811  12.740   9.715  13.164 -0.0421  0.0730 -0.3172
28681W        W43812  16.337  17.659   5.303 -0.0631  0.2967  0.0818
28682W        W43813   1.174   3.433  12.848 -0.1754 -0.1026 -0.3356
28683W        W43814   9.925   5.019  13.569  0.3142 -0.2245 -0.0206
28684W        W43815  13.721   5.426   3.226  0.2112  0.0727 -0.1092
28685W        W43816  11.627  15.412   3.128  0.0861 -0.3593  0.2375
28686W        W43817   3.570   5.017   3.956 -0.0746  0.1809  0.3117
28687W        W43818   5.053  17.310   1.261  0.1442  0.0713 -0.1201
28688W        W43819  11.361  10.851   2.312  0.2283  0.3927 -0.1683
28689W        W43820   4.865   8.677   1.439 -0.0202  0.0589  0.2229
28690W        W43821   9.567   5.868   5.018  0.1837 -0.2021 -0.1348
28691W        W43822  10.143  14.504   3.039  0.3844 -0.0469 -0.0287
28692W        W43823  17.259  15.929   2.080  0.1686 -0.4114 -0.1815
28693W        W43824   4.385   8.062  15.389 -0.1130 -0.1471  0.1094
28694W        W43825  16.653  12.033  14.443  0.2658  0.1346 -0.4228
28695W        W43826   4.619   6.592   5.860 -0.1120 -0.0291 -0.0259
28696W        W43827  15.298   7.168  15.034 -0.0331  0.2023 -0.1157
28697W        W43828   8.104   2.211   3.114  0.2535 -0.1130  0.0748
28698W        W43829   6.968  15.475   5.287 -0.1251 -0.3040 -0.0442
28699W        W43830   2.691  14.571  15.781  0.2708 -0.0335 -0.0296
28700W        W43831   4.270  14.280  16.414 -0.0493 -0.0786 -0.0067
28701W        W43832  14.446  13.121  14.330  0.0478  0.0869  0.2132
28702W        W43833  10.812  14.398   2.380 -0.1119  0.0243  0.0706
28703W        W43834  15.413   3.427   2.489 -0.0781 -0.2048  0.0498
28704W        W43835   6.384  15.896  16.604  0.2688  0.2027  0.1194
28705W        W43836   6.541   9.954  13.243 -0.0909 -0.1713  0.4919
28706W        W43837   9.953  15.235  11.804  0.0675  0.2912 -0.1434
28707W        W43838  10.696   2.105  14.851 -0.1199  0.3425 -0.2278
28708W        W43839  15.770  13.568  16.342 -0.2194 -0.0406  0.0746
28709W        W43840  11.820   2.354   3.149 -0.0571  0.2607  0.0056
28710W        W43841  15.461   8.169   2.579 -0.2468  0.1200 -0.1271
28711W        W43842  12.070   0.312  16.682  0.0212  0.0715  0.1607
28712W        W43843  13.565   5.839  11.319 -0.1567 -0.0359 -0.0293
28713W        W43844   9.741  14.354   2.257  0.1216 -0.0184 -0.1401
28714W        W43845  15.083   1.515  14.946 -0.2069  0.0662 -0.1396
28715W        W43846  17.552   3.900  13.323  0.2060 -0.0584  0.1003
28716W        W43847  17.461  13.193   0.385 -0.0910 -0.1174  0.0669
28717W        W43848   5.568   7.286  12.446  0.3099  0.1370  0.1098
28718W        W43849   1.379  10.444   5.804  0.2458 -0.0557 -0.0798
28719W        W43850   2.512   9.356  16.335 -0.3179  0.0511 -0.0481
28720W        W43851   5.488   0.947   4.833 -0.0846  0.0563 -0.1517
28721W        W43852   4.472  14.983  12.178  0.6014 -0.0555 -0.3494
28722W        W43853  17.283   3.107  14.322  0.2666 -0.0381  0.0384
28723W        W43854   7.669  11.121   5.728 -0.1372  0.0023  0.1269
28724W        W43855   6.601  16.089   1.911 -0.1264 -0.1993 -0.0349
28725W        W43856   6.223  12.220  16.728  0.3578 -0.1244  0.1088
28726W        W43857  17.285  12.351  12.535  0.5219 -0.1325 -0.1192
28727W        W43858   9.043  13.822   1.365 -0.0184 -0.0340 -0.1073
28728W        W43859   2.786   1.175   4.287  0.1215  0.2818  0.1153
28729W        W43860   9.209   4.762   1.798 -0.1562 -0.1354  0.1540
28730W        W43861  15.815   6.242   5.252 -0.1832 -0.0110 -0.0312
28731W        W43862   5.771   6.915  13.012  0.1120  0.2671 -0.0045
28732W        W43863   8.657  13.722   4.265 -0.1247  0.0576  0.1965
28733W        W43864  12.943   7.560   3.185 -0.3639 -0.1339 -0.3783
28734W        W43865   5.063   3.784  13.774  0.2100 -0.2431 -0.2090
28735W        W43866  11.181   4.937  11.901 -0.0588  0.0886  0.1516
28736W        W43867  17.155   6.546   2.975 -0.0944 -0.1820 -0.0054
28737W        W43868   9.022  12.499   1.257 -0.2295 -0.0653  0.2040
28738W        W43869  16.827   1.893  14.642 -0.1622  0.1176  0.1901
28739W        W43870   2.102   4.350  12.731 -0.0563 -0.0870  0.0741
28740W        W43871  10.673   2.039  13.976  0.1878 -0.1236  0.2513
28741W        W43872   2.406  12.298   4.849  0.2755  0.3147 -0.0820
28742W        W43873  11.606  11.959   3.693 -0.1361 -0.1854 -0.0224
28743W        W43874  12.899   2.198   2.139  0.0737  0.2631 -0.1290
28744W        W43875   8.060  11.437  14.140 -0.3909  0.0855 -0.0437
28745W        W43876  10.061  15.234  11.304  0.4324  0.1448 -0.0710
28746W        W43877   4.723   8.162   2.290  0.2933  0.1373 -0.0484
28747W        W43878   1.752  13.446   0.760  0.2903  0.0266 -0.1358
28748W        W43879  11.813  10.686   4.417  0.1094 -0.1540 -0.1637
28749W        W43880  10.579   2.676   2.273 -0.1891 -0.0729  0.1393
28750W        W43881   7.110   1.049  14.504 -0.1148  0.3240  0.1170
28751W        W43882  13.768   9.865  13.218  0.0322  0.0288  0.2206
28752W        W43883   3.854   1.065  10.784  0.2635 -0.0660  0.1628
28753W        W43884   9.203  13.763  16.565  0.1571  0.0007  0.1863
28754W        W43885   6.717   1.566   3.215 -0.2353 -0.1150 -0.1029
28755W        W43886   1.462  10.450   2.656 -0.0214  0.0836  0.0059
28756W        W43887  12.837   9.127  13.734 -0.1620 -0.1959 -0.0951
28757W        W43888   2.102  12.058  12.257 -0.0767  0.1824 -0.2710
28758W        W43889   7.591   3.820  15.349 -0.2576 -0.1820  0.0567
28759W        W43890  13.309   2.553   5.703 -0.0181 -0.2590 -0.0490
28760W        W43891   2.737   2.476  12.667  0.3852 -0.1554  0.1686
28761W        W43892   2.722   7.727  16.139 -0.1117 -0.1712  0.0010
28762W        W43893   7.877   2.715  13.360 -0.1096  0.0427  0.1076
28763W        W43894   7.413   4.404  10.528 -0.0716  0.0239  0.0673
28764W        W43895  14.627   5.915   4.731  0.1239 -0.2131  0.1074
28765W        W43896  13.806   8.008  11.896 -0.2046  0.1385 -0.1509
28766W        W43897   9.199  15.759  13.456  0.0444  0.0142 -0.0376
28767W        W43898  11.065  14.097  12.712  0.3143 -0.3567 -0.4581
28768W        W43899   8.542   2.426   0.913  0.1581 -0.3083  0.1648
28769W        W43900  12.373  14.128   4.199 -0.1771 -0.3298 -0.1518
28770W        W43901   8.548  11.108   0.311 -0.2586  0.2827 -0.1025
28771W        W43902  16.403  11.660   4.562  0.0802  0.2882  0.0072
28772W        W43903   5.475   9.626  14.273 -0.0338 -0.0978 -0.0961
28773W        W43904  17.112  13.684  16.470  0.0436 -0.1303 -0.0146
28774W        W43905  11.434   9.273  13.257 -0.2024  0.3280  0.1280
28775W        W43906  16.052   2.746  14.924 -0.2296  0.1923 -0.0990
28776W        W43907   8.967   1.105   5.624 -0.0155 -0.1653 -0.1995
28777W        W43908   5.728  14.661  16.371  0.1067 -0.1805  0.1233
28778W        W43909  11.702   8.500   2.076  0.4222 -0.1487  0.0232
28779W        W43910  12.828  10.663   4.034 -0.1779 -0.2200 -0.0216
28780W        W43911   2.798  10.173  13.207  0.0120 -0.0393  0.1018
28781W        W43912  17.530   2.215   2.119  0.0705  0.2837  0.0010
28782W        W43913   1.085   6.684  11.466  0.0328 -0.1290  0.3070
28783W        W43914   3.059  14.023  13.464  0.0785 -0.3629 -0.0436
28784W        W43915   9.655  13.690  16.360  0.2014 -0.0553 -0.0525
28785W        W43916  16.882   8.861  12.664 -0.0202  0.1330 -0.1057
28786W        W43917   7.931  12.212  12.779 -0.0625  0.0711  0.2172
28787W        W43918  10.688   2.279   1.539  0.2207 -0.2495 -0.2065
28788W        W43919   1.076  11.303   5.781  0.0700  0.1736  0.0297
28789W        W43920   1.955   5.954  14.633  0.2799  0.0819 -0.2583
28790W        W43921   2.155   4.709  13.085 -0.1327 -0.2304 -0.1919
28791W        W43922  13.611  17.011  13.327  0.1235 -0.0264 -0.1129
28792W        W43923  13.123   9.332   2.699  0.4010 -0.1667 -0.0685
28793W        W43924   0.016   0.824   0.039 -0.0809  0.1062 -0.2659
28794W        W43925   3.618  14.472   3.008  0.4026 -0.0771  0.2250
28795W        W43926   2.224  13.949   3.758  0.0400 -0.3176 -0.3586
28796W        W43927   4.265   9.927   1.020 -0.0785 -0.3311  0.2086
28797W        W43928   6.991  11.048  16.281  0.3026 -0.0049  0.1266
28798W        W43929   2.179   8.255  12.531  0.1147  0.1182 -0.1031
28799W        W43930   1.951  12.193   2.322 -0.2830 -0.0862  0.3796
28800W        W43931   4.936   2.702   0.149  0.0572  0.1458  0.0243
28801W        W43932  12.264  11.058   6.167  0.0221 -0.2978 -0.0134
28802W        W43933  14.678  13.584   1.227  0.0692 -0.2813  0.2465
28803W        W43934   4.765  11.768   6.363 -0.1397 -0.2312 -0.0761
28804W        W43935  13.605  15.934   3.655  0.0075 -0.0323  0.0277
28805W        W43936  15.582   1.089  13.382 -0.1313 -0.0952 -0.0575
28806W        W43937   0.102  17.491  15.586  0.1975 -0.0011 -0.0439
28807W        W43938   8.210  16.695   4.939 -0.0336  0.1917  0.1064
28808W        W43939   2.067  11.684   5.593 -0.0932 -0.0123 -0.2542
28809W        W43940   7.675  13.922  12.672  0.3441 -0.2520  0.0565
28810W        W43941  10.750   6.741   2.712  0.1668 -0.0936 -0.0899
28811W        W43942  10.046  17.276  13.757  0.0410 -0.0082  0.2111
28812W        W43943  16.329   7.964   2.218  0.2499  0.0441  0.1936
28813W        W43944   4.651  12.908  10.725 -0.3464  0.0240 -0.0669
28814W        W43945  12.065  12.726   5.266  0.0310  0.2769  0.0620
28815W        W43946  17.673   6.177   0.415  0.3112  0.2590 -0.0868
28816W        W43947  13.456   5.213   5.053  0.0568 -0.3218 -0.1367
28817W        W43948  14.547   9.219   3.795  0.1985  0.0306  0.1602
28818W        W43949   2.096   1.691   4.366 -0.2164  0.2978 -0.0417
28819W        W43950   4.606   8.451  15.863 -0.1262 -0.1998 -0.0593
28820W        W43951   1.451   6.545  12.342  0.3946  0.0984 -0.1185
28821W        W43952   5.452   1.566   2.286  0.0937 -0.1352 -0.1335
28822W        W43953  10.981   0.472  10.164  0.1594 -0.0050 -0.1108
28823W        W43954  13.430  16.532   2.151 -0.0522 -0.3144  0.1636
28824W        W43955  11.992   7.502   2.189  0.2350  0.2493  0.0422
28825W        W43956  14.828   0.386  11.596 -0.2250 -0.0567  0.3163
28826W        W43957  12.392  16.651  13.402 -0.2248  0.0867 -0.0159
28827W        W43958   4.897   4.937   4.093 -0.0514  0.0598 -0.1537
28828W        W43959  16.887  14.962   3.208 -0.0752 -0.1161  0.1277
28829W        W43960  10.141   7.034  16.450 -0.1007  0.2571  0.1621
28830W        W43961   7.277   6.594   2.527  0.1768  0.0454 -0.3502
28831W        W43962   0.848   5.885   0.206  0.0623  0.2365  0.1136
28832W        W43963   8.893  12.844  15.565  0.0935  0.1621 -0.1190
28833W        W43964   3.096   0.458   2.396 -0.0046  0.0256  0.1039
28834W        W43965  13.675   3.927   3.872 -0.0925  0.0118  0.3076
28835W        W43966  14.348  14.335  16.346 -0.0361 -0.0093  0.3813
28836W        W43967  16.983   0.140  11.569  0.0800  0.1453 -0.0531
28837W        W43968  16.465   9.595  16.136 -0.0153  0.0750 -0.2089
28838W        W43969  14.183  13.301  16.242  0.1396  0.0710  0.1725
28839W        W43970   7.709   6.654   1.710  0.1796 -0.2426  0.0154
28840W        W43971   5.639  14.181  12.553 -0.1643 -0.0375  0.1184
28841W        W43972   3.074   1.802   5.709  0.0941 -0.1968 -0.4233
28842W        W43973  10.511  13.521   4.808 -0.0739  0.1053  0.0781
28843W        W43974   7.877  14.199  11.510 -0.1044 -0.2421  0.0605
28844W        W43975  10.582   4.889  12.905  0.0019  0.0032  0.1921
28845W        W43976  17.101   4.795   0.699  0.1357  0.1248  0.1161
28846W        W43977  14.838   6.866   1.254 -0.0852 -0.0535 -0.0414
28847W        W43978  12.042  14.774   1.729  0.0613  0.2479  0.2232
28848W        W43979   4.907   7.128  16.328  0.4595 -0.1475  0.2959
28849W        W43980   8.432  17.426  15.678  0.0800  0.0408 -0.0166
28850W        W43981   6.308   4.039  14.949 -0.0750  0.1489  0.1723
28851W        W43982   7.595   4.069  15.756 -0.2764 -0.2421  0.2470
28852W        W43983  16.325   7.041   2.989  0.1201  0.0686  0.2056
28853W        W43984  10.835  10.594  13.502 -0.2707 -0.2234 -0.1186
28854W        W43985  16.352   1.888  14.500  0.2761 -0.3069  0.1141
28855W        W43986   6.219   9.485   1.623 -0.1131  0.0207  0.0060
28856W        W43987  16.640  15.432   2.649  0.2349  0.0834  0.0198
28857W        W43988  16.935   7.745   0.026 -0.1634 -0.1000 -0.2991
28858W        W43989   5.966  12.295   0.384 -0.3361  0.0983  0.1499
28859W        W43990  16.905  16.308   0.869  0.1646 -0.1054  0.1514
28860W        W43991   0.908   0.586   5.815  0.1109 -0.1568  0.2508
28861W        W43992  11.864  15.472   0.233 -0.1343  0.0750 -0.0195
28862W        W43993  12.386  10.207  16.710 -0.0450  0.2023 -0.0884
28863W        W43994   6.516  12.464   5.203  0.4325  0.0375 -0.2738
28864W        W43995   5.539   4.725  15.676 -0.0130  0.1241  0.1724
28865W        W43996   5.456  12.053  14.613  0.0182 -0.0141 -0.1181
28866W        W43997   1.552   3.351   1.101  0.1680  0.2120  0.0778
28867W        W43998  14.803  15.531  15.264 -0.0221  0.0062  0.1820
28868W        W43999   4.974  15.425  12.747 -0.0164 -0.1757 -0.0767
28869W        W44000   7.741  13.946  13.218 -0.0321  0.1059  0.3249
28870W        W44001   8.449  17.417   1.510 -0.1716  0.1846  0.1719
28871W        W44002   4.697   5.222  14.104 -0.2367  0.1611 -0.1022
28872W        W44003  15.540  14.290   2.625  0.0057  0.0227 -0.1312
28873W        W44004   4.421   2.781   1.015 -0.1791 -0.1599 -0.2561
28874W        W44005   0.665  14.810   5.928 -0.1350  0.1696  0.0977
28875W        W44006  13.459   8.470  14.002 -0.1931  0.0692  0.1662
28876W        W44007  12.383   2.301   1.746  0.1275 -0.0391 -0.1420
28877W        W44008   5.595   9.368  12.847  0.1739 -0.1449  0.1432
28878W        W44009  16.525   9.880  12.687  0.1416  0.0485 -0.1742
28879W        W44010   5.200   7.954   1.104 -0.1138  0.0665  0.1046
28880W        W44011   9.196   0.466   3.546 -0.2730 -0.1719 -0.0211
28881W        W44012   3.180  12.888   1.944 -0.2910 -0.1327  0.1912
28882W        W44013   7.132  10.072  13.536 -0.0890  0.1550  0.1470
28883W        W44014  15.533   4.734   2.441  0.0583  0.0172 -0.0668
28884W        W44015   6.532   2.912  13.517 -0.1177  0.0921  0.0166
28885W        W44016  17.085  12.221   0.500  0.2045  0.1464 -0.0515
28886W        W44017  12.486  11.719  14.866  0.0904  0.1648  0.1142
28887W        W44018   1.125  17.520   3.728  0.0503  0.0038  0.1185
28888W        W44019  12.626  14.381  11.287 -0.0436  0.1425 -0.0883
28889W        W44020   1.972   2.103   0.789 -0.1664 -0.2815 -0.0941
28890W        W44021   7.905  13.681  11.371  0.2465 -0.0008 -0.0460
28891W        W44022   7.527   8.983   5.473 -0.0386 -0.4191  0.1216
28892W        W44023  12.541  11.308   4.981  0.0866 -0.2464  0.1910
28893W        W44024   1.259  16.161  14.349  0.0308  0.0001  0.1615
28894W        W44025   7.005   9.796   3.400 -0.1105 -0.4404  0.0114
28895W        W44026   7.353  15.430   4.981 -0.2830  0.0831  0.0557
28896W        W44027   1.506   0.391   2.790  0.0646  0.1021 -0.1930
28897W        W44028  15.913   8.206  12.468 -0.3341 -0.0804  0.0443
28898W        W44029   3.542  11.282   2.322  0.0365 -0.2417  0.0889
28899W        W44030   2.661  10.860   5.291 -0.2781 -0.1768  0.0024
28900W        W44031  14.879  16.279  16.583  0.1604  0.4071 -0.1141
28901W        W44032   1.823   2.495  14.667 -0.3097 -0.0332 -0.2461
28902W        W44033  13.930  11.914   4.866 -0.0401  0.0531 -0.1741
28903W        W44034   2.656   0.008   6.072 -0.0280  0.2461 -0.0098
28904W        W44035  13.582   8.236  16.368 -0.4112  0.0373  0.2470
28905W        W44036  11.401  14.723  14.000  0.2730 -0.1711  0.3728
28906W        W44037   5.973   6.492   3.995 -0.2781 -0.1142  0.1324
28907W        W44038  11.138   4.666  15.770  0.1624 -0.0546 -0.1063
28908W        W44039   2.416   7.267   5.421  0.1167 -0.2198  0.0127
28909W        W44040  11.867   2.674   6.011 -0.2679  0.0524 -0.2672
28910W        W44041   1.146   9.402   0.903  0.1308 -0.1606  0.0134
28911W        W44042  17.011  16.103  14.254 -0.2307 -0.0348  0.1173
28912W        W44043  14.710  12.266  14.580 -0.0346 -0.0519 -0.0233
28913W        W44044  12.745   8.275   1.065 -0.0093  0.0958 -0.1721
28914W        W44045   4.306   2.736  13.400 -0.3013 -0.2843  0.2125
28915W        W44046  14.797   4.435   2.006  0.1085  0.0961  0.0136
28916W        W44047   5.980  15.393  13.683  0.0474  0.1598 -0.1216
28917W        W44048   1.267  10.992  14.213  0.0946  0.2841  0.2282
28918W        W44049   3.797   2.433  11.827  0.3061  0.3148 -0.2848
28919W        W44050   4.500   2.892  14.226 -0.0185 -0.0308  0.2909
28920W        W44051  12.031   1.028   3.512  0.2105  0.1294  0.0230
28921W        W44052   3.522  17.442   4.117  0.0589 -0.2474 -0.1001
28922W        W44053  14.377  17.228   5.359 -0.1362 -0.0126  0.1712
28923W        W44054  12.107   1.438   3.192 -0.0422  0.2209 -0.2630
28924W        W44055   7.316   5.050  14.455 -0.2233 -0.1159 -0.3102
28925W        W44056   9.005   9.935   3.620  0.3167  0.1275  0.0176
28926W        W44057   7.760   4.214  13.139  0.0303 -0.0781 -0.4462
28927W        W44058  12.065   8.312   6.241 -0.1086  0.3325  0.0829
28928W        W44059  12.837   3.176   3.744  0.0126  0.0894 -0.1947
28929W        W44060  12.659  14.903  10.441 -0.1677 -0.0602 -0.0301
28930W        W44061   4.252   0.508  12.906 -0.0303  0.0789  0.1234
28931W        W44062  12.874  13.386   5.299  0.0813  0.1616  0.0038
28932W        W44063  17.170   0.195   5.681 -0.0385 -0.3092  0.1668
28933W        W44064   5.959  10.511   1.427  0.1379 -0.1918 -0.0068
28934W        W44065  15.189   2.965  12.714 -0.1083  0.1357 -0.0591
28935W        W44066  17.010   8.584  13.592  0.2043  0.4234 -0.0033
28936W        W44067   1.026   3.042   1.812 -0.0103  0.0991  0.0456
28937W        W44068   5.926  16.870   1.383 -0.1271 -0.0903 -0.1825
28938W        W44069  14.848   2.887   1.122 -0.0402  0.1843  0.0186
28939W        W44070   2.077  13.879   3.259  0.2044  0.0829  0.0977
28940W        W44071  12.346   5.921  16.386 -0.2298 -0.2568 -0.1127
28941W        W44072   9.341   2.158   5.581  0.1258  0.2933  0.1425
28942W        W44073   3.449   3.927  13.802  0.1019  0.1322 -0.0350
28943W        W44074   6.659  11.684  16.126  0.1159  0.0458 -0.1950
28944W        W44075  12.824  11.731   0.331 -0.0385  0.0610 -0.1371
28945W        W44076  10.058   5.207   4.391 -0.5046 -0.0221 -0.0765
28946W        W44077  13.485   6.346  13.980  0.1646 -0.0289 -0.1224
28947W        W44078   4.847   5.493  12.623  0.0159  0.1757  0.0136
28948W        W44079   9.645  14.329   1.018  0.1555  0.0209 -0.0272
28949W        W44080   4.970   3.666  12.057 -0.0429 -0.0230  0.0208
28950W        W44081   2.624   6.567   5.926 -0.0224  0.0459  0.1790
28951W        W44082   0.251  17.485   4.037  0.1588  0.3066 -0.0314
28952W        W44083  11.438   4.473   4.554 -0.0195 -0.1776 -0.2248
28953W        W44084  15.982   2.046  11.751 -0.1656 -0.4455  0.2081
28954W        W44085   4.024   2.827   4.480 -0.0519  0.0250  0.1093
28955W        W44086   2.094  10.131  11.224  0.0226  0.1228  0.2146
28956W        W44087  15.008   1.288  10.576  0.0956 -0.5148 -0.3172
28957W        W44088  15.512   5.465   5.594 -0.0711  0.0741  0.1500
28958W        W44089   1.344  11.132  10.885 -0.0539  0.0917 -0.0652
28959W        W44090  17.185   4.035   1.672 -0.1182  0.0966  0.0891
28960W        W44091   7.262   1.242   0.130 -0.0602 -0.2087 -0.0101
28961W        W44092   2.036  11.828  11.654  0.0370 -0.0289 -0.3118
28962W        W44093  11.923   0.705   3.970 -0.0109  0.0292  0.0216
28963W        W44094  15.577   1.698   2.237 -0.0230 -0.4239 -0.2406
28964W        W44095   8.318  12.800  11.644  0.0642  0.2337 -0.1055
28965W        W44096   6.526  11.878  12.843 -0.0927  0.0187 -0.0632
28966W        W44097  15.499  14.122  15.140 -0.0541  0.1735  0.6021
28967W        W44098  16.623  14.234   3.919  0.2428 -0.0371  0.1409
28968W        W44099  17.863   5.283  12.060  0.1801 -0.2512 -0.1924
28969W        W44100  17.199   9.755   3.569 -0.0970  0.0047 -0.2411
28970W        W44101   3.112  16.968   2.484  0.1043  0.2388  0.1335
28971W        W44102   3.297  11.627  12.796  0.0255  0.0199 -0.1211
28972W        W44103   1.456  12.103   1.503  0.0981 -0.0533  0.3920
28973W        W44104   8.762   0.444   5.810 -0.0687  0.2687  0.1618
28974W        W44105  11.839  12.904  15.122  0.2570 -0.4072 -0.1685
28975W        W44106   0.065   9.393   0.768 -0.1186 -0.1374 -0.2268
28976W        W44107   4.489  14.934   0.842  0.2223  0.1366 -0.0428
28977W        W44108  13.613  10.661   1.392  0.0324 -0.0212  0.1834
28978W        W44109  15.197  11.433  16.270  0.0008 -0.0083  0.2444
28979W        W44110   2.154  12.757  11.472 -0.4891 -0.0445 -0.2196
28980W        W44111  15.740   4.941   4.790 -0.1683 -0.1314  0.5658
28981W        W44112   3.838   1.924   1.399 -0.2801 -0.0149 -0.0777
28982W        W44113  16.272   7.361   4.030  0.0091 -0.2003 -0.1610
28983W        W44114   6.725   6.852   5.103 -0.1536  0.4407  0.2229
28984W        W44115   9.439   7.339   1.865  0.1457  0.0860 -0.0416
28985W        W44116   7.614  10.046  14.098  0.1888  0.1905 -0.0778
28986W        W44117  14.464   0.433  12.331  0.0244 -0.1133  0.2396
28987W        W44118   4.847   0.786   3.668 -0.2167  0.3206  0.0915
28988W        W44119   7.097  17.396   6.299 -0.0150  0.1668 -0.0148
28989W        W44120  15.350   1.129  11.611 -0.4724  0.0567 -0.3144
28990W        W44121   1.278  10.643   4.620 -0.2715 -0.2463 -0.1506
28991W        W44122   4.258  12.560  15.730  0.1890 -0.2135  0.1718
28992W        W44123   6.340   5.405   4.586  0.1596  0.0747 -0.0930
28993W        W44124   7.906  13.916   5.358  0.1787 -0.2008  0.2992
28994W        W44125  12.810   5.066  11.350  0.0293 -0.0163 -0.1714
28995W        W44126  10.110   9.203   2.171 -0.1340 -0.0823  0.0383
28996W        W44127  15.385  17.525  13.099  0.0974 -0.3055  0.0876
28997W        W44128  17.817   8.431  15.189 -0.1290 -0.0343 -0.1110
28998W        W44129   9.658  16.005  15.951  0.0106  0.0285  0.1010
28999W        W44130   6.154  12.264   3.461  0.2519 -0.2370  0.0356
29000W        W44131   3.077   2.528   3.782  0.0338 -0.0845 -0.0172
29001W        W44132  11.803  14.145  11.070  0.3484  0.1043  0.0696
29002W        W44133  10.449   3.407   5.142 -0.2207  0.1056 -0.0697
29003W        W44134   8.976   8.700   0.611  0.0938 -0.0167 -0.0780
29004W        W44135   5.824   3.007   2.950 -0.2328 -0.1784  0.2473
29005W        W44136   4.063   8.479   1.972 -0.1583 -0.1596 -0.0475
29006W        W44137   0.128   0.886   0.568 -0.1548  0.0686 -0.3131
29007W        W44138  16.109   5.362   2.486 -0.0377 -0.0346 -0.1700
29008W        W44139  13.024   9.996   2.666 -0.0984 -0.2217 -0.1544
29009W        W44140   9.578   2.178  15.273  0.0659  0.2294 -0.0033
29010W        W44141  12.920   2.434  11.975  0.0357  0.0444  0.1158
29011W        W44142   9.800   1.844   2.515 -0.0314 -0.1495  0.0220
29012W        W44143   9.735  10.165  13.156  0.2700 -0.1078 -0.0901
29013W        W44144   7.829  15.098   4.561  0.1000  0.1446 -0.0615
29014W        W44145   3.684   9.606  12.650 -0.1755 -0.2015 -0.1498
29015W        W44146  11.251  13.040   5.252 -0.2065 -0.1785  0.1260
29016W        W44147   5.178   5.902  12.628  0.3022  0.4063 -0.4925
29017W        W44148   2.208  11.411  13.262 -0.1561  0.0954  0.5296
29018W        W44149   7.731   2.544   2.189 -0.2687  0.1044 -0.0437
29019W        W44150   3.264   2.209  14.871  0.1093  0.2244 -0.2164
29020W        W44151  10.028  16.135  12.648 -0.0662 -0.0862 -0.2908
29021W        W44152   3.513   9.808   3.804  0.2698 -0.0308 -0.1906
29022W        W44153   5.242  14.285   1.082  0.2109 -0.1992 -0.1739
29023W        W44154  10.669  17.325   3.169  0.4334  0.2400 -0.0400
29024W        W44155  12.224  12.273   0.467  0.3124 -0.2590  0.1204
29025W        W44156  17.404   6.616  15.533 -0.1332  0.3904 -0.0952
29026W        W44157   1.574   7.690  14.826 -0.2064  0.2765 -0.2950
29027W        W44158  10.799   9.186   1.434  0.0780  0.0611 -0.4317
29028W        W44159   7.322   6.363   3.651 -0.1709  0.0484  0.2621
29029W        W44160   2.019   8.801  12.211 -0.3481  0.2634 -0.1424
29030W        W44161  12.363   3.328   3.108  0.0645 -0.2048 -0.4386
29031W        W44162  16.328  15.885  13.087  0.2425  0.2310  0.0471
29032W        W44163  16.795  13.524   0.663 -0.0904  0.0364  0.1830
29033W        W44164  15.974  17.809   4.126 -0.1510 -0.1969 -0.1453
29034W        W44165  13.895  11.428  11.892  0.1310  0.1868 -0.1675
29035W        W44166  14.821  11.829  11.840 -0.1252  0.0267 -0.1745
29036W        W44167   1.230   7.772  15.153 -0.0697 -0.2276 -0.1612
29037W        W44168  16.317  10.845   3.178 -0.1866  0.1150  0.0089
29038W        W44169   5.445   4.318   1.131  0.0184  0.1623 -0.1847
29039W        W44170   2.967   6.942  12.269 -0.0459  0.2593 -0.1544
29040W        W44171   1.166  16.535  11.168  0.0328  0.0849  0.1200
29041W        W44172   3.833   5.403   2.340 -0.0642  0.2778  0.0440
29042W        W44173  14.171   1.622  14.337 -0.4593  0.0426  0.0018
29043W        W44174  10.229   5.410  14.857  0.0123 -0.1405 -0.0393
29044W        W44175  16.986  14.720   2.164 -0.0891 -0.0692  0.0614
29045W        W44176   5.178  11.720  14.008  0.2717  0.4047 -0.1674
29046W        W44177  17.109   8.678   5.626  0.3469  0.1337 -0.0215
29047W        W44178  14.072  13.662   5.531 -0.1041  0.1512 -0.0514
29048W        W44179   0.508   4.255   2.417 -0.1631  0.2175  0.0281
29049W        W44180  11.279   5.678   3.965  0.0975 -0.1734 -0.0846
29050W        W44181  10.438   7.384   4.827 -0.0074 -0.0489 -0.2332
29051W        W44182   1.424   1.749   2.495  0.0467  0.0473 -0.0767
29052W        W44183  10.853   5.736  16.051 -0.1049  0.0040  0.0486
29053W        W44184   7.648   0.750  13.137  0.1019 -0.1132  0.0723
29054W        W44185   5.849   9.276  13.219 -0.0768 -0.0626  0.1309
29055W        W44186   1.300   9.428   5.851 -0.0399  0.3078  0.1912
29056W        W44187  16.035  16.814   3.418  0.1724 -0.2109 -0.2102
29057W        W44188   9.421  17.824   5.228  0.1802 -0.0711 -0.1021
29058W        W44189   3.596   4.480   1.324  0.1186 -0.0004 -0.0557
29059W        W44190   6.450   2.724  15.264 -0.3834 -0.2434  0.2031
29060W        W44191   6.880   6.456   2.222 -0.0826 -0.0865 -0.0226
29061W        W44192   5.284   1.478  11.965 -0.0055  0.0887  0.1429
29062W        W44193   6.384   6.661   3.576  0.0683  0.0395  0.0367
29063W        W44194   9.731  13.407   3.216 -0.0040  0.0805 -0.0905
29064W        W44195   7.176   1.456   2.561  0.0059 -0.2073 -0.0834
29065W        W44196  10.303   4.652  13.273  0.2219 -0.2922  0.1711
29066W        W44197   7.361   2.420   4.213  0.2918  0.1222  0.0103
29067W        W44198  17.773   8.414   0.043 -0.2258 -0.0187 -0.2176
29068W        W44199  11.710   3.367  10.843  0.2363 -0.0139 -0.3017
29069W        W44200  11.851  15.804  16.191 -0.1069 -0.0513  0.0159
29070W        W44201   3.267   1.395   2.890  0.0630  0.0031 -0.0426
29071W        W44202   0.110   5.770   0.604  0.1500  0.0572 -0.1925
29072W        W44203   2.363  15.466   6.354 -0.0559  0.1676 -0.1548
29073W        W44204   5.060  11.546   3.825 -0.0241  0.0090 -0.0250
29074W        W44205  15.786  11.764  13.571 -0.1391  0.0215 -0.0774
29075W        W44206  11.242   4.513  14.778 -0.1339  0.3063 -0.1567
29076W        W44207   5.724   8.804  15.085  0.1128  0.0853  0.1128
29077W        W44208   7.271   0.111  16.017 -0.1429 -0.3677 -0.3579
29078W        W44209   5.899  17.798  15.040 -0.1793 -0.0638 -0.1191
29079W        W44210   9.443   2.649  10.936 -0.0743  0.2089 -0.1007
29080W        W44211   1.220  16.520   4.144  0.1272 -0.2039  0.2222
29081W        W44212   4.422  15.083   3.194 -0.0357  0.0372 -0.1688
29082W        W44213  17.664  14.274  15.642  0.0110  0.1548  0.1815
29083W        W44214   8.742   1.760  16.038  0.1087  0.1684  0.0777
29084W        W44215   6.942  15.446  11.433 -0.0983 -0.1075  0.0618
29085W        W44216   8.443  17.094  14.491 -0.1405  0.0628  0.0920
29086W        W44217   0.505  14.595  13.572 -0.0534  0.1267  0.3649
29087W        W44218  10.556   7.270  11.479  0.1677 -0.0553 -0.1860
29088W        W44219   0.008   1.867   3.184 -0.0573 -0.0069  0.1116
29089W        W44220  12.968   0.189   4.701 -0.0636  0.1065  0.1292
29090W        W44221  10.761   7.998  13.100 -0.2214 -0.2521 -0.2334
29091W        W44222  15.453   3.660  12.128  0.2151 -0.0021 -0.2899
29092W        W44223   6.172   2.120  12.214 -0.2227 -0.0953 -0.0106
29093W        W44224  17.169   2.554  16.773 -0.1452  0.3710  0.0710
29094W        W44225   4.037  15.654   2.498 -0.1193 -0.0029  0.1698
29095W        W44226   6.760  10.366   2.873 -0.2449 -0.0242  0.1305
29096W        W44227  11.541   0.811  14.175  0.0982 -0.0783  0.0931
29097W        W44228   3.853   0.212   1.945 -0.2657  0.1094  0.1347
29098W        W44229   4.311   1.525   0.876  0.0924 -0.2047 -0.2270
29099W        W44230   4.919   9.181   3.714  0.1009  0.0062  0.1245
29100W        W44231   4.817   7.946  14.701  0.2190  0.2735 -0.2764
29101W        W44232  11.657   1.040   3.169 -0.3383 -0.0718 -0.1423
29102W        W44233   9.275  10.340   1.799 -0.0998  0.0076  0.1347
29103W        W44234  12.073  16.486  15.137 -0.1077 -0.0406  0.1751
29104W        W44235   2.994  17.121   5.693 -0.1221 -0.3064 -0.1891
29105W        W44236   1.755   9.253  14.426 -0.1476 -0.0796  0.0656
29106W        W44237  13.260   6.943   1.504  0.0765 -0.2732 -0.1243
29107W        W44238  15.078  14.106   3.959  0.0201  0.0553  0.0152
29108W        W44239  12.219   0.892  16.492 -0.0466  0.5050  0.5474
29109W        W44240  15.056   6.612  12.749  0.0068  0.1941 -0.0242
29110W        W44241  14.713   3.290   0.303 -0.0083 -0.2388  0.1177
29111W        W44242  15.696  12.260  10.999 -0.2371  0.3597 -0.2479
29112W        W44243  17.759   5.307   0.750  0.1329  0.3367  0.0008
29113W        W44244   5.421  10.942  11.727 -0.3055 -0.3815 -0.1229
29114W        W44245  14.325  15.709   4.300 -0.3371 -0.0803 -0.2010
29115W        W44246  17.635  15.594  11.934 -0.0783  0.0672 -0.4945
29116W        W44247  10.706   3.380   0.299 -0.1807  0.3170 -0.0362
29117W        W44248  12.329  15.374   0.340  0.0778  0.0909  0.0152
29118W        W44249   1.360   1.950   3.754 -0.1839  0.3740 -0.1429
29119W        W44250  15.894   4.553  12.415 -0.1242  0.0843  0.1591
29120W        W44251   1.026   7.960  15.646 -0.0038 -0.3933  0.1931
29121W        W44252   1.635  11.788  12.135  0.0943  0.2252 -0.0413
29122W        W44253   8.425   2.488   1.402  0.0985  0.0328 -0.1653
29123W        W44254   7.668   6.806   2.266  0.0524  0.3078 -0.0009
29124W        W44255   7.598   4.499   0.035  0.1086 -0.0494  0.1407
29125W        W44256  16.389  10.531  16.591  0.1535  0.1065 -0.0111
29126W        W44257   7.291  11.765   2.178 -0.0311 -0.1659  0.1433
29127W        W44258   6.118  14.879   0.358 -0.0497 -0.0238  0.1366
29128W        W44259  14.511  16.830   0.503  0.0120  0.0952 -0.0756
29129W        W44260   0.494  10.054  11.433  0.2025  0.0521 -0.3689
29130W        W44261   4.340   1.712   5.189  0.1449  0.1843 -0.4047
29131W        W44262   5.020   1.037   4.979 -0.3516  0.2018 -0.1438
29132W        W44263   7.583  16.036  14.179  0.2395  0.2704 -0.1127
29133W        W44264   8.119   1.681  12.507  0.1847  0.0246 -0.1511
29134W        W44265  10.909   0.140   4.611  0.1322  0.1625 -0.0369
29135W        W44266   0.861  12.267   2.107 -0.0591  0.0332  0.0550
29136W        W44267   8.892  16.356   0.445 -0.0541 -0.0800 -0.0288
29137W        W44268   9.606  15.486   5.502 -0.0673  0.2615  0.2530
29138W        W44269   8.406   6.377   3.636 -0.1170 -0.0699 -0.0689
29139W        W44270   1.606   7.503   0.142  0.4590  0.1033  0.0440
29140W        W44271  14.256  10.747   5.561  0.0358  0.0730 -0.1360
29141W        W44272   3.867   3.414   0.477  0.0519 -0.1517  0.3347
29142W        W44273  16.495  13.761   3.630 -0.2624 -0.1415  0.0540
29143W        W44274   1.836  17.132   6.400  0.3379 -0.0723 -0.0146
29144W        W44275  15.874   5.519  11.285 -0.0108 -0.3295  0.3356
29145W        W44276  14.146  16.366  14.730 -0.2781  0.0909  0.0567
29146W        W44277  17.114   1.292   0.830  0.1912 -0.0594  0.1250
29147W        W44278  14.195   8.458   4.393 -0.2992 -0.2376 -0.0065
29148W        W44279   1.597  15.212   0.532  0.1051 -0.0249 -0.2614
29149W        W44280  13.160   7.038  15.902 -0.1742 -0.0018 -0.1625
29150W        W44281   7.683   2.060  12.211  0.0630 -0.1624 -0.2180
29151W        W44282  17.634  15.101  12.061  0.4176  0.0397  0.1955
29152W        W44283  14.645   6.879  12.778 -0.1085 -0.1457 -0.0106
29153W        W44284   5.561  11.472   5.483  0.0853 -0.2798  0.0810
29154W        W44285   8.812   6.912  13.177 -0.0336  0.0930 -0.0902
29155W        W44286  12.274   8.328  16.605  0.2610 -0.1535  0.1825
29156W        W44287  13.708   7.158   1.584  0.0220 -0.0548 -0.0129
29157W        W44288  15.623  12.687   4.151 -0.0254  0.1857  0.0931
29158W        W44289  16.078  14.762   5.210 -0.0117 -0.0650  0.1044
29159W        W44290  16.233   8.067  13.963 -0.2394  0.1472 -0.0388
29160W        W44291  14.248   2.047  12.887 -0.0256 -0.1705 -0.1409
29161W        W44292   4.600  16.392  12.614 -0.2423 -0.0399  0.0425
29162W        W44293   9.534  13.360  12.222  0.0338 -0.3649  0.0685
29163W        W44294  13.181   3.636   2.822 -0.2429 -0.1079 -0.1773
29164W        W44295  15.945   5.151   2.895 -0.2006 -0.5722  0.0640
29165W        W44296  12.161   3.900  15.243  0.2581 -0.0237  0.2191
29166W        W44297  14.072  14.735  14.985 -0.1864  0.0748 -0.1689
29167W        W44298   8.261  15.364   4.372  0.2530 -0.2563 -0.0655
29168W        W44299   2.216   1.519   2.850 -0.1830 -0.3375 -0.2088
29169W        W44300   2.939   5.082   1.435  0.1865 -0.3232 -0.1600
29170W        W44301   9.984  13.818   2.309 -0.1734 -0.2314 -0.0228
29171W        W44302  17.116  10.500   1.546  0.1036 -0.1875 -0.0375
29172W        W44303   3.405   1.967  11.935  0.1896 -0.1997 -0.0379
29173W        W44304   2.270   3.251  15.573  0.3979  0.1554 -0.1315
29174W        W44305  13.599   2.303  14.476  0.0557 -0.2152 -0.0704
29175W        W44306   6.139   7.476  16.387 -0.1085  0.1045  0.0181
29176W        W44307   9.720  14.143  13.401  0.1332 -0.0650  0.0859
29177W        W44308   7.395   7.904  12.518 -0.0029  0.1147 -0.1008
29178W        W44309   0.199  13.551  12.395 -0.0064 -0.1934 -0.3268
29179W        W44310   1.492  14.194  14.879 -0.2021  0.1782  0.1661
29180W        W44311   3.988   1.852  16.380  0.0577  0.1313 -0.0245
29181W        W44312  11.203   3.698  12.322 -0.0616  0.0703 -0.3964
29182W        W44313   8.595   3.937   4.694 -0.0272 -0.1450  0.0526
29183W        W44314  10.993  15.387   2.042 -0.0739  0.2312  0.0043
29184W        W44315  16.032   2.193  12.518  0.1662  0.2240 -0.1885
29185W        W44316   5.958   9.371  14.237 -0.0199  0.2727  0.0996
29186W        W44317   3.902  16.329   0.312 -0.0371  0.1671 -0.2447
29187W        W44318   9.894   3.646   0.514 -0.2326 -0.2638  0.1294
29188W        W44319  10.000   9.248  16.734  0.2228  0.0538  0.0143
29189W        W44320   5.205  16.485   0.266 -0.1785 -0.1759  0.3446
29190W        W44321   2.191   4.364  11.856  0.2738  0.0484 -0.1530
29191W        W44322   4.339  16.835  14.240  0.3872 -0.3205 -0.1522
29192W        W44323  11.500   1.699  16.044 -0.4609  0.0623  0.0584
29193W        W44324   1.037   9.871   0.498 -0.2524  0.0316 -0.0731
29194W        W44325   8.628  12.224   2.059 -0.0011  0.0865 -0.1019
29195W        W44326  12.759  16.844  15.007  0.1164  0.1972  0.1546
29196W        W44327  15.608  14.173   3.854 -0.0608  0.2661 -0.5141
29197W        W44328   0.370   4.065  11.951  0.0280  0.0561 -0.1469
29198W        W44329   2.745   1.762   1.274  0.0069  0.3415  0.0660
29199W        W44330   8.129  15.349   0.594  0.0688  0.0257  0.1123
29200W        W44331   0.765   8.982  15.929  0.1063  0.0586 -0.4683
29201W        W44332   6.438  14.395   2.392 -0.1731  0.1036  0.1256
29202W        W44333  13.441   3.679   4.249  0.0234  0.0484  0.1005
29203W        W44334   2.437  15.997  13.020  0.0955  0.1857  0.0505
29204W        W44335   0.433  12.833   4.362 -0.0260 -0.2467  0.1473
29205W        W44336  11.095  17.419   5.419  0.1124 -0.2101 -0.4058
29206W        W44337   3.480   5.555  15.946 -0.2146  0.0325 -0.0631
29207W        W44338   8.737  12.025   6.483  0.0963  0.0037  0.0746
29208W        W44339   2.732  12.349  13.087  0.5451 -0.0800 -0.1725
29209W        W44340  15.389  15.720   3.234 -0.1384 -0.3020 -0.2534
29210W        W44341  12.947   4.818  15.118  0.0379  0.1647  0.0744
29211W        W44342   5.769   6.488   0.731 -0.0236  0.2295  0.0703
29212W        W44343  15.660   0.257  12.531  0.0564  0.2379 -0.1349
29213W        W44344  14.324   3.824  13.972  0.0716 -0.2921 -0.2116
29214W        W44345   5.774   9.266  12.328  0.0767 -0.0652 -0.2803
29215W        W44346   3.402   1.040  16.150  0.0281  0.3481  0.0928
29216W        W44347  16.378   6.305   2.715  0.0150  0.2545 -0.2194
29217W        W44348  10.694  17.594   4.470  0.1113  0.0444 -0.0229
29218W        W44349  16.750   8.570  16.530 -0.0868 -0.2883  0.4919
29219W        W44350  16.841  12.532  14.365 -0.1170  0.2237 -0.2242
29220W        W44351  11.444  13.362  15.139  0.1461  0.0529 -0.2244
29221W        W44352   1.829  14.066  13.967 -0.0688  0.3068  0.0271
29222W        W44353   5.896   1.026   4.600 -0.3534  0.1014 -0.1093
29223W        W44354   8.340  12.605  14.884  0.2848 -0.1637  0.1996
29224W        W44355  16.012   1.607   5.277  0.1577 -0.0345 -0.2163
29225W        W44356   7.902  11.317  13.696  0.1264 -0.2422 -0.0219
29226W        W44357   2.218   3.047  13.883 -0.0123  0.0678  0.0907
29227W        W44358   2.215   1.494   0.132 -0.2750 -0.1793 -0.0035
29228W        W44359  13.820  10.918   4.946 -0.0516 -0.1620 -0.2522
29229W        W44360  11.928  13.746   4.975  0.0167  0.4753  0.0792
29230W        W44361   6.128   0.324   5.197  0.3695  0.2658  0.3095
29231W        W44362  10.539   0.219  10.276  0.1155 -0.0926  0.1671
29232W        W44363   0.273  13.696  14.720  0.0661  0.0499 -0.0397
29233W        W44364  17.646  14.421   1.192  0.0688 -0.0093  0.2619
29234W        W44365   4.310  13.340   5.164  0.1053  0.0550 -0.0581
29235W        W44366  16.059   5.090   1.993 -0.2402 -0.2032  0.0502
29236W        W44367  14.295  15.878   4.858 -0.0608  0.0638  0.1300
29237W        W44368   7.275  15.851   4.570 -0.2290 -0.5853 -0.1567
29238W        W44369   4.596   2.264  16.123 -0.0859  0.0665 -0.0513
29239W        W44370   3.375   6.240  14.351 -0.0297  0.2112 -0.0736
29240W        W44371  10.325  11.250  12.390 -0.0485 -0.0628 -0.1015
29241W        W44372   5.522   4.709  16.582 -0.0949 -0.0968  0.0243
29242W        W44373  16.237  10.473  14.284 -0.0632 -0.1396 -0.0221
29243W        W44374   4.937  11.123  15.592 -0.0258  0.1247 -0.0568
29244W        W44375  14.140  14.105  12.822 -0.0390 -0.0618 -0.0124
29245W        W44376  17.324  15.326  13.996 -0.0937  0.0119  0.2424
29246W        W44377  12.641   2.259   0.609 -0.0829  0.1196 -0.1052
29247W        W44378  15.255   5.532   0.356 -0.1835  0.0176 -0.1886
29248W        W44379   0.260  10.708   1.799 -0.1614  0.2074 -0.0818
29249W        W44380  14.781  17.264   0.541 -0.0606  0.1610 -0.0663
29250W        W44381   3.668  12.218  15.070  0.2128  0.3165  0.0465
29251W        W44382  16.086   2.932  14.010  0.3615  0.0382  0.0435
29252W        W44383   9.469  10.264   1.353 -0.0851 -0.1696  0.1520
29253W        W44384  13.517   8.775   1.407 -0.1964 -0.2849 -0.1912
29254W        W44385   5.723  12.632  14.745 -0.0754  0.0284  0.1287
29255W        W44386  13.108  10.263   4.861 -0.3989  0.1276 -0.3970
29256W        W44387   5.319  11.997   0.007 -0.0127  0.0096  0.5823
29257W        W44388   9.284  12.042  12.248 -0.0333 -0.2757 -0.0387
29258W        W44389  10.202   0.187  13.740 -0.3559 -0.0621  0.0529
29259W        W44390   7.474  15.381   1.183  0.1334  0.0884 -0.1021
29260W        W44391   8.276   8.241  11.545 -0.2470  0.1001  0.0422
29261W        W44392  13.952   2.984   1.646 -0.1707 -0.2380 -0.0484
29262W        W44393   6.958  11.130   1.107 -0.1243  0.1767  0.0238
29263W        W44394   8.056   0.005  15.557  0.1170 -0.2862 -0.2327
29264W        W44395   7.569  13.941  15.306 -0.2343  0.0619  0.0317
29265W        W44396  10.326  16.348   4.509  0.1192 -0.3050  0.1182
29266W        W44397   0.059  13.835   5.612  0.1677  0.1382 -0.0167
29267W        W44398   9.344   3.402   4.410  0.0462 -0.1191 -0.0187
29268W        W44399  15.308  11.389  14.360  0.1015 -0.0305 -0.1006
29269W        W44400   1.970   3.104   5.665 -0.1949  0.0427  0.0030
29270W        W44401  15.683   0.495  14.265 -0.2861 -0.2393  0.0583
29271W        W44402   9.621  14.856  14.928 -0.0911  0.0594  0.0984
29272W        W44403   4.385   4.113  15.924  0.2725 -0.0566  0.0768
29273W        W44404   7.882  13.364   1.707  0.0923 -0.0355 -0.2583
29274W        W44405  11.362   7.202  14.198 -0.1505  0.2840  0.0497
29275W        W44406  14.686   1.106   1.134 -0.2092  0.2781 -0.1670
29276W        W44407   5.213   9.821  16.393  0.1030 -0.1580  0.0089
29277W        W44408   1.894  10.515  12.103  0.3954  0.1286 -0.0685
29278W        W44409  10.729  15.659   3.471  0.0807  0.1072  0.0414
29279W        W44410  11.844   5.837   0.390  0.0263 -0.1205 -0.1585
29280W        W44411   6.122  13.678   1.112  0.1550 -0.2818 -0.1068
29281W        W44412   7.686   7.167  12.891 -0.0442  0.2742  0.0567
29282W        W44413   1.958   4.207   4.732 -0.2699 -0.0803 -0.2388
29283W        W44414  17.590   0.925   4.014 -0.1747 -0.1967 -0.2085
29284W        W44415   6.533   7.313  16.643 -0.0782  0.0878 -0.2390
29285W        W44416  12.457  13.575   0.915  0.2761 -0.0374 -0.1726
29286W        W44417  15.580  11.896  14.190  0.1388 -0.0586  0.0734
29287W        W44418   9.010   2.362   3.315  0.0930  0.1443 -0.1399
29288W        W44419  13.906   7.178   0.747  0.0082 -0.0323  0.0904
29289W        W44420   1.062   7.085  16.231  0.1083 -0.1672 -0.0768
29290W        W44421   9.989  15.368  14.181  0.3254 -0.1497 -0.3905
29291W        W44422   9.412   7.087  12.276  0.1486 -0.1684 -0.0143
29292W        W44423   0.721  14.152  14.915  0.2921  0.1876  0.0820
29293W        W44424  12.657   1.464   3.902 -0.0270 -0.0060 -0.0904
29294W        W44425   2.349  15.738  12.183  0.2097 -0.2599  0.0795
29295W        W44426   2.665  12.290  16.474 -0.1215  0.1867 -0.0003
29296W        W44427  14.336   5.051  15.318 -0.4217  0.0583  0.1890
29297W        W44428  13.527   3.035  12.411  0.1979 -0.4621 -0.1250
29298W        W44429   4.287   5.209  13.334 -0.1000 -0.1743 -0.0975
29299W        W44430  17.719   3.001  14.258  0.0704  0.0435 -0.0691
29300W        W44431   1.192   4.559  13.295 -0.0237 -0.1657 -0.2352
29301W        W44432  13.923   3.885   1.708 -0.0954 -0.0828  0.0305
29302W        W44433   6.179  15.098   2.511  0.1296 -0.0467 -0.0286
29303W        W44434  10.882   4.353   1.339  0.2661 -0.3652  0.2237
29304W        W44435   5.100   8.816   2.922 -0.1474  0.2855  0.2550
29305W        W44436   8.956   2.889  15.577 -0.0938  0.0344  0.0327
29306W        W44437  11.245   1.302   5.500  0.4116 -0.1515 -0.1309
29307W        W44438   7.451  13.399   4.691  0.0592 -0.0083 -0.1867
29308W        W44439  15.909   8.203  10.956 -0.0217 -0.0615 -0.3115
29309W        W44440  16.941   7.318   5.910  0.0464  0.1397 -0.0180
29310W        W44441   1.413   7.965   1.679  0.2910  0.1429  0.2252
29311W        W44442  12.184  14.346   5.874  0.1294 -0.1107  0.1162
29312W        W44443   7.686   5.376   1.670 -0.1671  0.1758  0.0263
29313W        W44444   6.219  17.586   0.238 -0.0804  0.0046  0.2857
29314W        W44445  16.362   5.543  14.341 -0.1961  0.3819  0.1067
29315W        W44446   3.178   3.687  11.532 -0.0034  0.0802  0.2772
29316W        W44447   0.564   8.595   4.730  0.1191 -0.1358  0.0140
29317W        W44448  15.468  10.489  11.841 -0.0252  0.0828  0.4746
29318W        W44449   6.334  12.963  15.805  0.3384 -0.1811 -0.0225
29319W        W44450   1.040  10.781  16.409 -0.2152  0.1830 -0.2213
29320W        W44451  14.316  11.759  13.376 -0.0282 -0.1870  0.2504
29321W        W44452   1.558   7.002   2.240  0.0267  0.2612  0.4200
29322W        W44453  12.376  13.582  13.830  0.2411 -0.5190  0.0932
29323W        W44454   5.299   7.042   3.769  0.0464 -0.3798 -0.1547
29324W        W44455   0.829  17.561  14.943 -0.1517 -0.0996 -0.0277
29325W        W44456   7.940   2.733  11.176  0.3227  0.2703  0.1880
29326W        W44457   6.622   4.456  16.407  0.0998  0.1900  0.1139
29327W        W44458   3.120   9.487   3.833 -0.2196 -0.2483  0.3035
29328W        W44459   1.924  16.183   6.440 -0.0360  0.2285 -0.2404
29329W        W44460   2.697  13.324  16.140  0.0036  0.0072  0.2209
29330W        W44461   3.002   6.408   5.089 -0.2236 -0.1086  0.0614
29331W        W44462   3.348  15.938   5.209  0.0910 -0.3135 -0.1611
29332W        W44463   1.233  12.539   1.758 -0.2104 -0.0864  0.0407
29333W        W44464  12.717  12.052  16.326  0.1049 -0.1444  0.0761
29334W        W44465   8.736   6.311   4.968  0.1191 -0.0483 -0.1445
29335W        W44466   7.892   5.811   1.631  0.0505  0.0192  0.0456
29336W        W44467  17.221   6.410  11.643 -0.0666 -0.0126 -0.1337
29337W        W44468   3.689   4.906   0.420  0.3535 -0.2081  0.3069
29338W        W44469  14.257   8.291  11.957  0.1881  0.1985  0.0294
29339W        W44470   7.777  10.866   2.240 -0.0074  0.0204  0.0787
29340W        W44471   9.412   7.082   2.816  0.2756 -0.0716  0.2444
29341W        W44472  11.366   3.942   1.694 -0.2667 -0.4716 -0.4123
29342W        W44473  16.246  11.858   0.060  0.2813  0.0078 -0.2097
29343W        W44474  17.781   1.009  10.890  0.0977  0.3159  0.2402
29344W        W44475   9.481   1.529   2.796  0.0205  0.0910  0.1049
29345W        W44476   8.324   8.834  12.879  0.0261  0.0390 -0.1091
29346W        W44477  11.234   1.271  10.578  0.1253  0.1686 -0.0212
29347W        W44478   4.975  17.635  15.139 -0.2593 -0.0430  0.0046
29348W        W44479  14.312  11.321   2.866 -0.1224  0.2198  0.0103
29349W        W44480   4.964  10.451   3.711  0.0221  0.1377 -0.2766
29350W        W44481   5.074  16.897   3.442 -0.0942 -0.0763  0.3551
29351W        W44482   6.635   9.034  12.824  0.1822 -0.2883 -0.2357
29352W        W44483   4.233   9.036   5.620 -0.0259  0.0951 -0.0742
29353W        W44484  14.994   7.429  14.707  0.1580  0.2638 -0.1080
29354W        W44485   3.693   8.886   1.410  0.3663  0.0748 -0.0794
29355W        W44486   7.902   9.657  11.662  0.0379  0.1001 -0.1838
29356W        W44487  16.766   0.801  13.259 -0.1337 -0.0545  0.2074
29357W        W44488   3.595   4.054   2.764  0.1403  0.3500  0.0757
29358W        W44489   6.253  17.105   1.078  0.1592  0.1997  0.4093
29359W        W44490   7.044   2.251  14.688  0.1657  0.1028  0.2328
29360W        W44491  14.111   1.220   5.731 -0.0456 -0.1746  0.3456
29361W        W44492   3.858   6.683   4.162 -0.2171  0.0309 -0.1942
29362W        W44493  17.128   8.987   2.347  0.0068 -0.2307  0.3220
29363W        W44494  10.879   8.136  13.765  0.1338 -0.2345 -0.1376
29364W        W44495   9.815  15.139   5.179 -0.1832  0.0915 -0.3259
29365W        W44496   7.144  13.623  15.335  0.1290  0.2580  0.1876
29366W        W44497   6.532   4.218   0.857  0.1030 -0.0959  0.1552
29367W        W44498  16.378   4.492  11.330  0.1822  0.2389  0.1539
29368W        W44499   7.065  13.810   1.300  0.0936  0.0005  0.0816
29369W        W44500  14.124   1.386   5.257  0.3354 -0.2939  0.0041
29370W        W44501   1.047   6.770   1.730 -0.3045  0.1108  0.0308
29371W        W44502   0.317   3.031  16.212  0.0723 -0.0738  0.0391
29372W        W44503   4.886   4.940  11.161 -0.1870 -0.1756  0.3575
29373W        W44504   1.731   1.102  11.872  0.1235 -0.0590  0.1777
29374W        W44505  14.383  10.793   2.316  0.0770 -0.3007  0.0998
29375W        W44506  10.449   3.865  15.252 -0.1329  0.2114 -0.0279
29376W        W44507  12.227  15.317   5.235 -0.0225 -0.0137  0.0208
29377W        W44508   2.315   0.570  14.709  0.0455  0.1121 -0.2821
29378W        W44509   7.498  12.860  14.982 -0.1087  0.3544 -0.0934
29379W        W44510  13.433   4.969  14.970  0.1054  0.0225  0.0432
29380W        W44511   1.947  14.435  13.140  0.1409 -0.1802 -0.1942
29381W        W44512  10.824   7.271   3.506 -0.0763 -0.0547  0.1951
29382W        W44513   7.942  14.101  16.649 -0.1165  0.1312  0.0648
29383W        W44514   7.503  13.962   3.662 -0.1282  0.1616  0.1287
29384W        W44515  10.689  10.684  11.487  0.0317  0.2352 -0.1030
29385W        W44516   8.557   8.257   5.587 -0.0168 -0.1241  0.6137
29386W        W44517   3.495   7.509   1.937 -0.0476  0.2778  0.0708
29387W        W44518   0.128   5.272  11.153  0.0110 -0.4880 -0.2392
29388W        W44519  15.764   9.408   1.449  0.4137  0.0994 -0.0611
29389W        W44520  13.136  11.878   2.685  0.1625 -0.2504  0.0163
29390W        W44521  13.127   1.546  14.555  0.2848  0.0865  0.2583
29391W        W44522   2.466   1.138  14.518  0.1511  0.1967  0.1571
29392W        W44523   5.971  10.396   0.598 -0.0642  0.0160  0.1332
29393W        W44524   5.753   0.323  12.160  0.0465 -0.0290 -0.2346
29394W        W44525  15.489  14.395  14.681 -0.0788 -0.0093  0.1075
29395W        W44526   9.361   0.530   1.401 -0.2642 -0.2612  0.0520
29396W        W44527   9.245  15.824  12.877  0.0807  0.1544 -0.4539
29397W        W44528   5.642   4.626   2.112 -0.1152 -0.1507 -0.1759
29398W        W44529  11.392  16.858  11.420 -0.0746  0.0639  0.1120
29399W        W44530   7.525  13.638   3.194 -0.0167 -0.0079  0.1411
29400W        W44531   2.509  13.942  12.122 -0.1388 -0.0114  0.2557
29401W        W44532  13.511   3.056  14.057  0.0664  0.1796  0.0391
29402W        W44533  15.513   6.803   5.178  0.3880  0.0290  0.1721
29403W        W44534   3.157  12.285  16.513  0.0450  0.0056  0.1830
29404W        W44535   4.970  11.797  10.365 -0.3210 -0.0330  0.0968
29405W        W44536   9.998   0.980  14.407 -0.1963  0.0306 -0.0970
29406W        W44537  13.265   1.776   0.150 -0.2718 -0.1388  0.0621
29407W        W44538  16.597  12.623   0.121 -0.1190 -0.1182  0.2931
29408W        W44539   3.447   4.284  12.999  0.1504  0.2326 -0.0189
29409W        W44540  16.541   3.875  11.761  0.0191 -0.0965 -0.0438
29410W        W44541   5.896   9.830   1.853  0.1362  0.0080 -0.0099
29411W        W44542   8.059  16.940   3.429 -0.1313  0.0649 -0.0249
29412W        W44543   8.819  10.471   2.076 -0.0917  0.0859 -0.3013
29413W        W44544   0.486   9.046  10.974  0.3545  0.1084 -0.0395
29414W        W44545   5.103  16.798  14.900  0.0863  0.1164  0.2435
29415W        W44546  14.450   7.251  14.628  0.0306  0.0769 -0.0320
29416W        W44547   9.591   4.847  15.350 -0.1306 -0.1600 -0.0303
29417W        W44548  11.434   5.098   4.538 -0.3345 -0.0998 -0.0740
29418W        W44549   3.279   1.042   1.292  0.3093  0.1380 -0.2480
29419W        W44550  16.603   0.002   4.973 -0.1597 -0.1588 -0.1373
29420W        W44551  11.838  13.544  14.682  0.2820  0.4169  0.0124
29421W        W44552  13.094   8.489   1.377 -0.0907  0.1358  0.1062
29422W        W44553   9.190   3.301  11.561  0.3113  0.0547  0.2050
29423W        W44554   4.798   6.876   1.410  0.0870  0.2733 -0.0008
29424W        W44555   8.984  11.921   1.391 -0.0932 -0.1529  0.1199
29425W        W44556  10.280   2.996   0.133 -0.2140  0.2545 -0.3947
29426W        W44557  12.586  10.548   3.370 -0.2437  0.3348  0.0217
29427W        W44558  14.366  14.951  16.308 -0.2020 -0.3776 -0.1339
29428W        W44559   2.047   4.447  14.865  0.0138 -0.2041  0.1514
29429W        W44560  13.060   4.352  12.552  0.0352 -0.1080 -0.0943
29430W        W44561  17.809   3.973   3.812 -0.1212 -0.2402  0.2408
29431W        W44562  10.920   0.674   2.289 -0.2536 -0.1276  0.2788
29432W        W44563  13.621  17.273   1.746 -0.0216 -0.1267 -0.3218
29433W        W44564  11.640  15.080   0.569  0.2628 -0.1573  0.1718
29434W        W44565   2.285   7.946  15.214  0.0938 -0.1448  0.1107
29435W        W44566  11.901   3.373  11.797 -0.0677 -0.1545  0.1794
29436W        W44567   3.283   6.664   1.913  0.0646 -0.1656  0.1450
29437W        W44568  15.811  17.796   1.319  0.2212  0.0298  0.2715
29438W        W44569   5.122  13.904  15.526 -0.2011  0.1806  0.2174
29439W        W44570   0.276   9.505   3.339 -0.1401 -0.0232 -0.0728
29440W        W44571   0.225   1.867  14.958  0.1876  0.1357  0.0462
29441W        W44572   9.959  15.997   1.922  0.2095  0.1951 -0.3417
29442W        W44573   0.173  14.496  11.968 -0.0333  0.0612 -0.0054
29443W        W44574   1.784  15.293  13.161  0.1777  0.0524 -0.1935
29444W        W44575   6.061  16.461   1.743  0.0615  0.0080  0.1591
29445W        W44576  16.356   6.816   1.356  0.0433  0.0637  0.3230
29446W        W44577   2.701   0.122   3.671  0.0655 -0.0504 -0.1067
29447W        W44578   7.995  10.391   1.512 -0.2457  0.0389 -0.2968
29448W        W44579   2.795   6.370  12.106 -0.0282 -0.0773  0.1002
29449W        W44580  16.375   4.934  15.286 -0.1332  0.3186  0.0342
29450W        W44581  15.749  12.873  15.715 -0.1962  0.3513  0.0115
29451W        W44582  13.015   2.725   4.041 -0.3710  0.0390 -0.0355
29452W        W44583   1.464   2.893   3.042  0.0773 -0.1563  0.1487
29453W        W44584   4.762   9.782  13.646  0.5663  0.0181 -0.1782
29454W        W44585   7.397   5.857   3.740 -0.3598 -0.0975  0.3365
29455W        W44586   8.466   1.937  12.772  0.2806  0.1533  0.1477
29456W        W44587   9.995   5.937   0.786 -0.1555  0.0523  0.2549
29457W        W44588   1.649   0.934   2.130 -0.0917 -0.1349  0.0063
29458W        W44589  17.000   6.587  16.003 -0.0260  0.2480 -0.0366
29459W        W44590   4.659   3.545   4.412  0.1713 -0.1041 -0.2810
29460W        W44591   3.634   7.777  15.960  0.1265  0.0246 -0.0909
29461W        W44592   1.715  14.003  13.331 -0.0045 -0.4322  0.0166
29462W        W44593  14.202   6.463  12.514 -0.0121 -0.0785  0.2973
29463W        W44594  12.068   2.796   3.216 -0.0719 -0.1782 -0.2265
29464W        W44595   9.892   0.959   0.459  0.1042  0.0417  0.1910
29465W        W44596  16.197   6.789   5.715 -0.0571 -0.0132  0.2379
29466W        W44597   1.832  11.036   4.330  0.3951 -0.0542 -0.2443
29467W        W44598   0.503   4.593   2.055 -0.1854  0.0645 -0.5430
29468W        W44599   3.366  10.039  14.302 -0.0959  0.2052  0.0874
29469W        W44600  11.503   6.581   3.906 -0.1230  0.1686  0.4539
29470W        W44601   0.475  11.884  13.206 -0.2337  0.1497  0.1324
29471W        W44602  16.172   5.508  16.009 -0.1621 -0.0573  0.2014
29472W        W44603   6.057  10.456  12.045 -0.2707 -0.1827  0.1522
29473W        W44604   3.723  14.856  12.870 -0.1832 -0.1128 -0.1747
29474W        W44605   3.735   3.894  16.138 -0.0077 -0.1766  0.0555
29475W        W44606  10.129   1.619   1.308 -0.0273 -0.4255  0.2816
29476W        W44607   6.737   2.986  15.737  0.0636  0.1442 -0.0187
29477W        W44608  10.482   4.904   4.377 -0.0941  0.2249  0.2160
29478W        W44609  16.018  16.865  12.079  0.0934  0.2488 -0.0368
29479W        W44610   4.247  12.323   3.498 -0.3818 -0.0841 -0.0230
29480W        W44611  12.200  14.372   3.127  0.0294  0.4675  0.1845
29481W        W44612   8.931  10.544   0.950  0.2436 -0.0303 -0.2272
29482W        W44613   3.482   5.595  11.811 -0.3090 -0.0621 -0.0745
29483W        W44614  14.398   0.411  11.801 -0.0119 -0.3553  0.1046
29484W        W44615  17.300   1.232  15.976 -0.4373 -0.1459  0.0308
29485W        W44616   5.850   0.077  15.513 -0.1170 -0.3306 -0.0116
29486W        W44617  13.751  11.337   0.271 -0.2482  0.2375 -0.0026
29487W        W44618  17.055   7.218   3.361  0.1358  0.2318  0.2096
29488W        W44619  16.673   9.433   4.740 -0.3827 -0.0912 -0.0013
29489W        W44620   1.336  10.739   1.262 -0.1334  0.0622  0.1834
29490W        W44621   3.960   6.468   4.831  0.0629 -0.0361 -0.1761
29491W        W44622  17.818  13.709  15.631 -0.2730 -0.0442 -0.3053
29492W        W44623   8.755  13.298   4.082  0.0203  0.1421 -0.0773
29493W        W44624   4.046   7.433   4.676 -0.2006  0.2409 -0.3268
29494W        W44625   4.847  17.211  16.573  0.1693 -0.1545  0.1755
29495W        W44626   6.802  14.174   3.373  0.2926  0.1411  0.0850
29496W        W44627   7.041  15.946   2.258  0.1016  0.2619  0.0399
29497W        W44628  13.492   1.657   1.585  0.0615 -0.0436 -0.1839
29498W        W44629  13.068  16.215  10.901 -0.1524  0.0513  0.1423
29499W        W44630   8.995   1.855   0.238 -0.1112 -0.0471  0.1374
29500W        W44631   1.206  17.005  14.184  0.1020 -0.1512  0.1885
29501W        W44632   5.546  13.503   4.339 -0.0645 -0.0339  0.1640
29502W        W44633   3.244  11.796  13.578  0.0641  0.0093 -0.0541
29503W        W44634   0.390   4.532   3.709 -0.0807 -0.3198 -0.1019
29504W        W44635   8.205   1.446   1.749  0.1603  0.1360 -0.0696
29505W        W44636  15.450  16.650   1.955  0.0796 -0.2923  0.0126
29506W        W44637  10.271   1.494   5.819 -0.0690 -0.0189 -0.0430
29507W        W44638   0.760   4.319  12.932 -0.1050 -0.1318 -0.1518
29508W        W44639  12.047   8.181   0.329  0.0780  0.1971 -0.1363
29509W        W44640  14.972  15.921  15.020 -0.1214 -0.1153  0.0648
29510W        W44641   8.606   7.250  14.132 -0.0303 -0.2954 -0.2940
29511W        W44642  10.019  16.709   4.551 -0.1965  0.0541  0.1873
29512W        W44643  17.550  14.705   1.936 -0.0006  0.3992 -0.1348
29513W        W44644  11.959  14.667  15.446 -0.1951  0.3659 -0.0630
29514W        W44645  13.573  15.468  14.054  0.0511 -0.0097  0.1188
29515W        W44646   0.241   4.102   2.883  0.1212  0.1281 -0.0206
29516W        W44647  15.500  13.369  13.532  0.1518  0.2065 -0.1208
29517W        W44648  14.647   3.747  11.732  0.2125  0.2440  0.1783
29518W        W44649   3.878  16.238  14.827 -0.2233 -0.1716  0.2115
29519W        W44650   4.126   8.618  16.774 -0.1041  0.1809 -0.1529
29520W        W44651  14.805  12.906  15.129  0.0375  0.1223 -0.0884
29521W        W44652   2.603   3.233  14.156  0.3094 -0.3687 -0.0604
29522W        W44653   8.332  16.284  16.587 -0.2488  0.1165  0.1105
29523W        W44654  10.249  13.928   3.070  0.0665 -0.1330 -0.2209
29524W        W44655   0.693   0.552   1.852  0.0452 -0.1616  0.2521
29525W        W44656   9.433  12.090  14.500  0.3082  0.0321 -0.3218
29526W        W44657   8.133   0.798  15.134  0.1121 -0.2170 -0.0228
29527W        W44658   5.715   5.772  11.782  0.3002 -0.1421 -0.0617
29528W        W44659  12.136  16.035  10.943  0.2274  0.0520 -0.1729
29529W        W44660   8.119  15.671  11.077  0.0889  0.0156  0.0066
29530W        W44661   9.438  17.705  13.540  0.1814  0.0554 -0.1752
29531W        W44662  12.273   0.373   0.437  0.3558  0.0468 -0.1077
29532W        W44663  14.805   1.352   2.190  0.1953  0.0313 -0.2633
29533W        W44664   7.293  13.595  16.269 -0.0823 -0.1486 -0.3978
29534W        W44665   9.526  12.306   3.874 -0.2656 -0.2060  0.0548
29535W        W44666  14.758   4.449   4.332 -0.1297  0.0526  0.0126
29536W        W44667   8.832   9.832  13.742  0.1539  0.0641  0.1113
29537W        W44668   5.830   4.793   0.576 -0.1523 -0.0587  0.1365
29538W        W44669   4.953   7.062  15.829 -0.1285 -0.1689 -0.1641
29539W        W44670  16.553  11.383  14.829  0.0199  0.1597  0.1572
29540W        W44671  10.803   5.840   4.141 -0.0702  0.3034 -0.0018
29541W        W44672  10.908   4.976  14.754  0.4188 -0.3361  0.1513
29542W        W44673   6.301  17.612   1.167  0.1097 -0.2560  0.1605
29543W        W44674   4.168   2.933   4.999  0.0128  0.2208  0.0312
29544W        W44675  10.230   5.098  11.532  0.0708  0.0673 -0.0981
29545W        W44676   3.125   0.644   1.530  0.0008 -0.1253  0.1756
29546W        W44677  15.723  16.812  14.895 -0.2347  0.0555 -0.0058
29547W        W44678   8.006  15.562   3.710  0.1831  0.2217  0.0439
29548W        W44679  16.096   2.620   3.096  0.1847 -0.1528 -0.0881
29549W        W44680  17.027   2.228   0.572 -0.1597 -0.0455  0.0260
29550W        W44681  17.130  14.265   2.002  0.2451 -0.0422  0.0893
29551W        W44682   5.962  11.914  14.514 -0.2049 -0.1449  0.2454
29552W        W44683   3.518  10.080  14.792 -0.1916  0.2102  0.2755
29553W        W44684   2.312  15.224  15.907  0.0336 -0.1540  0.0309
29554W        W44685  15.593   2.872   0.616 -0.1516 -0.1358  0.2757
29555W        W44686   3.498  15.838  12.349 -0.0209 -0.0973 -0.4676
29556W        W44687  16.816   1.513  12.091  0.3258 -0.0085 -0.0610
29557W        W44688   4.471   5.750  14.914  0.0036 -0.5032 -0.0806
29558W        W44689   5.777   7.682   1.875 -0.2014  0.2052  0.2045
29559W        W44690   3.856   9.575   0.159  0.1560  0.2511 -0.3388
29560W        W44691  13.313   8.736   2.725 -0.0441 -0.4178  0.4202
29561W        W44692   4.340   6.481  14.643  0.2624  0.4401  0.0145
29562W        W44693  11.423  17.363  16.664 -0.2097 -0.0679 -0.1958
29563W        W44694   9.657  10.678   6.542 -0.1737 -0.0474 -0.1164
29564W        W44695  14.076  11.599  13.792  0.2699  0.4972  0.0553
29565W        W44696   5.087  10.605  11.851  0.3243 -0.0459 -0.0178
29566W        W44697   6.541  17.392   3.673 -0.5747  0.1465  0.0709
29567W        W44698   3.906   0.696   1.855 -0.3277 -0.0467 -0.2192
29568W        W44699  17.703   2.443  11.541 -0.0627  0.4064  0.1927
29569W        W44700   1.540   7.551  11.400  0.1685  0.0449 -0.0649
29570W        W44701   6.605  11.708   2.780  0.2011 -0.1354 -0.0322
29571W        W44702   1.295  13.303  16.103  0.0404 -0.2729  0.0974
29572W        W44703   4.924  12.344   2.093 -0.1702  0.1054 -0.3204
29573W        W44704   7.085   9.848  11.803  0.1701  0.1388  0.1332
29574W        W44705  12.200   7.882  15.226  0.0625 -0.0508 -0.0129
29575W        W44706   3.308  13.301   2.204  0.1540 -0.1832 -0.1919
29576W        W44707   8.449  17.030   3.730 -0.0835 -0.1711 -0.2149
29577W        W44708   0.321   5.759   2.485  0.0024 -0.2390 -0.2114
29578W        W44709   9.260  11.833   3.647 -0.0889  0.1327 -0.0935
29579W        W44710   2.925  11.680   0.456 -0.2599 -0.0297  0.0109
29580W        W44711   2.894  14.921   3.330 -0.0109  0.2386 -0.0088
29581W        W44712   3.236   9.636   4.287 -0.1051 -0.0872 -0.1430
29582W        W44713  15.825  13.850   1.442  0.1633  0.0236 -0.2483
29583W        W44714   6.216   5.807  11.500 -0.1556 -0.1336 -0.1324
29584W        W44715  16.383   2.321  10.925 -0.0348 -0.1908  0.0634
29585W        W44716   1.931   2.638  12.754 -0.3152  0.2755 -0.0145
29586W        W44717  12.071  12.912   4.166  0.0086 -0.0814 -0.1413
29587W        W44718  12.276   9.292   3.935  0.0847  0.3275 -0.1660
29588W        W44719  10.588   7.552   2.704 -0.0644  0.0879 -0.2264
29589W        W44720  12.096   6.961  15.279 -0.4289 -0.1791  0.1215
29590W        W44721  11.060  12.735   2.854 -0.0157  0.0142  0.0419
29591W        W44722   9.180  17.783  12.534  0.1339  0.0449  0.0495
29592W        W44723  10.684   2.189  13.474  0.0366 -0.1662  0.1075
29593W        W44724  17.112  14.435   3.701 -0.0457  0.1228  0.1391
29594W        W44725  14.477  12.267   3.712 -0.1479  0.1032  0.2184
29595W        W44726  10.885  17.840   3.984  0.2641  0.0203 -0.5726
29596W        W44727   0.588   8.268   5.095 -0.0116  0.1165 -0.1398
29597W        W44728   9.738   3.459  14.791 -0.2966  0.0499 -0.2142
29598W        W44729   1.161   7.463   1.690 -0.0725 -0.1324 -0.1256
29599W        W44730  12.019   6.133  16.054  0.1462  0.3126 -0.0285
29600W        W44731   6.566   4.011  11.868  0.1961 -0.0625 -0.1728
29601W        W44732   3.174   6.124  15.286 -0.0893 -0.1285 -0.2475
29602W        W44733   5.539   0.863   1.745  0.0833  0.2707 -0.1143
29603W        W44734   5.826  11.018   5.714 -0.4156 -0.1190 -0.4538
29604W        W44735  14.688   1.257   0.345  0.0202 -0.0765  0.1506
29605W        W44736  14.846  13.997   1.724 -0.1643  0.0378  0.1658
29606W        W44737  13.829   1.337  11.770 -0.0230 -0.0136 -0.1000
29607W        W44738  11.207  15.027  15.888 -0.1331  0.1932  0.0246
29608W        W44739   1.648  13.489  12.025  0.0230 -0.1223 -0.5358
29609W        W44740   6.483   2.997  12.244  0.1960  0.2915 -0.1957
29610W        W44741   2.841   4.834  16.631  0.1411 -0.0395  0.3109
29611W        W44742  10.856  14.429  13.937 -0.0636 -0.2711 -0.0936
29612W        W44743  12.217  14.230   3.670 -0.0219 -0.2071  0.0726
29613W        W44744  10.074   5.874  14.716  0.1531 -0.0640  0.0793
29614W        W44745   1.420   0.410  14.430 -0.0683  0.0245  0.2311
29615W        W44746   0.013   3.965   2.476 -0.0582 -0.1873  0.4184
29616W        W44747   8.616   9.201   0.184 -0.1231 -0.1915 -0.2058
29617W        W44748   7.658   2.730  10.433 -0.1837 -0.0299 -0.2060
29618W        W44749  13.709  16.713   0.101 -0.2745 -0.0646  0.1280
29619W        W44750   4.283  13.778  11.495  0.2823  0.2681  0.0665
29620W        W44751  14.645   3.828  16.190 -0.0849  0.1737 -0.0915
29621W        W44752  10.932   4.595  16.302 -0.0903  0.2457 -0.3514
29622W        W44753   6.060  14.960  16.608  0.0257 -0.1781 -0.0445
29623W        W44754   4.787   9.529   1.707 -0.0369  0.0080 -0.0637
29624W        W44755  13.791   0.353   2.272  0.2169 -0.0300 -0.0723
29625W        W44756   1.731   7.978  16.676  0.1032  0.1034  0.1176
29626W        W44757  17.322   0.189  14.513  0.0564  0.0136 -0.0018
29627W        W44758   1.896  11.923  16.572  0.1464 -0.1146  0.0572
29628W        W44759   5.356   7.568  13.426 -0.3689 -0.0288 -0.0377
29629W        W44760  17.553   6.642  14.201  0.5999 -0.0255 -0.1662
29630W        W44761  12.873  11.314   4.216  0.0579 -0.1570  0.0067
29631W        W44762  14.663  11.664   3.187 -0.1365  0.0825  0.6152
29632W        W44763  17.870   8.239   5.012 -0.1606  0.3391 -0.1507
29633W        W44764  15.671  15.016   1.898 -0.2737 -0.1068 -0.0421
29634W        W44765  16.129   5.885  12.495  0.2025  0.0382 -0.0282
29635W        W44766  10.599  17.852  12.659 -0.0152  0.2195 -0.0640
29636W        W44767   1.231  13.002   1.485 -0.2670 -0.0444  0.0179
29637W        W44768   4.347   9.527  11.564 -0.2618  0.0951  0.1241
29638W        W44769  14.917  16.447  14.517  0.1611  0.1831  0.1135
29639W        W44770   0.927   6.387  12.385  0.3150 -0.2784 -0.2074
29640W        W44771   7.506   6.162   1.659  0.0963 -0.1281 -0.0951
29641W        W44772   5.602  17.299  15.962 -0.1513  0.2796 -0.1826
29642W        W44773  12.100   1.178   4.458  0.1473  0.2100  0.0466
29643W        W44774   0.664  15.934  15.833 -0.1128  0.0041  0.2165
29644W        W44775  17.313   7.738  10.555  0.1275  0.0100  0.1960
29645W        W44776   8.442   3.203   1.262  0.0675 -0.1704 -0.2326
29646W        W44777   9.847  10.927  15.123  0.2288 -0.1170 -0.3147
29647W        W44778   4.328   7.933  12.211  0.2866 -0.0592 -0.1343
29648W        W44779   7.343   7.188  10.630 -0.1573 -0.1829 -0.2953
29649W        W44780   0.787  10.847  14.276  0.3786  0.0949  0.3654
29650W        W44781   7.198   2.452  14.092  0.0186  0.2487  0.0224
29651W        W44782   1.470  17.601  13.335  0.1764  0.2567  0.3293
29652W        W44783  12.420  14.331  13.234  0.2443  0.2446  0.1425
29653W        W44784   7.127   9.258   1.192  0.2999  0.2143  0.0287
29654W        W44785   8.364   3.475  10.163  0.2146 -0.0653 -0.2915
29655W        W44786  14.735   5.763   5.717  0.1520  0.2038  0.2042
29656W        W44787  11.225   2.656   5.293  0.0517 -0.1195 -0.0548
29657W        W44788  14.701  16.848   3.600 -0.1257  0.0466  0.0479
29658W        W44789  14.623   1.051  15.346 -0.1344 -0.0675 -0.3135
29659W        W44790   6.244  11.819   0.322  0.0590  0.1654  0.1146
29660W        W44791   1.717  15.816   4.147 -0.0565  0.1235  0.2714
29661W        W44792  11.364   8.613   4.017 -0.0657  0.2898 -0.3003
29662W        W44793   7.637  12.242   1.465  0.2145 -0.1101  0.2728
29663W        W44794   1.223   1.950  12.207 -0.1733  0.2266 -0.3972
29664W        W44795  14.425  12.507  15.638  0.1685 -0.1213 -0.1830
29665W        W44796  11.649   4.923   6.182 -0.4882  0.2011  0.2955
29666W        W44797  10.883  14.165   0.164 -0.0715 -0.0703 -0.1707
29667W        W44798  15.844  12.572   1.984 -0.1162  0.2809  0.0108
29668W        W44799   7.518  12.050   2.969 -0.2036  0.1223  0.1054
29669W        W44800   7.948  16.274   2.138  0.1044 -0.0436 -0.2139
29670W        W44801  10.775  15.133  16.099 -0.0399 -0.1359  0.2015
29671W        W44802  13.253   9.067   4.411  0.0548 -0.1900 -0.1353
29672W        W44803  17.820   1.615  11.616  0.2406 -0.0109 -0.2479
29673W        W44804   1.970  17.005   4.549 -0.2768 -0.0446 -0.1392
29674W        W44805  14.993   7.520  13.464 -0.1409 -0.3128 -0.2740
29675W        W44806   9.631   0.597   0.256  0.2085  0.1326  0.0453
29676W        W44807   6.907   5.185   3.070  0.1098 -0.0306  0.1569
29677W        W44808   1.931   7.271   2.734  0.1125  0.2647  0.1215
29678W        W44809   9.982   5.827   4.601  0.1686  0.1312 -0.0977
29679W        W44810   1.196   8.487   6.280 -0.1089  0.1200  0.0712
29680W        W44811  10.453   4.374  14.278  0.1402  0.2938  0.1152
29681W        W44812  10.578   1.575   0.952  0.0027 -0.0349 -0.2195
29682W        W44813  13.723  13.038   0.421  0.1628 -0.1203 -0.0421
29683W        W44814   5.301   7.344  13.837 -0.1743 -0.2797 -0.3498
29684W        W44815   3.514  11.655  15.345 -0.1141  0.2140  0.3122
29685W        W44816   6.187  15.643   4.556 -0.0167  0.0585  0.0629
29686W        W44817   3.132  13.121   4.368 -0.0853  0.2136 -0.2264
29687W        W44818   1.929   4.855  13.829  0.0201 -0.1656  0.4448
29688W        W44819   1.877   0.579  11.907  0.1584  0.0322  0.0311
29689W        W44820  17.845  12.382   5.760  0.1835  0.1389 -0.1317
29690W        W44821   1.000  11.902  13.189 -0.2316  0.0138 -0.2034
29691W        W44822  10.663   4.089  16.471  0.1935 -0.1341 -0.1595
29692W        W44823  14.852  14.729   4.729 -0.3601 -0.0974  0.2756
29693W        W44824   1.999  16.805   1.104  0.2970  0.1329  0.2739
29694W        W44825   2.099   7.528   0.108 -0.0243 -0.2141 -0.0186
29695W        W44826  11.139   0.759  11.945 -0.0296 -0.0885 -0.1844
29696W        W44827   8.309  14.947   0.339 -0.1026 -0.1005 -0.4230
29697W        W44828   8.752  14.131   0.981  0.1227  0.1279  0.1663
29698W        W44829  10.133   4.589   6.184  0.4514 -0.4996  0.0714
29699W        W44830  16.163  12.989   1.970 -0.1099  0.1499 -0.1570
29700W        W44831   1.682  17.521   1.565 -0.1497 -0.2449 -0.0809
29701W        W44832   4.974   0.272  13.826 -0.0329 -0.0069 -0.0923
29702W        W44833   9.762  11.416  13.813 -0.0391  0.0186  0.0026
29703W        W44834   4.882  11.269   3.435  0.0367 -0.2172  0.0263
29704W        W44835   6.847  15.452   2.982 -0.2393  0.1391  0.2077
29705W        W44836   6.600   4.881   2.849 -0.0916 -0.0268 -0.2187
29706W        W44837   6.948  15.590   1.355  0.0697 -0.1087  0.1960
29707W        W44838  13.970  10.360  12.569 -0.0643  0.3682 -0.3507
29708W        W44839  13.850  13.264   3.017 -0.0200  0.1538  0.0993
29709W        W44840   0.465   3.859   4.260  0.0658  0.1730 -0.0614
29710W        W44841   6.207   3.453   3.897  0.2309  0.0832  0.1625
29711W        W44842  14.141   8.451  14.220  0.0447 -0.0941  0.2279
29712W        W44843   3.722  10.394  12.938 -0.3251  0.0809 -0.1758
29713W        W44844   8.151  16.603  11.415  0.1407 -0.4240 -0.2394
29714W        W44845   8.122  11.045  11.813  0.0241  0.2886  0.0406
29715W        W44846  10.331   3.952   5.058  0.0398  0.1211  0.0129
29716W        W44847   3.457   6.959   3.904  0.2499 -0.0027  0.1828
29717W        W44848   9.469  13.486   2.505 -0.0633 -0.0899  0.1179
29718W        W44849  16.873  11.527   1.734 -0.2090 -0.0893  0.3123
29719W        W44850   5.707  10.863   3.370  0.2164  0.0746 -0.1369
29720W        W44851   1.847   1.029   0.226  0.0823 -0.1610 -0.1192
29721W        W44852  17.075  12.781   1.727  0.1855 -0.0071 -0.2034
29722W        W44853   5.728   3.123  13.642 -0.0661 -0.1013 -0.0904
29723W        W44854   4.511   8.891  13.992  0.1317  0.0014  0.1238
29724W        W44855   6.018  17.466   0.757 -0.0491  0.3179  0.1761
29725W        W44856  17.741   3.107  16.623  0.0328  0.1968  0.1374
29726W        W44857  11.373   5.379  12.006 -0.1223 -0.0445  0.3983
29727W        W44858   6.396   9.081   0.526 -0.0836  0.0016 -0.2725
29728W        W44859   2.228  14.445  15.518  0.0546  0.3302 -0.1234
29729W        W44860   7.165  11.676  14.519 -0.2421  0.0110  0.2087
29730W        W44861  15.567  10.006   5.012  0.2904 -0.0869 -0.1633
29731W        W44862  13.374  10.765  15.837 -0.2346  0.0010 -0.0256
29732W        W44863   6.937  12.409   4.841 -0.4243  0.1657 -0.1182
29733W        W44864  14.636  10.274  14.501 -0.0519  0.2491 -0.4279
29734W        W44865  15.800   9.229  14.578  0.0552  0.3693 -0.2224
29735W        W44866   4.076   5.824  11.240  0.3078 -0.0348 -0.0749
29736W        W44867   0.160  17.712   3.037  0.3157 -0.0579 -0.2129
29737W        W44868  17.300   6.940  11.005  0.4493  0.0473  0.1367
29738W        W44869   4.311   3.439   5.137  0.1031 -0.0563 -0.1112
29739W        W44870   9.490   4.469  11.391  0.3059 -0.0853  0.1474
29740W        W44871  15.195   7.641   4.929  0.0661  0.1287  0.0922
29741W        W44872   7.441  16.792   4.531 -0.0224  0.0795  0.2814
29742W        W44873   9.674   2.597   0.481 -0.1705 -0.1329 -0.1746
29743W        W44874  13.454   5.718  13.285 -0.0509 -0.0641 -0.0960
29744W        W44875  10.623   7.124  14.120 -0.1577  0.3142  0.0966
29745W        W44876  11.394   3.701  16.506 -0.0174  0.2123 -0.0858
29746W        W44877  10.778  13.425  12.272  0.0785  0.1813  0.0218
29747W        W44878   7.229  16.330   0.793  0.0790 -0.0488  0.1260
29748W        W44879  11.333   3.906   3.375 -0.0294 -0.1354  0.1100
29749W        W44880  11.619   3.618  11.436 -0.0389  0.1829  0.0561
29750W        W44881  13.894  11.149  12.632 -0.1476  0.2864 -0.1942
29751W        W44882  11.177  17.100  11.027  0.0224 -0.2247  0.1827
29752W        W44883  16.698   1.501   1.697  0.0680  0.0139  0.0862
29753W        W44884   8.198   1.939   1.772  0.0765 -0.0989  0.0263
29754W        W44885  12.644   3.901   5.887  0.2687 -0.1479  0.0071
29755W        W44886   8.352   5.648   5.439 -0.0751  0.0426 -0.1535
29756W        W44887   8.001  16.780  11.918  0.0587 -0.2352 -0.0613
29757W        W44888   8.727  15.069   4.312  0.0670  0.1626  0.2208
29758W        W44889  14.515  12.904   0.243 -0.1538  0.1291  0.1144
29759W        W44890   8.334   1.974   0.891 -0.0684  0.3712  0.2778
29760W        W44891   5.172  14.857  15.460  0.0838  0.1427 -0.0352
29761W        W44892  14.425   7.963   4.020 -0.0986 -0.3005  0.2224
29762W        W44893   7.370  12.561  13.817 -0.2062  0.1621  0.4409
29763W        W44894   9.912  17.484  12.503  0.0480 -0.0555  0.1806
29764W        W44895  17.689   2.377   4.835 -0.0903 -0.0239 -0.0683
29765W        W44896  16.974  14.452   3.083 -0.2436  0.0978 -0.0334
29766W        W44897   4.660  14.246   1.463 -0.0907 -0.2478  0.1000
29767W        W44898  15.848  15.160   5.441 -0.0220  0.2869  0.1362
29768W        W44899  12.971  15.941   0.012  0.0755  0.2398  0.1975
29769W        W44900  14.190  15.713   3.771  0.3063 -0.1846  0.0266
29770W        W44901  15.362   3.950  11.234  0.2464 -0.0237  0.1516
29771W        W44902   5.592   2.781   3.336  0.4009 -0.1883 -0.1281
29772W        W44903   6.171  17.422   1.686 -0.0938  0.1785 -0.0286
29773W        W44904   1.022  13.217   5.291 -0.1415 -0.2270 -0.1679
29774W        W44905   0.808   3.414   2.547  0.2192 -0.4361 -0.3054
29775W        W44906   8.944   1.798  13.007  0.1319 -0.2145  0.0616
29776W        W44907   3.928   0.480   5.806  0.0255  0.0388  0.0252
29777W        W44908  10.248   3.040   4.868 -0.0520  0.2542  0.3392
29778W        W44909  12.297  10.119   4.231  0.2423 -0.0489 -0.0788
29779W        W44910   5.366   4.821   3.462 -0.1488 -0.0948 -0.0078
29780W        W44911   1.870   1.575  13.038  0.0546  0.1120 -0.0780
29781W        W44912  12.896   4.622   0.094  0.2311 -0.0197 -0.0996
29782W        W44913   1.210  14.355   4.202 -0.1660 -0.1267  0.0919
29783W        W44914   0.948  14.770   1.428 -0.0711  0.1852  0.0945
29784W        W44915   4.866  13.139   4.028 -0.0079  0.0734  0.0818
29785W        W44916   2.683   8.405  11.769  0.1202  0.0908  0.0880
29786W        W44917   0.308  12.443  14.065  0.1741 -0.2949 -0.1051
29787W        W44918  10.200  16.462   3.326  0.2011 -0.1506  0.0027
29788W        W44919  14.283  16.905   4.903 -0.0261  0.0990  0.0549
29789W        W44920  11.418   4.646  16.159 -0.2585  0.5561 -0.1387
29790W        W44921  12.839   2.672  11.034 -0.1219 -0.1452  0.2303
29791W        W44922   0.754  12.548  16.615 -0.1865 -0.1835  0.1741
29792W        W44923  16.983  12.951   3.902 -0.0804 -0.0305  0.0782
29793W        W44924   8.938  11.356  11.675 -0.2209 -0.2541 -0.1384
29794W        W44925   1.191  13.053  10.841  0.3636 -0.2391  0.1382
29795W        W44926   1.018   1.840   4.217 -0.1026 -0.0749 -0.1345
29796W        W44927  15.815  12.702  13.497  0.1627 -0.0172  0.1616
29797W        W44928   1.537   2.167  15.150  0.1768  0.0838 -0.2572
29798W        W44929   7.291   8.616  11.810 -0.0140 -0.1367  0.3074
29799W        W44930   5.091   5.118   0.477 -0.1565 -0.0286 -0.1538
29800W        W44931   8.950   2.970  14.443  0.2626  0.1740 -0.0099
29801W        W44932  17.743  13.864   3.220 -0.1505 -0.1177  0.1461
29802W        W44933   7.691  16.237   2.935  0.5142  0.1929 -0.1836
29803W        W44934   9.301   5.372  16.547 -0.1500 -0.4293 -0.1232
29804W        W44935  17.639  10.283   2.117 -0.2704 -0.0222  0.0118
29805W        W44936   0.578  14.447   4.898  0.0228 -0.0308 -0.1660
29806W        W44937   2.326   1.690   3.322  0.1933 -0.0256  0.4033
29807W        W44938  12.881   5.118  15.826  0.1985 -0.2807 -0.1329
29808W        W44939  12.245  14.575  11.584 -0.0472 -0.0086 -0.3613
29809W        W44940  16.638   3.614  14.963  0.3696 -0.3066  0.3263
29810W        W44941  13.623  12.813  16.737 -0.0823  0.0967  0.2218
29811W        W44942   2.427   0.113   3.000 -0.0545  0.0900 -0.1514
29812W        W44943  12.143  13.105  13.901  0.2077  0.2714 -0.2186
29813W        W44944  12.079   3.467  13.930  0.0568  0.3527  0.0525
29814W        W44945  16.184   8.928   1.316 -0.0849 -0.1156 -0.1158
29815W        W44946   4.674   6.604   4.265  0.4406  0.4055  0.1361
29816W        W44947   4.957   5.793   3.964  0.0178  0.1966 -0.0823
29817W        W44948   6.167   7.001  16.532 -0.0309  0.1712 -0.0487
29818W        W44949   0.928   1.906   5.450  0.1685 -0.0656 -0.0995
29819W        W44950   1.492  13.743  16.300 -0.1376  0.0491 -0.1939
29820W        W44951   0.701   1.696   1.066 -0.0189 -0.0687  0.0063
29821W        W44952   1.463   4.172   3.840  0.0217 -0.1570 -0.0964
29822W        W44953   0.859  15.719   0.620 -0.2249  0.1722  0.1006
29823W        W44954  13.003   5.665  12.276 -0.0707 -0.0250  0.1685
29824W        W44955  13.711  13.701   3.320  0.1184 -0.3017 -0.2865
29825W        W44956  15.347   6.452  14.267 -0.0624  0.1621 -0.0885
29826W        W44957  16.678   8.655  16.013 -0.0723 -0.0567  0.0826
29827W        W44958  11.174  13.828  15.255  0.1378  0.0145 -0.1432
29828W        W44959   8.247  10.202  14.880  0.1819  0.1070  0.1803
29829W        W44960  15.214  10.248   4.742  0.0648  0.0620  0.2020
29830W        W44961  11.562   1.794  14.222  0.3171 -0.2190 -0.0190
29831W        W44962  13.177   9.838  12.681  0.3054  0.1182  0.0337
29832W        W44963  16.322   7.688  13.676 -0.0606 -0.0207 -0.0950
29833W        W44964   8.182  12.435   1.848  0.2396 -0.1254  0.2574
29834W        W44965  15.757   7.737   2.673 -0.3126  0.0752  0.0928
29835W        W44966   9.948   0.041  13.140 -0.0617  0.0967  0.4253
29836W        W44967   6.925   4.470  11.762 -0.0761 -0.0345 -0.1147
29837W        W44968   2.799   9.349  15.827 -0.0799 -0.1662  0.0243
29838W        W44969  11.024  15.429  10.107 -0.0433 -0.1954  0.1817
29839W        W44970   3.486   1.993   5.403 -0.3641  0.0974 -0.0014
29840W        W44971  14.349   5.109  14.062  0.2113 -0.0999 -0.0711
29841W        W44972   6.395   0.215   4.813  0.1291  0.0076  0.2344
29842W        W44973  17.092  11.552  12.217  0.0653 -0.0575 -0.1688
29843W        W44974   2.509  11.860  16.620 -0.2103 -0.1033  0.1049
29844W        W44975  16.496   0.605   3.963 -0.1727 -0.1141 -0.2084
29845W        W44976  12.181  15.004  11.309  0.2382 -0.3171 -0.0986
29846W        W44977  11.066   3.138  15.402 -0.1661  0.2041 -0.0425
29847W        W44978  10.113  14.949  16.730  0.0289  0.1889 -0.1403
29848W        W44979  10.049   3.443   0.100 -0.4366 -0.0710  0.3471
29849W        W44980   3.097   6.003  16.301 -0.3861 -0.0450 -0.0437
29850W        W44981   6.212   5.750   5.812  0.0386 -0.0286  0.2111
29851W        W44982  12.808  16.193  16.349 -0.0121  0.1067  0.2778
29852W        W44983  12.181   9.037   5.055 -0.1239 -0.1726  0.2773
29853W        W44984   7.679  10.643   0.638  0.2868 -0.3510  0.2843
29854W        W44985   1.862   9.076   6.164 -0.3842 -0.0565  0.1989
29855W        W44986  14.688   0.475   0.308  0.0558 -0.0184 -0.1935
29856W        W44987  10.515   2.388  15.211 -0.4909  0.1533  0.2876
29857W        W44988   6.168  15.818  15.054  0.0800 -0.1778  0.1986
29858W        W44989   6.447   7.229   2.718 -0.1383 -0.0660  0.0632
29859W        W44990   1.637  14.777   1.073 -0.1186  0.1471 -0.1134
29860W        W44991  13.225   9.879  14.088 -0.1003  0.0496 -0.0473
29861W        W44992  12.443  12.679  13.884 -0.4397 -0.0328  0.0333
29862W        W44993   4.256   9.820   3.332 -0.3253  0.2157 -0.0807
29863W        W44994   8.228   7.958   1.839  0.3070 -0.0268 -0.1207
29864W        W44995   8.229   9.926   0.610  0.0286  0.2597  0.2278
29865W        W44996   6.205   7.316  14.024  0.0435 -0.0230  0.0480
29866W        W44997  12.108  10.446   2.412 -0.1896  0.1576  0.0277
29867W        W44998  13.797   7.330  14.954  0.3131  0.1663 -0.2331
29868W        W44999  16.897   3.302   3.737 -0.0442  0.2045  0.0245
29869W        W45000  17.168  10.353  14.514  0.0218  0.0575  0.3401
29870W        W45001  14.606   2.088   5.361 -0.0519  0.0503 -0.0290
29871W        W45002   3.394  10.610   4.195  0.0764 -0.0623 -0.0331
29872W        W45003   0.301  15.156  13.324 -0.1776 -0.1334  0.0437
29873W        W45004   0.117  17.572   5.049  0.0837 -0.2082  0.1402
29874W        W45005   1.500  11.595  16.428 -0.2252 -0.2216  0.3394
29875W        W45006   1.641   7.242  15.006  0.0482  0.0962 -0.1867
29876W        W45007   9.459   5.568   0.717  0.2936  0.0013 -0.2969
29877W        W45008  17.389   2.918   0.229 -0.3480 -0.2315  0.1584
29878W        W45009   0.992  17.242   6.820 -0.1450 -0.3834  0.4164
29879W        W45010  15.857   4.979  12.138 -0.0688  0.2192 -0.1547
29880W        W45011  10.381  10.234  16.518 -0.1451  0.2110  0.1028
29881W        W45012   6.307   7.994   0.567  0.0365 -0.3602 -0.3024
29882W        W45013  16.647   3.358   1.143 -0.3898 -0.0790  0.0540
29883W        W45014  11.611   9.473  12.106  0.2303  0.2467 -0.0799
29884W        W45015   5.362   5.429  12.448  0.1288 -0.0382  0.2817
29885W        W45016  15.564   3.510   3.830 -0.0801 -0.0297 -0.1460
29886W        W45017  12.911  17.790  12.151  0.2893  0.0302  0.1904
29887W        W45018  10.975  12.483  12.134 -0.2139  0.0996 -0.0507
29888W        W45019   1.475  12.634  16.331  0.2054  0.1568 -0.0284
29889W        W45020  10.367   9.338  16.377  0.0300 -0.2486  0.3570
29890W        W45021  14.404   5.169   1.655  0.1282 -0.0202  0.0355
29891W        W45022  13.272   8.878   1.853  0.1378 -0.0085  0.1568
29892W        W45023   4.582  14.952   5.694 -0.1866 -0.0739  0.0256
29893W        W45024   5.904  14.631  14.345  0.0082  0.0511  0.2134
29894W        W45025  13.808   5.980   1.717  0.2275  0.0676  0.3553
29895W        W45026   0.323  10.541  11.480  0.0284 -0.0712  0.1014
29896W        W45027   9.775   6.260   5.191  0.4146 -0.0765 -0.1461
29897W        W45028   2.773  14.106   2.937  0.1541 -0.0234 -0.3449
29898W        W45029   7.507  12.806  11.522 -0.1344 -0.2208 -0.1881
29899W        W45030  11.781   7.946  16.516  0.0458  0.0697  0.1512
29900W        W45031  12.554  10.588   1.011 -0.0559 -0.1968 -0.3816
29901W        W45032   7.446  16.672   2.235  0.0606 -0.3071  0.2278
29902W        W45033  10.521   5.008   2.669 -0.1088 -0.0241 -0.0623
29903W        W45034   8.755  12.435  14.688 -0.2083 -0.2014 -0.3969
29904W        W45035   2.455  16.431   3.871 -0.0152  0.2241 -0.4124
29905W        W45036  10.663   0.091  15.744  0.0983 -0.1927 -0.0650
29906W        W45037  13.532   8.914  12.303  0.0497  0.0196 -0.2421
29907W        W45038   9.346  15.074   0.283 -0.1314 -0.0533  0.1463
29908W        W45039   6.152   4.983  12.652  0.2355 -0.3881  0.2848
29909W        W45040   3.120   9.635  16.078  0.1524  0.0935 -0.2568
29910W        W45041  17.335   0.978  12.674  0.0218 -0.2039  0.2328
29911W        W45042   3.300  16.337   3.509 -0.1839  0.1086 -0.2043
29912W        W45043  17.527   8.334   2.951 -0.2679 -0.0685 -0.2415
29913W        W45044  14.116  11.082   3.569  0.3744 -0.0629  0.0940
29914W        W45045  15.116  11.848  12.297  0.0534  0.2454  0.0025
29915W        W45046   4.786   3.405  13.885 -0.1457  0.3136  0.0069
29916W        W45047   9.549   1.396  11.176  0.0095  0.0480  0.4104
29917W        W45048   2.345   6.637  11.942 -0.0752 -0.0522 -0.1944
29918W        W45049   9.737   7.502  16.570  0.1038  0.1396  0.1668
29919W        W45050   3.603  16.611   0.740 -0.0543 -0.2639 -0.2055
29920W        W45051  10.969   9.777  14.217  0.0402 -0.0326 -0.4358
29921W        W45052  13.865  14.256   3.273  0.2591  0.0697 -0.2156
29922W        W45053   9.367   6.654   4.307  0.1202  0.1228  0.2750
29923W        W45054  15.497  11.772   0.005 -0.0934 -0.3011 -0.0225
29924W        W45055  14.456  16.433  14.252 -0.1566  0.2426  0.1148
29925W        W45056   2.495  17.079  12.207  0.1457  0.2134 -0.0007
29926W        W45057   6.122   7.806  14.201  0.1696 -0.0776 -0.0758
29927W        W45058  10.058  14.667   1.929 -0.1433 -0.2862  0.1450
29928W        W45059   0.421   0.612   0.893 -0.1785 -0.0073  0.2105
29929W        W45060   3.967  13.928   3.514 -0.1544  0.2218 -0.0337
29930W        W45061  11.774   0.193   2.834  0.2406  0.2990 -0.0728
29931W        W45062   1.104   9.525   4.575  0.0532  0.2447 -0.3509
29932W        W45063   4.723  12.260  16.544 -0.0671 -0.0299 -0.1590
29933W        W45064   1.563  15.734   5.904  0.1180  0.1228 -0.1045
29934W        W45065   3.123   2.975   5.227 -0.1160 -0.0452 -0.0369
29935W        W45066   6.845   3.663   1.993  0.1985  0.1726  0.2524
29936W        W45067   1.791   5.562   0.054 -0.0347 -0.0915 -0.0844
29937W        W45068  16.167   7.063  14.521 -0.0025 -0.1476  0.0904
29938W        W45069   5.324   9.163  15.956  0.0534  0.0639 -0.0362
29939W        W45070  16.894  14.615  16.080 -0.2379 -0.0105 -0.0682
29940W        W45071  12.394   8.803  13.339 -0.2638  0.1037 -0.3553
29941W        W45072  10.362   8.352   5.310  0.1111  0.1020  0.3306
29942W        W45073   5.946   1.348   0.864 -0.0586  0.0573 -0.0021
29943W        W45074  16.345   9.036  13.079  0.1310 -0.2892  0.0067
29944W        W45075   9.154  16.398   2.767 -0.1942  0.2170  0.3388
29945W        W45076  10.116   9.660   0.497 -0.1403 -0.2263 -0.2237
29946W        W45077   9.676   7.637  12.378  0.1764  0.2511 -0.0626
29947W        W45078   6.845   6.114  12.407 -0.1871 -0.0368 -0.2418
29948W        W45079   7.893  16.162   1.611  0.0051  0.0927  0.0858
29949W        W45080   7.430   5.609   0.786  0.2841 -0.0635  0.0971
29950W        W45081  15.945  14.504   3.492  0.1279  0.0971  0.2861
29951W        W45082  11.440  16.586   4.291  0.2086  0.2103  0.0514
29952W        W45083   1.136   4.172   5.761 -0.2526  0.2671 -0.3620
29953W        W45084  11.710  10.700   1.007 -0.2241 -0.2555  0.0254
29954W        W45085  13.768   4.254  10.680 -0.1930  0.1894  0.0232
29955W        W45086   6.515  16.594   4.968  0.0280  0.1456 -0.0504
29956W        W45087  16.096  13.085  16.408  0.0671 -0.1545 -0.1210
29957W        W45088   1.733  16.787   0.681 -0.1056  0.0942  0.2469
29958W        W45089  10.290  11.282   0.662 -0.0718 -0.1313  0.0626
29959W        W45090   2.594   3.725   4.542  0.0060  0.3660  0.1477
29960W        W45091   5.441   5.555   4.165  0.3505  0.1904 -0.3220
29961W        W45092   7.863  13.025  14.112 -0.0589 -0.0014 -0.2186
29962W        W45093  13.242   8.322   5.251  0.0281  0.2378 -0.0125
29963W        W45094   0.093   2.181   4.473  0.1001  0.4934  0.0359
29964W        W45095   2.191  10.848   3.690  0.0518 -0.3603 -0.0085
29965W        W45096   4.537  13.725  14.971  0.0651  0.1118 -0.2303
29966W        W45097  14.014   0.700  12.319 -0.2537 -0.1038  0.0796
29967W        W45098   3.320  17.819   4.502  0.3854 -0.0341  0.0858
29968W        W45099   4.467  15.133  15.447  0.2071  0.1143  0.2910
29969W        W45100   7.873   4.679   0.977  0.0477 -0.0854 -0.0775
29970W        W45101   7.525   1.556   1.473 -0.3119  0.1740  0.0164
29971W        W45102   4.305   4.111   1.041  0.1536  0.0449 -0.2957
29972W        W45103   7.861  17.452  13.758  0.2153 -0.1435 -0.0740
29973W        W45104  13.936   4.934  13.337 -0.0150 -0.1940 -0.0921
29974W        W45105   0.422   0.137   1.618 -0.0187 -0.0424 -0.1424
29975W        W45106  13.307  17.421   3.467 -0.0499  0.1866 -0.1219
29976W        W45107  16.713   2.199   2.569 -0.5389 -0.0729 -0.0180
29977W        W45108   8.380   1.186  10.818  0.2601 -0.0883 -0.0560
29978W        W45109   1.804  11.688   1.288  0.1002 -0.1978  0.0450
29979W        W45110   6.313   1.881   5.445  0.2169 -0.6047  0.1533
29980W        W45111   2.122  17.609   1.714  0.0611 -0.0181  0.0124
29981W        W45112   0.809   9.387  13.439 -0.0136  0.2581  0.0316
29982W        W45113   1.291   0.146  13.061  0.4616 -0.3750  0.2219
29983W        W45114   5.310   7.966  14.702 -0.2026 -0.3162 -0.3346
29984W        W45115  15.085   3.614  15.832 -0.1024 -0.4601  0.0185
29985W        W45116   3.112  13.139   2.689  0.0614 -0.2509 -0.0354
29986W        W45117   1.686  17.247   2.022 -0.1200  0.1925 -0.0271
29987W        W45118   1.183  16.260  13.076  0.1649 -0.1510  0.0945
29988W        W45119   0.953  15.280  14.836 -0.0549  0.1401 -0.3226
29989W        W45120   2.696  10.794  12.604 -0.0709 -0.1890  0.1360
29990W        W45121   2.639   9.491  14.295 -0.1931  0.3775  0.0108
29991W        W45122   8.852   6.221   3.783 -0.0517 -0.0050  0.3361
29992W        W45123   3.326   4.571   2.202  0.1065 -0.0172  0.0862
29993W        W45124  17.878   2.740  13.834  0.0356 -0.0405 -0.2017
29994W        W45125  17.871  13.318   2.041  0.2293  0.1397  0.0373
29995W        W45126   1.883  14.595  14.008  0.1774 -0.1754 -0.0779
29996W        W45127   3.432  16.130   4.594 -0.1821 -0.0469  0.0518
29997W        W45128  15.129  11.131   6.277  0.0804  0.3134  0.1415
29998W        W45129   1.935   0.309   0.811  0.0304  0.2982  0.1670
29999W        W45130   7.659   3.911  11.846  0.0499 -0.2192 -0.1087
30000W        W45131  10.518   1.799  16.199 -0.0653  0.0231  0.1451
30001W        W45132   9.592   7.687   0.231  0.0994  0.0402 -0.0046
30002W        W45133   5.905  16.079   4.341 -0.0637  0.0225  0.1922
30003W        W45134  11.895   4.374  13.974  0.1284 -0.3425 -0.0920
30004W        W45135  16.808   1.369   3.630 -0.0386 -0.3607  0.4845
30005W        W45136   5.568   4.193   6.030  0.0763  0.0974 -0.1520
30006W        W45137   0.713   4.764  13.218 -0.1169 -0.0876  0.2886
30007W        W45138   0.608   1.148   4.771  0.0646 -0.2364  0.0847
30008W        W45139   2.565   8.015   3.594 -0.3276  0.1674 -0.0398
30009W        W45140  12.641   4.049  11.273 -0.2006 -0.1297  0.4527
30010W        W45141   7.490   3.943   4.371 -0.0136 -0.2417 -0.3277
30011W        W45142  16.449   0.731  12.888  0.1894 -0.0376 -0.1091
30012W        W45143  11.498  12.127  13.133 -0.0582  0.0763  0.2528
30013W        W45144  17.450  14.142   3.935 -0.0251  0.0393 -0.2006
30014W        W45145  13.938   8.663  10.314 -0.1911  0.3170  0.0338
30015W        W45146   9.883   0.819  11.807 -0.3266  0.3812  0.0829
30016W        W45147  12.010  15.064  10.312 -0.0347 -0.0575  0.3921
30017W        W45148  13.269  11.819  13.073 -0.0968  0.0756 -0.0566
30018W        W45149   0.513  15.082  13.845  0.0203 -0.0108  0.0352
30019W        W45150  17.256  16.208  16.212 -0.2421 -0.1899 -0.0366
30020W        W45151   6.830   1.191   4.581  0.2353  0.0393  0.0783
30021W        W45152   1.058   6.215  16.212 -0.1211 -0.2043  0.3976
30022W        W45153  12.299  17.711  14.447  0.0136  0.0365 -0.0977
30023W        W45154   2.736   5.460  14.278 -0.1663 -0.0131  0.0873
30024W        W45155   1.039  13.446  15.381 -0.0075  0.2964 -0.1238
30025W        W45156  17.365   3.384   0.120 -0.6054  0.2858 -0.0871
30026W        W45157  13.002   2.945   4.519  0.0663  0.1614  0.1141
30027W        W45158   4.441  16.393  13.906 -0.1744  0.0186  0.1123
30028W        W45159   9.725  16.264  15.062 -0.0164  0.0401  0.0217
30029W        W45160   7.718  13.483  11.859 -0.1107 -0.0418  0.3009
30030W        W45161   7.644   2.611   2.837 -0.1939 -0.0720  0.1715
30031W        W45162  14.309  13.927   1.308  0.2244  0.0744  0.2189
30032W        W45163   9.886  10.878   0.868  0.3563  0.1480 -0.2344
30033W        W45164  12.465  15.625   3.568 -0.3348 -0.3462  0.1360
30034W        W45165  16.955  16.472  12.269 -0.1449 -0.0753  0.0618
30035W        W45166   0.748  11.866   5.201 -0.0051  0.1033 -0.0764
30036W        W45167  15.943   0.387   3.409  0.0672 -0.0674 -0.2581
30037W        W45168  14.311   5.468   4.445  0.0556 -0.0379 -0.0417
30038W        W45169   7.825   7.896  11.334 -0.2834 -0.0164  0.1261
30039W        W45170  15.008  11.967   1.054  0.0695  0.1923 -0.1257
30040W        W45171   3.170  12.896   0.071  0.1824 -0.1197 -0.2937
30041W        W45172  12.156   7.455  14.955 -0.1185 -0.1200 -0.0399
30042W        W45173   3.938   2.793   1.336 -0.0984 -0.0835 -0.1333
30043W        W45174  11.696  11.267   4.463 -0.2667  0.0526  0.1601
30044W        W45175   7.139   9.438  15.253  0.2941 -0.1977  0.4102
30045W        W45176   4.890  11.656  15.946 -0.0417 -0.1650  0.0462
30046W        W45177   3.345   7.188  13.557  0.3637  0.1952  0.0898
30047W        W45178  14.261   4.188  12.855 -0.2437  0.4322  0.1124
30048W        W45179  10.403  16.961  16.406 -0.0729  0.1240 -0.0326
30049W        W45180  12.579  10.023  13.504 -0.0740 -0.0058  0.1635
30050W        W45181   1.988   6.325  11.672  0.0159  0.1199  0.1389
30051W        W45182   0.302   1.932   0.489 -0.0551 -0.0188  0.1136
30052W        W45183   8.702  10.469  15.719  0.1430  0.1630  0.1877
30053W        W45184   4.264   6.932   0.288  0.0714  0.1164 -0.1087
30054W        W45185   3.455   7.468   0.190 -0.1180  0.3232 -0.0301
30055W        W45186   4.771  15.238   6.298 -0.0703  0.0176  0.1457
30056W        W45187  15.022   7.167  12.480 -0.2002  0.0652 -0.0446
30057W        W45188   0.948   5.847   4.141 -0.0653 -0.2422 -0.2746
30058W        W45189   3.743   6.779   0.399  0.2412  0.0607 -0.2991
30059W        W45190  17.602   7.975   3.878  0.0390  0.2162 -0.0662
30060W        W45191  13.818   7.406   4.441  0.0485 -0.4329  0.1315
30061W        W45192  15.740   1.486  13.656 -0.1014 -0.0518  0.1611
30062W        W45193   1.633  16.242   3.908  0.1136 -0.2995 -0.3164
30063W        W45194  12.388  11.538   3.246  0.1874 -0.0341 -0.1257
30064W        W45195  15.164   0.317   6.199  0.1195  0.2566  0.0953
30065W        W45196   2.327   7.851   5.544 -0.0652  0.1778  0.0396
30066W        W45197  13.342   3.614  13.960 -0.1454  0.2256  0.0003
30067W        W45198  15.388   5.183  12.714 -0.1014  0.1436 -0.0607
30068W        W45199   8.894   5.126  13.478  0.0124 -0.0070 -0.1204
30069W        W45200   8.423  14.183   4.720  0.0836 -0.1555 -0.0126
30070W        W45201  13.504  10.839   2.634 -0.2162 -0.1114  0.1989
30071W        W45202   4.056   0.723  15.468 -0.3468  0.0431  0.2516
30072W        W45203   6.125   4.959   2.835  0.0389 -0.2293 -0.0151
30073W        W45204  10.399   2.510   1.026  0.3296  0.3863  0.0755
30074W        W45205  11.778   9.873  14.777  0.3058  0.0319 -0.1562
30075W        W45206   8.756  11.560   4.749 -0.1738  0.0559 -0.0767
30076W        W45207   6.340  16.360   4.584 -0.1032  0.1493  0.1175
30077W        W45208  16.838  17.377   3.959  0.2386 -0.0150 -0.0950
30078W        W45209  11.822   5.909   1.036 -0.2599  0.1974  0.1280
30079W        W45210   6.774   7.613   2.758  0.0246 -0.2206  0.4397
30080W        W45211   3.950  14.664  16.391 -0.1559  0.1948  0.2703
30081W        W45212  12.209   6.675   2.739  0.0866  0.1012  0.2063
30082W        W45213   2.344  11.201   4.436  0.4554  0.0749 -0.0658
30083W        W45214  17.393  10.130   3.926  0.0314  0.1166  0.1708
30084W        W45215  15.888   9.700   0.176  0.3182 -0.3309 -0.1241
30085W        W45216   5.956   6.694   5.701 -0.4095 -0.2478  0.1122
30086W        W45217   5.889   0.196   3.866 -0.2496 -0.1108  0.0793
30087W        W45218  11.403   7.771   4.281  0.0125  0.0577 -0.3008
30088W        W45219  13.300  16.245  16.255  0.0022  0.2146  0.3600
30089W        W45220  10.096   6.252  15.095 -0.1303 -0.1513 -0.0376
30090W        W45221  16.638  14.293   2.040  0.0676  0.0034 -0.3797
30091W        W45222   2.022   3.857   0.501 -0.0774 -0.3508 -0.3785
30092W        W45223  10.939   3.573  14.637  0.1265 -0.0982 -0.0142
30093W        W45224  17.772   0.830   3.576  0.1427  0.1970 -0.1637
30094W        W45225   7.685  12.914   2.643  0.2187  0.2018  0.1866
30095W        W45226  11.731   9.874   4.860  0.0319  0.3034 -0.0959
30096W        W45227   2.764   8.665   2.782 -0.1953 -0.2034  0.1033
30097W        W45228  14.468  16.903   1.279  0.0922 -0.2807 -0.5125
30098W        W45229  13.039   5.387   3.849  0.5156  0.0226  0.3316
30099W        W45230  16.464   1.846   1.976 -0.4299 -0.0040 -0.2008
30100W        W45231   7.772  11.617   5.719 -0.1206  0.0790 -0.3484
30101W        W45232  11.870   0.521  13.469  0.1977 -0.0628 -0.2081
30102W        W45233  17.171  11.019   3.406  0.0708 -0.2062 -0.0280
30103W        W45234   6.229   8.515   2.246  0.2024 -0.0103  0.2893
30104W        W45235  11.127   0.151  15.916  0.2287 -0.1163  0.2299
30105W        W45236   4.795   9.641  10.378  0.0916 -0.2229 -0.3364
30106W        W45237  13.957  10.169   3.700 -0.0637  0.0403  0.0825
30107W        W45238   0.686  13.612   3.249  0.1587  0.0575 -0.1019
30108W        W45239   2.169   2.361   3.415 -0.3736 -0.3041  0.0368
30109W        W45240   5.322  16.903  14.368 -0.2362 -0.0376  0.1692
30110W        W45241   7.006   5.634   5.661  0.1911 -0.3460  0.0915
30111W        W45242  12.886   3.519  16.258 -0.0545 -0.0949 -0.1794
30112W        W45243  17.139  16.485   3.418  0.0580  0.0989 -0.4757
30113W        W45244   3.235  16.088   6.197  0.0418 -0.4117  0.4215
30114W        W45245   6.064   4.108   9.814 -0.1105  0.0354  0.1081
30115W        W45246   5.974   6.377  10.616 -0.0580 -0.3582 -0.0048
30116W        W45247  13.671  12.662  14.632  0.0605  0.1052  0.0377
30117W        W45248   1.949   9.089   2.551 -0.1247  0.3923  0.1719
30118W        W45249  10.424   5.025   3.170  0.2067  0.1727  0.1610
30119W        W45250   0.205   8.437  16.471 -0.1098  0.1168 -0.0508
30120W        W45251   0.705   9.136   0.873 -0.2477  0.0755  0.1619
30121W        W45252   4.690   9.080   1.193 -0.0236  0.4545 -0.2375
30122W        W45253   0.608   6.661  11.605  0.1167  0.2666 -0.1735
30123W        W45254   7.026  11.565   3.778 -0.0052 -0.4552 -0.1267
30124W        W45255   5.052   7.120  14.494  0.0692 -0.1593  0.1499
30125W        W45256   8.511   8.041  11.923 -0.1751 -0.1880 -0.2487
30126W        W45257  16.824  10.639  14.964  0.1985  0.0259  0.0411
30127W        W45258   5.118  17.258  14.046  0.0767 -0.0060  0.1423
30128W        W45259   5.068   2.221   1.812 -0.2080 -0.1541 -0.1020
30129W        W45260  15.367   6.477   4.431 -0.0668  0.1557 -0.1871
30130W        W45261   8.940   9.164  15.763 -0.2252  0.2215 -0.2018
30131W        W45262   5.080   7.206   4.805 -0.1509  0.0190 -0.0881
30132W        W45263  16.933  13.058  13.079 -0.3349  0.1864  0.2462
30133W        W45264   9.611   4.304  10.485  0.0062  0.0617 -0.1560
30134W        W45265   2.125  16.098   3.622  0.2233  0.0965 -0.1248
30135W        W45266   4.594   5.054   0.316 -0.0518  0.0586  0.1898
30136W        W45267  15.516  11.077  14.756 -0.1711 -0.0011 -0.0819
30137W        W45268   9.675   9.241   3.285  0.3483 -0.1493  0.0718
30138W        W45269  17.145  16.789  14.860 -0.0177  0.0225  0.1631
30139W        W45270  13.863   7.957   4.735  0.2213  0.1513  0.0783
30140W        W45271  13.480  15.757   4.862  0.1604  0.2439 -0.2875
30141W        W45272   3.677  13.783  15.273 -0.0227  0.0330 -0.2479
30142W        W45273   0.756  14.456  12.754  0.0605  0.2751 -0.1374
30143W        W45274   1.897   4.323   0.714  0.0336  0.0429  0.2312
30144W        W45275  11.346  17.765   4.116 -0.1410  0.1168  0.3349
30145W        W45276  11.286  10.613   5.191 -0.3890  0.0960  0.0336
30146W        W45277   4.088  11.575  14.175 -0.0139 -0.3883 -0.1390
30147W        W45278  17.781   2.014   2.683 -0.3046 -0.2368  0.0504
30148W        W45279  17.493   3.083  13.817 -0.0110 -0.2397  0.1649
30149W        W45280   1.916  10.303   5.277 -0.0663 -0.0355  0.2925
30150W        W45281   3.406  17.616   2.546 -0.3883 -0.1307 -0.0578
30151W        W45282   0.498  15.812  14.318 -0.1581  0.0750 -0.1298
30152W        W45283   7.842  16.008  14.642 -0.0544  0.1715 -0.2103
30153W        W45284   7.597   0.375  13.930 -0.1301  0.0090 -0.2763
30154W        W45285  14.633   5.558  12.659 -0.0585  0.0145 -0.0416
30155W        W45286   7.788  17.827  14.710  0.1427  0.0589  0.2111
30156W        W45287   8.924   9.269  11.402 -0.0518 -0.1475  0.0507
30157W        W45288   2.471   8.984   1.066 -0.1572  0.0678  0.2761
30158W        W45289   3.134   4.927   6.004  0.0271  0.1508  0.0131
30159W        W45290   9.363   6.530  15.557 -0.1480 -0.0243  0.1845
30160W        W45291  17.126  12.699  14.740  0.0342  0.2674 -0.0245
30161W        W45292   9.974  10.377  13.896  0.1876  0.2146 -0.1056
30162W        W45293   5.597   6.012   5.102  0.2794 -0.0077 -0.0620
30163W        W45294   1.206   0.581   3.575  0.0279  0.0855  0.0067
30164W        W45295   5.763  14.597   3.412  0.3667 -0.1807  0.0150
30165W        W45296   0.830   6.793   4.199 -0.2958 -0.3914  0.1589
30166W        W45297   5.080  13.203   4.479 -0.0905  0.1503 -0.0041
30167W        W45298  12.671   8.692   3.362 -0.1474 -0.4518  0.1064
30168W        W45299  10.451  16.886   3.230 -0.2026 -0.3548  0.0888
30169W        W45300   4.711  14.074  14.100  0.1505  0.1822 -0.3316
30170W        W45301   5.579  16.502  12.107  0.2288  0.1466 -0.1588
30171W        W45302   9.173   2.152   4.727  0.2377 -0.2187 -0.0490
30172W        W45303  10.727   6.235  12.457 -0.3290  0.3551 -0.0450
30173W        W45304   6.584  13.810   0.423 -0.0172 -0.0974 -0.0802
30174W        W45305   5.756   8.178   3.311  0.0927 -0.0467 -0.0961
30175W        W45306  15.735   2.915  11.675 -0.0475  0.4661 -0.0749
30176W        W45307  16.091   0.931  11.005 -0.0112  0.1184 -0.1268
30177W        W45308  12.469  13.060   4.460 -0.1930 -0.1008  0.1245
30178W        W45309   5.312  13.879  16.520  0.2766 -0.2858 -0.2131
30179W        W45310   9.989   7.330   1.122 -0.0789  0.0317 -0.1847
30180W        W45311   5.717  14.739  15.910 -0.0160  0.1696  0.0308
30181W        W45312  11.398   9.771  13.051 -0.2347 -0.1179  0.2144
30182W        W45313   1.561  17.829   6.972  0.0805  0.0696 -0.2229
30183W        W45314   7.198   3.667   0.978 -0.1273  0.1484  0.2389
30184W        W45315   2.814   6.782  16.676 -0.1157 -0.0269  0.0462
30185W        W45316   4.237  10.345   1.375 -0.0007 -0.3797 -0.4123
30186W        W45317  10.138  10.957  16.079  0.0214 -0.0429  0.1621
30187W        W45318   8.998   3.396  15.381 -0.2782 -0.2904  0.0610
30188W        W45319   0.260   2.306  13.965 -0.2063  0.1623  0.1834
30189W        W45320   4.992  10.180   2.683  0.0371  0.0402 -0.1723
30190W        W45321   4.657   2.102  13.407  0.0028  0.3709  0.0909
30191W        W45322   4.938  14.822   0.629 -0.0932  0.1377 -0.1081
30192W        W45323   1.334   0.400   6.151 -0.0567  0.1738  0.0675
30193W        W45324   3.894  11.503   6.049  0.0148 -0.1183  0.4189
30194W        W45325   3.267  15.397   5.607  0.0866 -0.0173 -0.0667
30195W        W45326   6.983   9.741  15.647  0.0303 -0.1966  0.0862
30196W        W45327  10.816  11.131  11.525 -0.0348 -0.2912  0.0797
30197W        W45328   2.285  14.378  11.938  0.0881  0.1438  0.3307
30198W        W45329  13.798   6.630   1.576  0.0700 -0.0080  0.0933
30199W        W45330  12.266   1.633   1.007 -0.1829 -0.1752  0.1110
30200W        W45331   0.451   3.731   2.434 -0.3468 -0.4896 -0.1443
30201W        W45332  13.710  13.244  11.629 -0.1223  0.0850  0.1103
30202W        W45333   5.914  11.450  10.930 -0.1958  0.0892 -0.1000
30203W        W45334   8.302   0.570  11.188  0.2978 -0.2491  0.0930
30204W        W45335   1.801   1.342  15.370  0.1267  0.0043 -0.1179
30205W        W45336   8.762   3.825   3.771  0.0985  0.0675  0.0144
30206W        W45337   9.120   8.608  15.822  0.1888 -0.0529 -0.1151
30207W        W45338   9.342  17.711  10.089 -0.0949 -0.1730 -0.3134
30208W        W45339   8.413  11.308  16.183  0.2896 -0.0833 -0.0646
30209W        W45340   9.748   4.480  12.065 -0.0937 -0.0048  0.1246
30210W        W45341   5.474  13.508  15.591  0.2115 -0.0179  0.0771
30211W        W45342  17.483   3.482   2.075 -0.1367 -0.2185 -0.2259
30212W        W45343   3.824  13.827  11.706 -0.1088  0.1443  0.2186
30213W        W45344   2.681   1.685  13.884 -0.0194  0.1542  0.0140
30214W        W45345   1.283   3.159  16.514 -0.1192 -0.1334  0.2534
30215W        W45346  11.557  10.059   1.753 -0.2205  0.0849 -0.0822
30216W        W45347  10.463   5.835  14.369 -0.2770 -0.1179 -0.1073
30217W        W45348   7.419  13.636  11.522  0.0268 -0.4653 -0.0179
30218W        W45349   2.254   8.792  11.662 -0.3389  0.0267  0.2317
30219W        W45350  10.895   5.832  14.722 -0.1372 -0.0124 -0.0943
30220W        W45351  10.095  12.390  15.241  0.1966 -0.0826 -0.2347
30221W        W45352   9.226   2.186  13.255  0.1518  0.1673 -0.1283
30222W        W45353  12.155   0.915  13.222  0.0449 -0.2349  0.1387
30223W        W45354   0.750  11.074   0.007  0.0409  0.1493  0.1385
30224W        W45355   2.593   2.072   3.110 -0.0644  0.1771  0.0648
30225W        W45356   9.029   7.751  12.852  0.2666 -0.3957  0.1893
30226W        W45357  17.788  12.883   4.477  0.0997  0.3673 -0.1263
30227W        W45358  10.410   3.808   6.145 -0.0467  0.2371 -0.0566
30228W        W45359   4.557  14.960   0.257  0.1089 -0.2226 -0.1839
30229W        W45360  14.018  16.774  13.242  0.0144 -0.0653  0.1213
30230W        W45361  13.355   7.593   0.017 -0.1775  0.0184  0.0696
30231W        W45362   5.369   9.198   3.421 -0.3294  0.0273  0.0382
30232W        W45363  13.199   3.230   3.163 -0.0672  0.0470  0.0330
30233W        W45364   4.220  15.012  14.461  0.0581  0.0916 -0.0827
30234W        W45365   0.876   7.536  15.411  0.0348  0.1926  0.0118
30235W        W45366  15.898   3.137  12.796 -0.0112  0.1625  0.2046
30236W        W45367   7.517  13.062   3.433 -0.2937 -0.1248  0.2196
30237W        W45368   3.752   8.352  10.877 -0.0361 -0.2142 -0.1891
30238W        W45369   5.629   7.712   6.373 -0.0975  0.0507 -0.0076
30239W        W45370  13.921  14.316  14.772  0.0038 -0.0593 -0.0621
30240W        W45371  12.712   6.459  13.526 -0.0039 -0.0214 -0.0372
30241W        W45372   9.941  10.998  11.197 -0.0186 -0.2158  0.0132
30242W        W45373   2.160   6.024   1.990 -0.1492  0.2262  0.0957
30243W        W45374   2.959   9.711  15.492  0.2318 -0.1922 -0.0286
30244W        W45375  14.870  11.947   2.392 -0.0142  0.0044 -0.0543
30245W        W45376   7.087   5.879   4.651 -0.3968 -0.2102  0.1103
30246W        W45377  11.472   9.954  11.101 -0.3441 -0.0006 -0.2477
30247W        W45378   8.820   2.574  11.608 -0.0341  0.2402  0.0029
30248W        W45379   2.537   6.902   0.739  0.1390 -0.1981  0.0267
30249W        W45380  12.512  14.401   5.153  0.2242 -0.2366  0.3538
30250W        W45381   2.900   2.937  15.078  0.0271  0.1849 -0.0550
30251W        W45382  16.723  12.176   4.422 -0.0576  0.1350  0.1661
30252W        W45383  15.921   6.216   0.315  0.1296 -0.2366 -0.0856
30253W        W45384   0.728   1.847  13.093  0.1957 -0.0735 -0.0030
30254W        W45385  15.588   7.286   2.528 -0.3858  0.1297 -0.2245
30255W        W45386  17.066  13.958   2.859 -0.0746  0.1396 -0.0037
30256W        W45387  12.970   2.586   4.979  0.1786  0.1933  0.4063
30257W        W45388  11.735  11.045  12.827 -0.0249  0.1612  0.1059
30258W        W45389  15.889  14.779   4.547  0.2936  0.0058  0.0607
30259W        W45390  16.170  16.314   1.091  0.1759 -0.0662  0.1717
30260W        W45391   1.224   0.742  14.034  0.3427  0.0317 -0.2395
30261W        W45392   3.308   4.279   3.115 -0.2439  0.0762  0.1978
30262W        W45393   7.336  11.015  11.811 -0.2635  0.0095  0.4460
30263W        W45394   8.158   5.700   2.097 -0.1369 -0.2739  0.0524
30264W        W45395   5.191   3.421   4.340  0.2794  0.0302  0.1770
30265W        W45396   8.293  15.839   3.383 -0.1014  0.1142  0.0720
30266W        W45397   8.082   0.835  12.396  0.0436 -0.0584  0.1582
30267W        W45398  15.525   7.708  14.290  0.0316  0.1065 -0.0680
30268W        W45399   2.942  14.114  12.473 -0.5576 -0.0540  0.3566
30269W        W45400   6.106   9.768  12.060 -0.0298  0.0294 -0.0012
30270W        W45401  17.786   6.302  15.489 -0.0731  0.1542 -0.0271
30271W        W45402   6.001   6.481  13.017 -0.0662  0.0559 -0.0831
30272W        W45403  14.162   4.284  13.825 -0.0043 -0.4102 -0.0335
30273W        W45404   4.154  16.273  12.796 -0.0365 -0.3288 -0.2060
30274W        W45405   7.798   4.651   4.953 -0.0009 -0.3009  0.3077
30275W        W45406  11.955   8.778   4.705  0.1744 -0.2852  0.0752
30276W        W45407   9.492  10.603   5.390  0.0839  0.3983  0.0831
30277W        W45408   8.544   4.357   5.006  0.1073 -0.3630 -0.2938
30278W        W45409   3.146  15.055  16.076 -0.0523  0.0485  0.2394
30279W        W45410   0.461  17.157   4.357  0.4055  0.3586  0.2639
30280W        W45411   3.673  13.005   1.812  0.0647  0.1456 -0.0572
30281W        W45412  16.685  13.995  12.046 -0.0833 -0.0994 -0.1701
30282W        W45413  16.671  12.620  13.865  0.2515 -0.0201 -0.0133
30283W        W45414  12.845   4.486   4.948 -0.1196 -0.2369  0.4328
30284W        W45415  11.916  17.323  15.609  0.4227  0.1118 -0.0426
30285W        W45416  13.243  17.652   4.607 -0.0770  0.0873  0.0136
30286W        W45417  11.805  16.338  12.106 -0.0479  0.1783  0.1876
30287W        W45418  16.560  11.962   5.904 -0.0307  0.0787 -0.0693
30288W        W45419  14.420  11.047  10.904  0.0787 -0.1382 -0.1429
30289W        W45420  17.731   8.884  13.291  0.0380 -0.2866  0.1888
30290W        W45421   5.696  13.198  14.109 -0.0153 -0.0994  0.2772
30291W        W45422   1.814   6.178   3.437  0.2228 -0.1779  0.0673
30292W        W45423   7.453   9.442   0.845 -0.1852 -0.1111  0.1299
30293W        W45424   8.039  15.915  12.030 -0.0628 -0.0018  0.2035
30294W        W45425   2.795  13.812  14.859  0.0541  0.2481 -0.1133
30295W        W45426  16.039  10.830   2.686 -0.0594 -0.0009  0.1111
30296W        W45427  13.860   9.617  14.754  0.2253  0.2234 -0.0789
30297W        W45428   6.245   0.873  11.429  0.0235  0.1101 -0.0096
30298W        W45429  12.464  10.923  10.234  0.1265  0.0356 -0.0142
30299W        W45430   7.543  14.418  12.740 -0.2196 -0.4228 -0.2125
30300W        W45431   7.235   7.524  12.156 -0.1618  0.0084  0.1706
30301W        W45432  11.710  11.758   4.592 -0.2922 -0.2737 -0.1812
30302W        W45433  10.953   0.393   5.051  0.0580  0.0374 -0.0822
30303W        W45434  16.003  15.992  16.197 -0.2049  0.0143 -0.1467
30304W        W45435  14.903   8.755   5.832 -0.0425 -0.2151 -0.1063
30305W        W45436   8.002  15.530  14.625  0.0447  0.1242  0.1567
30306W        W45437   2.610  11.769   3.956  0.0605  0.0638  0.1515
30307W        W45438   8.539  11.980   4.933  0.0600 -0.2467  0.2665
30308W        W45439  15.207   0.678   0.006 -0.1325 -0.1024 -0.0661
30309W        W45440  11.565  11.121   2.781  0.1310 -0.1279  0.1864
30310W        W45441  10.122  15.386   1.751 -0.1440  0.0423 -0.0107
30311W        W45442   2.140   1.825   1.234 -0.0330  0.2801  0.0679
30312W        W45443   4.919   8.623   2.482 -0.0159  0.1688  0.0739
30313W        W45444   6.398  17.384  13.820  0.3186 -0.4194  0.2296
30314W        W45445  10.831  13.827  11.388 -0.3008 -0.2918  0.3358
30315W        W45446  14.000  15.566   5.176  0.1981  0.4360  0.3696
30316W        W45447   6.019   0.782  13.242 -0.1466 -0.0232  0.2561
30317W        W45448   3.462  12.730  16.410  0.1316  0.1339 -0.3712
30318W        W45449   1.358   6.641   3.110  0.0506 -0.1068  0.0369
30319W        W45450   1.711   8.050  12.494 -0.2477 -0.1431  0.1133
30320W        W45451  16.685   4.447  11.758 -0.3086  0.2595 -0.0975
30321W        W45452   0.083   6.952  14.137 -0.0247  0.1632  0.0969
30322W        W45453  15.075  10.165  15.247  0.0588  0.3883  0.1400
30323W        W45454  13.629   6.062  10.754  0.3790  0.0280 -0.1095
30324W        W45455  12.155   9.298   0.723  0.1381 -0.0187 -0.1283
30325W        W45456   9.638  15.580  11.701 -0.0187  0.0659 -0.0696
30326W        W45457  17.728   9.172   0.008 -0.1138  0.2054 -0.2707
30327W        W45458  17.098   5.695   1.133 -0.2980 -0.1494 -0.1643
30328W        W45459   6.360  16.120  14.259 -0.1209 -0.2080 -0.0435
30329W        W45460   7.998   9.806   3.109 -0.2879  0.0733  0.0340
30330W        W45461   6.584   2.291   2.008  0.0176 -0.1164 -0.0340
30331W        W45462  16.366   2.188   0.405  0.1489 -0.0623 -0.0079
30332W        W45463   9.294  14.132  14.124 -0.3001 -0.4637 -0.0803
30333W        W45464   6.991  17.418  14.178  0.0413  0.3113  0.3884
30334W        W45465   8.686  11.185   5.118  0.0951  0.0567 -0.0761
30335W        W45466   9.572  13.564   5.443 -0.0321  0.1092  0.1475
30336W        W45467  14.314   6.799   1.527  0.1150  0.0369 -0.1232
30337W        W45468  12.528   4.829  16.067 -0.0228 -0.2299 -0.0750
30338W        W45469   3.345   1.257  12.142 -0.0557  0.1439 -0.0617
30339W        W45470  10.032   4.036   1.899  0.0148 -0.1953 -0.2293
30340W        W45471   1.041   8.229   2.893 -0.0309 -0.1735 -0.3725
30341W        W45472   1.091   6.739   0.518 -0.0498 -0.1215  0.3297
30342W        W45473   1.599  12.142   5.654 -0.1589  0.0956  0.0609
30343W        W45474   6.822  10.505   2.394 -0.2421  0.1497  0.1374
30344W        W45475  13.271   4.182   0.100 -0.2119  0.1680 -0.0944
30345W        W45476  12.510   6.374  15.317 -0.2667 -0.0953 -0.0802
30346W        W45477   3.263  15.462  12.175 -0.0825  0.0123 -0.0742
30347W        W45478   7.274   6.898   0.274 -0.2303  0.0999  0.0896
30348W        W45479   0.383   5.926  11.651 -0.1006  0.0594 -0.0311
30349W        W45480  17.200   3.001   1.958 -0.0974 -0.2502 -0.1741
30350W        W45481  16.406  11.364   1.828  0.1375 -0.2346 -0.0642
30351W        W45482  13.504  14.113  15.435 -0.0588 -0.2030 -0.1061
30352W        W45483   4.305  11.144   0.266  0.4367  0.0992  0.0726
30353W        W45484  16.995  14.261  13.451 -0.2742 -0.0186 -0.2954
30354W        W45485   7.879   0.756  14.067  0.2277 -0.2429  0.0491
30355W        W45486   1.832  17.835  16.700 -0.3607  0.0620  0.0263
30356W        W45487   2.658  15.070   4.581  0.3247  0.0965  0.2130
30357W        W45488  17.624   4.541  10.824  0.0678 -0.1725  0.1364
30358W        W45489  10.170   5.490  11.235  0.0421 -0.2290  0.0141
30359W        W45490   3.293  13.539  14.901 -0.1094 -0.0583 -0.0520
30360W        W45491  16.820  12.781  11.715 -0.1479 -0.0517  0.0183
30361W        W45492   1.874   9.251  13.827 -0.2479  0.3942 -0.3166
30362W        W45493   0.789   5.411   4.167  0.0158 -0.1282 -0.0567
30363W        W45494  11.770   3.302  14.308 -0.0464  0.0060 -0.1140
30364W        W45495   5.986   4.558  16.204  0.0843  0.0235 -0.0418
30365W        W45496  13.887  14.402   1.616  0.2110  0.5582 -0.2457
30366W        W45497  15.243   0.881  14.721  0.0162 -0.1971  0.0996
30367W        W45498  12.744  16.396   4.891 -0.0556 -0.0397  0.0834
30368W        W45499  15.285  15.528   6.256  0.3064  0.1578 -0.2004
30369W        W45500   0.275  13.066   2.526  0.0390  0.0379  0.0076
30370W        W45501   7.318  16.114  15.835 -0.2455  0.0251 -0.0308
30371W        W45502  10.223   6.675  14.832 -0.1116  0.1618 -0.4537
30372W        W45503   9.924   8.394   2.198  0.2283 -0.1499  0.0217
30373W        W45504  17.337   8.349  11.942 -0.0022  0.0635 -0.1209
30374W        W45505  15.146  15.987  12.527 -0.2331 -0.3785 -0.0825
30375W        W45506  13.935   0.539  13.729 -0.0938 -0.0685  0.0775
30376W        W45507   8.601   1.531  13.370 -0.3062  0.0110  0.0143
30377W        W45508  13.667  10.171   1.469 -0.1797  0.1195 -0.1082
30378W        W45509   5.418  14.855  14.139 -0.0063 -0.2010 -0.0756
30379W        W45510   2.897  15.770  16.489 -0.1527  0.0632  0.1283
30380W        W45511   6.089  13.203   5.307  0.1922  0.2846  0.1705
30381W        W45512   7.198  17.047  15.008  0.0997  0.0241  0.0191
30382W        W45513   7.105  12.261   5.405  0.1986 -0.2741  0.1782
30383W        W45514   2.901   7.553  12.350  0.2025 -0.0782 -0.2059
30384W        W45515   9.777  11.805   0.173  0.0847  0.1295 -0.1893
30385W        W45516  15.762   4.317   2.254 -0.0403  0.0786  0.0405
30386W        W45517  13.493  16.457   3.554  0.1128 -0.0397 -0.2799
30387W        W45518   8.880   7.166   4.475  0.0394 -0.1121  0.0923
30388W        W45519  16.529   6.302   0.170 -0.1348  0.0761 -0.0668
30389W        W45520  17.133   5.430   0.719 -0.2619 -0.1654  0.0977
30390W        W45521  14.676  12.688   3.895  0.1728  0.4246 -0.5180
30391W        W45522  11.068   9.369   5.155  0.0816  0.1001  0.1054
30392W        W45523  10.817  13.628   1.413  0.2062  0.0359 -0.0686
30393W        W45524   1.195   1.858   1.068 -0.1318 -0.1162 -0.1772
30394W        W45525  10.370  16.880  12.309 -0.4616 -0.1120  0.0897
30395W        W45526  16.974  15.419   4.539 -0.0963 -0.0052  0.0349
30396W        W45527  12.435   8.051  10.296 -0.0443 -0.2357  0.0798
30397W        W45528  13.065   9.002  16.167  0.3830  0.1529 -0.2291
30398W        W45529   0.546  15.439   3.990 -0.2990 -0.1193 -0.3672
30399W        W45530   3.719  10.227   2.706  0.0236 -0.0284  0.1155
30400W        W45531  15.426  13.200   5.056 -0.2082  0.0010 -0.3011
30401W        W45532  15.780   7.518  15.253 -0.0943 -0.1632 -0.0787
30402W        W45533  11.849   4.294   3.799  0.5337 -0.3385 -0.2548
30403W        W45534   4.619  17.417   5.799  0.1305  0.1839 -0.1068
30404W        W45535  11.566   6.090  12.894  0.1177 -0.0997  0.0287
30405W        W45536   9.054   9.515  14.146 -0.2982 -0.0926  0.0774
30406W        W45537   9.407   5.311   3.077 -0.0246  0.0603  0.1291
30407W        W45538   4.557  17.151   6.209  0.3498  0.1866  0.0042
30408W        W45539  13.333  15.495   3.467 -0.0871  0.0552  0.0758
30409W        W45540   0.303   6.707   4.043  0.3600  0.1136 -0.2772
30410W        W45541   8.764   0.068   0.226 -0.1186 -0.0626 -0.1801
30411W        W45542   8.894  17.123  12.942  0.1552  0.0372  0.0074
30412W        W45543  15.722  14.216   4.446 -0.3610  0.1970  0.1391
30413W        W45544   5.066   5.719  13.553 -0.1782 -0.3297  0.2617
30414W        W45545  13.913   5.089  12.860 -0.2068 -0.1393 -0.0630
30415W        W45546  10.724   6.272   0.521  0.0727 -0.1259 -0.0112
30416W        W45547   4.727  11.156  16.097  0.0111 -0.0253  0.4261
30417W        W45548   5.806  14.056  13.720 -0.1522  0.3001  0.2119
30418W        W45549   8.914   4.891  11.961 -0.3794 -0.0923 -0.0955
30419W        W45550  15.111  14.482   2.446  0.2638  0.1292 -0.2083
30420W        W45551   1.299  15.352  15.204  0.1952  0.0308  0.2099
30421W        W45552   4.178  12.913   3.535  0.0274 -0.1452  0.2021
30422W        W45553  14.533   7.270  13.521  0.1618 -0.2753  0.0800
30423W        W45554   5.414   5.827  10.936 -0.1945  0.1959  0.1366
30424W        W45555   2.072  13.418   4.827 -0.1728 -0.2750  0.0284
30425W        W45556   9.422   7.506   3.193  0.2073 -0.0828  0.3488
30426W        W45557  14.180   7.657   2.754 -0.2539  0.1256  0.0235
30427W        W45558  11.021  15.982  14.733  0.3191  0.3503  0.0977
30428W        W45559   5.505   8.816   1.380  0.0376 -0.1305  0.2580
30429W        W45560  15.390   6.216  12.063 -0.1817 -0.0561 -0.0291
30430W        W45561   8.797   7.147   2.887  0.0462 -0.1786 -0.1331
30431W        W45562   9.254  17.429   2.831  0.1505 -0.1373 -0.3174
30432W        W45563  15.469   7.312   0.747 -0.1279 -0.0745  0.1518
30433W        W45564  14.245  17.854   2.111 -0.2039 -0.0517 -0.0183
30434W        W45565   7.911   0.790   3.184  0.2682 -0.0044 -0.1943
30435W        W45566   6.918  16.235  14.822  0.0356 -0.1205 -0.2897
30436W        W45567  10.327  14.493  14.295  0.3046 -0.2535 -0.0801
30437W        W45568  14.764   3.907  15.157 -0.2457  0.2661 -0.3101
30438W        W45569   1.465  10.059   5.272 -0.0451  0.2248 -0.0191
30439W        W45570   0.319   0.354  16.670 -0.1230 -0.0771  0.0939
30440W        W45571   6.563   6.019  13.318 -0.0050 -0.0740  0.1666
30441W        W45572   1.332  14.910  14.467 -0.0604 -0.0749 -0.0870
30442W        W45573  13.996   8.302   3.928  0.0449  0.1575 -0.3138
30443W        W45574  15.108   5.977   0.175 -0.3949 -0.0956 -0.3134
30444W        W45575   6.007   6.156  13.450  0.4342 -0.1580 -0.0790
30445W        W45576   1.722   8.672   4.737  0.0439 -0.0770  0.0338
30446W        W45577  17.505  10.445   4.558 -0.0640 -0.0476  0.2214
30447W        W45578   6.081   6.113   0.747 -0.0443 -0.2991 -0.3156
30448W        W45579   4.870   6.876  12.648  0.2170 -0.2848 -0.3770
30449W        W45580  16.737   0.842   4.508  0.1930  0.2658 -0.1353
30450W        W45581   4.383   6.859   2.488 -0.2898  0.1750  0.0489
30451W        W45582  16.777  16.550  14.582  0.0556  0.5237  0.1016
30452W        W45583   7.874   0.705  15.995 -0.2338  0.3767 -0.1549
30453W        W45584   7.503  15.715   1.603 -0.0128 -0.1674  0.0570
30454W        W45585   3.218   2.834  12.580 -0.0575  0.5004 -0.3262
30455W        W45586   9.198  13.507   4.238 -0.0856  0.1426 -0.1627
30456W        W45587  11.977   5.817  10.257  0.2100 -0.1519 -0.5476
30457W        W45588   9.138   0.427   2.352 -0.0802  0.1601 -0.4745
30458W        W45589   3.580  15.019   1.322  0.0768 -0.0043 -0.1238
30459W        W45590  13.600  12.886   5.099  0.0288 -0.1385 -0.0073
30460W        W45591  17.682   0.789   2.077 -0.1096 -0.0592  0.1581
30461W        W45592  12.301   6.139   0.943 -0.0724  0.1373  0.1714
30462W        W45593   3.383   8.678  12.173 -0.2850 -0.3329  0.2415
30463W        W45594  17.303  11.401   4.806 -0.0769 -0.0413  0.0668
30464W        W45595   9.413   1.132  12.024 -0.1965  0.1680  0.1150
30465W        W45596  17.517   5.858  12.536  0.2008  0.1111 -0.4589
30466W        W45597  13.404  13.644   0.419 -0.0178  0.1456 -0.0255
30467W        W45598   3.338   6.020   2.545  0.1146 -0.0013 -0.2318
30468W        W45599   4.704  11.249   0.615  0.2545 -0.2580  0.1035
30469W        W45600   3.774   4.624  16.673 -0.2291  0.0725  0.1033
30470W        W45601   0.473  17.080  15.613  0.4086 -0.0467  0.1705
30471W        W45602   2.624   7.976   6.016  0.1180  0.0227 -0.0402
30472W        W45603   0.721  12.304  13.119  0.0686 -0.1868  0.0487
30473W        W45604  16.332  13.035   1.245 -0.0575 -0.0836 -0.2019
30474W        W45605   4.494   8.594   0.949  0.0251 -0.0248  0.0954
30475W        W45606  14.128   7.944  15.747  0.3932 -0.0206  0.0406
30476W        W45607   8.853  11.313   5.581  0.1583  0.3440 -0.0671
30477W        W45608  14.440   5.269   2.620  0.2991 -0.0823  0.0906
30478W        W45609   5.496   7.100  16.227  0.0894 -0.1214  0.1089
30479W        W45610  13.302  11.288  16.287  0.1449 -0.0263  0.1152
30480W        W45611   2.619   2.037  13.122  0.0980 -0.0375  0.2570
30481W        W45612  11.037  11.501  16.631  0.0689 -0.0230 -0.3016
30482W        W45613   2.597   8.770   3.619  0.3134  0.0891  0.3360
30483W        W45614  14.674   7.716  15.582 -0.2239 -0.0896 -0.0495
30484W        W45615   5.097   7.659   0.438  0.0104  0.0920 -0.1996
30485W        W45616  15.777  10.805   1.839  0.2911  0.5627 -0.0075
30486W        W45617  14.040  14.523  11.204  0.1170 -0.3182 -0.0750
30487W        W45618   2.694  17.478  12.623 -0.0657  0.0231 -0.0108
30488W        W45619   4.288   7.507   1.714 -0.0826 -0.2434  0.0536
30489W        W45620  11.335   6.622  16.353 -0.4117 -0.1302  0.2849
30490W        W45621  12.321   4.714  16.563  0.4342 -0.2272  0.0345
30491W        W45622  12.410  11.959   1.492  0.4449  0.0431  0.1686
30492W        W45623  12.415   3.245  13.623 -0.4337  0.0192  0.0502
30493W        W45624  16.552   1.392   0.878  0.4785  0.0076  0.3878
30494W        W45625  12.248   4.779  15.133  0.1729 -0.0853  0.0708
30495W        W45626  13.887  16.184   0.963 -0.0273  0.0476  0.0453
30496W        W45627   8.179   0.838  11.616  0.0417 -0.1119  0.6116
30497W        W45628   1.919  14.065  12.765  0.1511  0.0439 -0.2141
30498W        W45629   2.627   0.275   5.666  0.1200  0.2349 -0.3776
30499W        W45630   0.340   0.059   2.160 -0.0776 -0.2756 -0.1123
30500W        W45631  11.496   9.315  15.026 -0.0842  0.2089 -0.3920
30501W        W45632   3.323  17.714  13.006 -0.2559  0.2645  0.1395
30502W        W45633  14.456  17.487   6.297 -0.0735  0.0939  0.0457
30503W        W45634  14.439   2.081  10.745  0.1446  0.1183 -0.1369
30504W        W45635   9.098  17.375  16.615 -0.0038 -0.1329 -0.3881
30505W        W45636  12.171   5.537   5.321  0.0701 -0.0545 -0.1389
30506W        W45637   2.813  11.663   2.664 -0.1038  0.1973  0.2366
30507W        W45638   9.746  17.505   2.677  0.1326  0.1924 -0.1443
30508W        W45639   8.852  16.279  14.122 -0.1054  0.0868 -0.1287
30509W        W45640   7.912   6.819   1.250 -0.2672 -0.0879  0.0807
30510W        W45641   8.539   6.387   0.711 -0.0545  0.1309  0.2991
30511W        W45642   4.255  16.682   5.285  0.0225  0.3220 -0.0393
30512W        W45643   2.551   5.149   1.759  0.0260  0.2087 -0.2995
30513W        W45644   6.334   2.201  16.113 -0.0693  0.2502 -0.1424
30514W        W45645   9.186  16.592   5.832  0.1734 -0.0229  0.3130
30515W        W45646  10.741  11.266   5.725  0.0491  0.0043  0.0127
30516W        W45647  11.130   5.782   3.120  0.0833 -0.0823  0.4738
30517W        W45648   4.284  17.713  12.195 -0.4760 -0.1842  0.0906
30518W        W45649  12.570  13.857  11.259 -0.0732  0.0090 -0.2748
30519W        W45650  10.236   2.023  13.621  0.0605  0.0527  0.0317
30520W        W45651  12.764  14.157   4.743 -0.1354 -0.0988  0.0141
30521W        W45652   1.548  13.410   2.167  0.2809  0.0638  0.1410
30522W        W45653   3.971  11.538  13.592 -0.2918 -0.0982 -0.1864
30523W        W45654   8.310   0.763   0.472 -0.0797 -0.1513 -0.1780
30524W        W45655   1.598   7.606  12.273  0.0700 -0.0076 -0.1965
30525W        W45656  12.585   3.565  11.224  0.1058 -0.2179  0.1137
30526W        W45657  13.699   0.434  13.203  0.1293 -0.2545  0.1221
30527W        W45658   2.395  14.463   5.698  0.2256  0.2002 -0.3866
30528W        W45659  15.104  11.353  15.687 -0.0451 -0.2512 -0.0689
30529W        W45660  13.286  14.660   5.726 -0.0418  0.0096 -0.1091
30530W        W45661   0.328   5.888  13.437  0.0278  0.0434  0.2044
30531W        W45662   0.688  10.222   4.402  0.2155 -0.1272  0.2174
30532W        W45663  12.467   4.350   3.171 -0.1533 -0.0527  0.0282
30533W        W45664  11.925  15.106   5.605 -0.0226 -0.1242 -0.1192
30534W        W45665   1.445  14.358  14.192  0.2429 -0.0508 -0.1375
30535W        W45666  12.356   9.049   3.155  0.0187 -0.1598  0.1293
30536W        W45667  10.338  14.204   3.523  0.2159  0.0700  0.1079
30537W        W45668  15.425   6.734  14.783  0.0098 -0.2601  0.0184
30538W        W45669  13.431  14.917  16.477 -0.2363  0.0003 -0.1036
30539W        W45670  12.941  11.660   2.226  0.2747  0.0800 -0.1177
30540W        W45671   1.717   0.673   3.185  0.2679 -0.1922  0.0923
30541W        W45672   2.314   7.173  15.693 -0.0842  0.2891  0.0882
30542W        W45673   4.280  13.932  15.908  0.3534 -0.3696 -0.0081
30543W        W45674   4.616  10.386   0.964 -0.3469 -0.0131 -0.0556
30544W        W45675   9.536  14.979  11.763  0.1792 -0.4126 -0.3271
30545W        W45676   2.425   2.777  12.964  0.1847 -0.2518  0.4704
30546W        W45677  11.063   9.753   5.497  0.0201 -0.3962 -0.2110
30547W        W45678  14.532   6.353  15.421 -0.1013 -0.0377  0.2535
30548W        W45679   2.369  13.640  15.282  0.0520 -0.0226 -0.0745
30549W        W45680   4.684   4.426   4.107 -0.1010 -0.0521  0.1186
30550W        W45681   1.864   3.171   2.886 -0.0305  0.0768 -0.2809
30551W        W45682   5.232  16.399   1.268 -0.2101  0.2765 -0.2261
30552W        W45683   7.110   4.264   0.207  0.2226  0.0570  0.2778
30553W        W45684  10.289   6.182  13.162 -0.0809  0.3170  0.3641
30554W        W45685   4.373   2.312  15.124  0.0654  0.1744  0.4132
30555W        W45686   8.603   0.247   1.071 -0.2451  0.1386 -0.0372
30556W        W45687  11.118  14.230  15.534  0.0246  0.0995 -0.2585
30557W        W45688  14.706  10.539  15.555  0.3062 -0.2584 -0.2536
30558W        W45689  11.500  14.073   1.710  0.1993  0.0643  0.0763
30559W        W45690   6.582  14.927   4.015  0.3673 -0.5126  0.0925
30560W        W45691   7.174   2.020  12.014  0.2210 -0.2226  0.1413
30561W        W45692   5.764   8.885  12.742  0.2972  0.0943  0.1661
30562W        W45693   1.307   7.244   5.871  0.1457  0.1308 -0.0613
30563W        W45694   3.834   8.216  13.854 -0.0712 -0.0529  0.1730
30564W        W45695   3.933  15.369  11.657  0.5005 -0.0448 -0.2254
30565W        W45696  17.211  16.263  15.053  0.1056 -0.0903 -0.1587
30566W        W45697   5.024   9.856   4.332  0.0375 -0.1463 -0.0340
30567W        W45698   6.293   5.829   2.388  0.1049  0.2175 -0.0037
30568W        W45699   9.448   3.732  15.488  0.4084  0.1622 -0.0590
30569W        W45700  17.759   0.593  13.041 -0.2114 -0.2281 -0.0521
30570W        W45701   1.108  12.576  12.177 -0.0155 -0.0080  0.1018
30571W        W45702  17.475   2.379  12.131  0.2781 -0.1394 -0.1087
30572W        W45703  13.375  17.245  11.413 -0.0882  0.1760  0.0429
30573W        W45704  12.003  14.197   5.390  0.1240  0.0060 -0.2338
30574W        W45705   0.199  10.880   0.662  0.1214  0.0804  0.0600
30575W        W45706  12.529  14.099   5.585 -0.1129  0.0020 -0.0428
30576W        W45707   5.231   3.362  14.117 -0.0289  0.0128  0.2253
30577W        W45708   3.273   2.057  15.362 -0.1207 -0.0354 -0.2582
30578W        W45709   6.442   9.698   0.077 -0.0774 -0.0658  0.0300
30579W        W45710   6.416  10.921   0.236  0.0781  0.0053  0.4805
30580W        W45711  16.581   3.795  16.513 -0.0953 -0.0975  0.1836
30581W        W45712  13.203   6.807  14.415 -0.0326 -0.0370 -0.4879
30582W        W45713  17.287   0.476  13.886 -0.2905  0.0159 -0.2185
30583W        W45714   0.452  13.815   0.317  0.0239 -0.1785  0.1092
30584W        W45715   3.738   1.819  12.917 -0.2939  0.2142 -0.0730
30585W        W45716  14.430   1.636   5.579 -0.1862 -0.1429  0.0118
30586W        W45717  10.425  10.005   0.175  0.1028 -0.1127 -0.0394
30587W        W45718   3.308   9.411  15.671 -0.0140 -0.1481 -0.2207
30588W        W45719   2.030   9.318  15.340  0.2441  0.1312 -0.1236
30589W        W45720   8.889   3.037  13.954 -0.0905  0.2625  0.2630
30590W        W45721   6.139  17.355   5.592  0.0338  0.1571 -0.1237
30591W        W45722   7.968  10.964   4.452  0.0575  0.1356 -0.2774
30592W        W45723   5.909  15.057   1.734  0.1802  0.1207 -0.4242
30593W        W45724  15.991  10.108   3.082  0.0515  0.2345 -0.1158
30594W        W45725   6.463  15.949   4.857 -0.1296 -0.2150  0.1799
30595W        W45726  11.686  10.435   5.957 -0.6830  0.0734  0.0369
30596W        W45727  10.027   1.337  16.409 -0.0458  0.0841  0.0069
30597W        W45728   1.544  10.147  11.273 -0.1521  0.3862 -0.0240
30598W        W45729  12.109   4.059  11.232  0.1195  0.2501  0.0537
30599W        W45730  17.745  17.368  14.571  0.0479  0.1374 -0.1111
30600W        W45731   6.406   1.551   0.519  0.2572  0.1725 -0.1141
30601W        W45732   4.574  10.047   5.607  0.1328  0.0568 -0.0196
30602W        W45733  16.158  11.399  11.050  0.0744  0.0575 -0.1639
30603W        W45734   0.029   2.750  15.259 -0.0025 -0.1562  0.1105
30604W        W45735   5.672   6.436   2.931  0.1277 -0.2392  0.2035
30605W        W45736   7.730   6.315  12.671  0.3052 -0.1705 -0.1972
30606W        W45737  11.144   7.755  12.076 -0.3041 -0.0623 -0.1772
30607W        W45738   1.049   1.246   0.565 -0.0426  0.1298  0.0337
30608W        W45739   0.728   9.731   3.187 -0.0918  0.3440  0.1191
30609W        W45740  16.178  11.433  13.729  0.0247  0.1157 -0.0089
30610W        W45741  15.033  10.085  16.487  0.0573  0.5138 -0.0593
30611W        W45742   5.706  16.285  13.266  0.0953 -0.0507  0.0235
30612W        W45743   0.770  15.545  13.996 -0.2773 -0.2477  0.1975
30613W        W45744   6.037   9.253  11.885 -0.0620 -0.1131  0.2228
30614W        W45745   0.984   3.488  12.095  0.2020 -0.2906  0.1503
30615W        W45746   1.788  11.233  13.088  0.0522 -0.1328  0.1055
30616W        W45747   4.931  15.606   5.866 -0.0241  0.3515 -0.1811
30617W        W45748   5.154   7.027   1.799  0.2433  0.0132  0.2556
30618W        W45749   9.451   7.335  12.788 -0.0496 -0.1646 -0.0316
30619W        W45750   7.051   2.445  12.855  0.0902  0.3261  0.3380
30620W        W45751   9.451   7.077  14.173  0.2142  0.1278  0.0676
30621W        W45752  14.249   1.485   0.254 -0.0075  0.0890 -0.1697
30622W        W45753   5.182   3.114   0.391 -0.2991 -0.1413  0.1951
30623W        W45754   9.530   2.713  11.544 -0.1659 -0.0430  0.0672
30624W        W45755  13.155   1.544  15.800 -0.1602  0.2076 -0.0052
30625W        W45756  17.668  17.288  14.043  0.0219  0.0626 -0.0914
30626W        W45757  10.341   1.094  15.368 -0.1196 -0.0344  0.0282
30627W        W45758  10.313  15.324  13.120  0.0734  0.0010 -0.0399
30628W        W45759  11.593   7.653   5.699 -0.0449  0.3148 -0.2227
30629W        W45760   8.120   2.682  15.443  0.1421  0.2086  0.0230
30630W        W45761  15.148   1.450   4.152 -0.2792  0.2739  0.0754
30631W        W45762   3.407   8.718  14.005  0.1043 -0.2353  0.1430
30632W        W45763  13.918   5.716  14.754 -0.0145  0.0484  0.1782
30633W        W45764  12.922  13.747   3.501 -0.1712  0.2366 -0.1152
30634W        W45765   4.158  11.955   3.770  0.0705  0.0190  0.2000
30635W        W45766  14.223   3.654  15.210 -0.0133 -0.2745  0.1987
30636W        W45767   6.256  12.046   3.049  0.0064 -0.3382  0.0689
30637W        W45768  11.621   1.871  15.099  0.1483  0.1769 -0.0486
30638W        W45769  12.978  15.685   4.704  0.0793  0.2806 -0.1840
30639W        W45770   1.809   0.493   1.372  0.0585  0.0302  0.1244
30640W        W45771  13.109  10.447   4.391 -0.1832  0.1295  0.0681
30641W        W45772   2.848   5.723   3.893 -0.1813  0.1722  0.1169
30642W        W45773   1.930  15.580  15.669 -0.0608 -0.3888 -0.1544
30643W        W45774   4.130  11.617   4.653 -0.0745  0.0830  0.1343
30644W        W45775   8.395  13.256   3.247  0.0620  0.3166 -0.1364
30645W        W45776  11.815   5.634  13.018  0.0314  0.0392  0.2110
30646W        W45777  12.710   1.590   5.025 -0.2782 -0.1858  0.0270
30647W        W45778   5.234   2.009  14.181 -0.1910  0.1125  0.1058
30648W        W45779   2.667  16.154   2.407  0.1825 -0.1841 -0.0887
30649W        W45780   9.683  10.596  13.436 -0.0178 -0.0177  0.0075
30650W        W45781  16.185   8.995   5.801  0.1262  0.0883 -0.3723
30651W        W45782  17.494   3.583   0.562  0.4363 -0.0464  0.0157
30652W        W45783  15.323  10.292   3.920  0.2660 -0.1422  0.0258
30653W        W45784   2.135   9.221   4.373  0.0392  0.1595  0.0739
30654W        W45785   3.586   7.643   4.475  0.0997  0.3381  0.0505
30655W        W45786   7.379  14.944  14.988  0.1354  0.0688 -0.2204
30656W        W45787   0.927   4.658   5.428 -0.1194 -0.0303  0.0700
30657W        W45788  17.615   9.259   2.517  0.0930 -0.1227  0.1729
30658W        W45789   6.950  11.811   4.719  0.1312 -0.0712  0.2466
30659W        W45790   8.747  10.651   5.024 -0.0946 -0.0123  0.3718
30660W        W45791  14.753  12.699   3.002 -0.0769  0.0541 -0.0095
30661W        W45792  11.271  13.556   5.204 -0.1476 -0.0590 -0.1455
30662W        W45793   9.577   3.370  13.816  0.2598 -0.0507  0.0093
30663W        W45794   8.530  11.211  12.049  0.0350  0.0272 -0.1615
30664W        W45795   5.966   2.834   3.746  0.2154 -0.2294  0.0016
30665W        W45796   8.044  11.281   5.979  0.1884 -0.0564 -0.0143
30666W        W45797   9.828   2.380  15.677 -0.1834  0.1065 -0.0259
30667W        W45798   8.025  17.304   1.167 -0.2141  0.0342  0.0671
30668W        W45799  10.543  13.695  14.368  0.0839 -0.0803  0.1140
30669W        W45800   0.609   9.883  16.559 -0.0469  0.1664  0.1010
30670W        W45801   7.790   4.820   2.360 -0.0204  0.0782 -0.1198
30671W        W45802   3.249   7.728   0.728 -0.1760  0.2640 -0.0429
30672W        W45803   6.456  16.840   4.503  0.1122 -0.1021  0.1826
30673W        W45804  15.590  11.153   4.288  0.1871 -0.3246 -0.1867
30674W        W45805   1.480   2.265   2.366 -0.0958 -0.1521 -0.0923
30675W        W45806   3.238  17.316   1.060 -0.2111  0.0806 -0.0222
30676W        W45807   0.355   7.003   5.991 -0.0276  0.0144  0.0190
30677W        W45808   1.672  16.550  11.290 -0.1875  0.2103 -0.0624
30678W        W45809   0.655  11.657  12.440  0.2836  0.1062 -0.1197
30679W        W45810   9.741   6.408  14.018 -0.0433 -0.2827 -0.2292
30680W        W45811   6.301   0.724   4.718  0.0273  0.0493 -0.0420
30681W        W45812   0.123   8.475   2.322  0.0959  0.0588 -0.1125
30682W        W45813  11.921   6.602  16.122  0.0081  0.0166  0.0327
30683W        W45814  17.598   7.564  14.666 -0.1838 -0.2689 -0.1667
30684W        W45815  14.711   5.174   4.229 -0.1226 -0.0744  0.0234
30685W        W45816  17.771  16.231  11.763 -0.0399 -0.4128 -0.2373
30686W        W45817  16.572   5.666  12.453 -0.0288  0.0979  0.1195
30687W        W45818   8.906   8.810   0.104 -0.0523  0.1038 -0.0524
30688W        W45819   1.813   6.340  12.774 -0.0265 -0.0636  0.2988
30689W        W45820   5.173   4.018  14.221 -0.1052  0.1813  0.0710
30690W        W45821   1.102   3.121  12.424  0.0987 -0.1731  0.3320
30691W        W45822  13.954   4.754  13.807 -0.1222  0.0660 -0.1525
30692W        W45823   3.194   7.152  15.457 -0.3943 -0.0208 -0.1632
30693W        W45824   9.512   2.478   1.309  0.0589  0.0770 -0.0691
30694W        W45825  14.052   4.045  14.371  0.1072  0.0018  0.0713
30695W        W45826  11.098  17.709  15.451 -0.2386  0.1574  0.1524
30696W        W45827  14.669  10.773  15.105 -0.1109 -0.0486 -0.0698
30697W        W45828   5.256   5.120   2.003 -0.0572  0.2386  0.0310
30698W        W45829   2.761   1.142   6.173 -0.1057 -0.0981 -0.1317
30699W        W45830  12.044   2.425  16.158 -0.1140  0.0190 -0.2002
30700W        W45831   5.859   3.804   4.841  0.1522 -0.0335 -0.0618
30701W        W45832  17.227  14.000  12.177 -0.2879  0.2361 -0.2790
30702W        W45833   4.073  16.503   2.042  0.2022 -0.0316  0.1548
30703W        W45834  16.932   8.929  13.971 -0.1317  0.1286  0.0615
30704W        W45835   1.499   9.931   2.803  0.2901 -0.0246  0.0680
30705W        W45836  11.528   8.444   0.571  0.2469  0.2400  0.0830
30706W        W45837   5.543   4.834   1.037  0.1120 -0.0685  0.1482
30707W        W45838   5.947   6.804   4.550  0.0973  0.0557  0.0353
30708W        W45839  15.679  10.821   1.030  0.0618 -0.0458  0.3719
30709W        W45840   9.404   1.869  11.687 -0.0571 -0.3059  0.1249
30710W        W45841  14.413  17.189  13.916 -0.0301 -0.1715  0.2715
30711W        W45842   1.616   5.275   4.291  0.4719 -0.0630 -0.0962
30712W        W45843  14.179   8.282   4.886 -0.0039  0.2011 -0.0441
30713W        W45844   9.863   3.112   0.406  0.2609  0.2034 -0.0196
30714W        W45845  16.070  14.434   4.084 -0.0525  0.3703 -0.0238
30715W        W45846   0.507   4.411   5.509  0.1196 -0.0003 -0.1954
30716W        W45847   4.903  13.109  16.388 -0.3603  0.4047 -0.0984
30717W        W45848   4.212  11.174   4.367 -0.1422 -0.0682  0.0317
30718W        W45849  16.487   9.152  15.277 -0.1001  0.0550 -0.1122
30719W        W45850  11.560  12.107   4.222 -0.0245  0.0812 -0.0486
30720W        W45851   8.640  14.998   2.980 -0.1515 -0.1704 -0.1010
30721W        W45852   7.763  10.095   4.983 -0.2141 -0.0482  0.0074
30722W        W45853   5.800   4.592  12.534  0.0098  0.1420 -0.1114
30723W        W45854   4.166   4.203   0.024 -0.0169 -0.3867  0.4021
30724W        W45855   1.590   5.277  14.213  0.2372 -0.0858  0.0803
30725W        W45856   3.944  15.401   6.459  0.0047 -0.1520 -0.4555
30726W        W45857   4.700  10.718  15.811 -0.1637 -0.1218  0.2105
30727W        W45858   8.424   4.090  10.979  0.2215 -0.2316 -0.0549
30728W        W45859   0.163  13.958   0.732  0.2178 -0.0107 -0.3052
30729W        W45860   8.810  15.111   0.457  0.0007 -0.2251  0.1087
30730W        W45861   1.278   3.328   4.604 -0.0900  0.0426 -0.1926
30731W        W45862   8.392  12.074  14.671 -0.0282  0.1740  0.0354
30732W        W45863   0.411  13.574   3.882 -0.1808 -0.1698 -0.0048
30733W        W45864   6.642  12.817  14.466 -0.0407 -0.1408 -0.0473
30734W        W45865   7.552  17.041   1.510  0.1734  0.1916  0.0503
30735W        W45866   3.325   6.421  15.791  0.0138  0.1137 -0.2443
30736W        W45867   7.011   5.650  16.760 -0.2102  0.2108 -0.2875
30737W        W45868   2.146   5.416   2.315  0.2394 -0.2735  0.1008
30738W        W45869   5.147  17.548   2.578 -0.3206  0.1121 -0.1831
30739W        W45870   4.992  14.683  13.223  0.3930 -0.0876  0.2183
30740W        W45871  13.947  10.752  15.859 -0.0860  0.1633 -0.0574
30741W        W45872   7.948   1.718  14.031  0.0526 -0.0945  0.1407
30742W        W45873  11.447  15.522  11.181  0.2191 -0.0843  0.0614
30743W        W45874   9.603  15.306   3.306  0.0377 -0.0723 -0.2719
30744W        W45875  15.854   2.164  14.970  0.1142  0.2300  0.1125
30745W        W45876   4.377   6.498   0.066  0.0616  0.0188 -0.0022
30746W        W45877   1.603   3.110   6.049  0.0826 -0.0206 -0.0834
30747W        W45878   4.203   4.221  15.417  0.1120 -0.2204 -0.2833
30748W        W45879   9.144  15.755   5.161  0.0148  0.1497 -0.2148
30749W        W45880  15.811  16.786   5.352  0.2620 -0.2476 -0.1310
30750W        W45881   1.573   6.408  14.858 -0.3468 -0.2584  0.0697
30751W        W45882  14.179   4.158   0.880 -0.0036 -0.3295 -0.1757
30752W        W45883   6.150  15.493  16.426 -0.1939 -0.0564  0.1980
30753W        W45884  15.975   7.055   2.248  0.2432  0.2975  0.1471
30754W        W45885  15.243   5.257   3.175 -0.2485 -0.0664 -0.2148
30755W        W45886   3.320   5.531   3.331  0.0926  0.0540  0.4401
30756W        W45887  10.502   4.690   1.220  0.1425 -0.2386  0.1523
30757W        W45888   4.252   0.042   1.533 -0.3004  0.2708  0.0788
30758W        W45889   7.908  17.481   2.255  0.1193 -0.1851  0.0284
30759W        W45890  17.097   8.882  15.747  0.0294  0.1173 -0.0826
30760W        W45891  14.365   5.797  14.580 -0.2530  0.2379 -0.0562
30761W        W45892   2.941  11.718  11.969 -0.0301  0.1479 -0.1436
30762W        W45893  12.123   3.009  11.388  0.0526 -0.0468  0.0581
30763W        W45894   9.895   2.698  11.095  0.1857 -0.2388  0.3778
30764W        W45895   7.628   3.366   3.536 -0.1511 -0.2984 -0.0863
30765W        W45896   9.874   2.661  13.188 -0.2158 -0.3030 -0.0703
30766W        W45897   5.681  10.785  10.394  0.3445  0.2293  0.0515
30767W        W45898   5.411  17.469  12.782  0.1067 -0.0191  0.1479
30768W        W45899   9.657   8.523   1.389 -0.1204 -0.1073  0.3554
30769W        W45900   6.092   1.096   0.034 -0.0716 -0.1127 -0.0439
30770W        W45901  11.941   1.686   1.756  0.0322 -0.0115  0.1931
30771W        W45902   8.865  10.707  12.925 -0.1427  0.1579 -0.0741
30772W        W45903   7.559   0.279   0.160  0.2252  0.1449  0.1854
30773W        W45904   7.763  12.971   3.922  0.1733 -0.1869  0.0023
30774W        W45905  11.959  16.602  16.277  0.2798 -0.2883 -0.2335
30775W        W45906  14.679   6.299  12.644 -0.3542 -0.1993  0.0971
30776W        W45907  14.449   4.495   2.366 -0.1929  0.0990  0.3846
30777W        W45908  10.895   6.320   4.374 -0.0478  0.0298  0.2355
30778W        W45909  10.521   8.117  15.695 -0.1245 -0.3099  0.1537
30779W        W45910   5.684  11.473   4.680  0.2391 -0.1286 -0.0023
30780W        W45911   6.494  15.240  11.253  0.2115  0.0312 -0.2781
30781W        W45912   3.857   9.741  13.592 -0.2824 -0.0810 -0.0581
30782W        W45913  12.693  14.871  14.036  0.0488  0.2448  0.1137
30783W        W45914   9.341   1.505   4.540  0.0444  0.2270  0.1613
30784W        W45915   3.417   1.062   0.238 -0.2050 -0.4952  0.0253
30785W        W45916  17.294   5.737  11.641 -0.1443 -0.2045 -0.0182
30786W        W45917   7.333   9.475   3.674  0.0540  0.0960  0.1314
30787W        W45918  12.610   9.105  15.200  0.0889  0.1951  0.0649
30788W        W45919  14.037   4.209   4.132  0.1641 -0.2243 -0.0647
30789W        W45920   5.601  15.511   1.707  0.2058  0.4380  0.0939
30790W        W45921  16.049   9.541  13.860  0.0648 -0.2010  0.2751
30791W        W45922  12.014  14.769   0.683  0.0578 -0.1067 -0.1493
30792W        W45923   9.110   1.461  14.264 -0.2052  0.0308 -0.2125
30793W        W45924   0.708  11.047   3.468 -0.0644 -0.0702 -0.0169
30794W        W45925   9.507   6.837  11.478  0.0644 -0.1114 -0.2171
30795W        W45926   3.335  16.013  12.826  0.2120 -0.2856  0.3699
30796W        W45927   6.953   3.151   1.376  0.3339 -0.0104  0.1284
30797W        W45928   6.692   5.672  16.296  0.1012  0.1849 -0.0076
30798W        W45929   9.906  17.696   3.193  0.1196 -0.4464 -0.0221
30799W        W45930   5.086  13.653  12.524 -0.3390  0.3485  0.0550
30800W        W45931   4.621   0.935   4.291  0.0285  0.0162 -0.0347
30801W        W45932  13.555   9.929   4.781  0.0903  0.0391  0.0115
30802W        W45933   6.854  14.281  13.170  0.2643  0.4941  0.0109
30803W        W45934  16.911  13.749  12.502  0.1868 -0.0497  0.2973
30804W        W45935  13.470   1.967   3.975 -0.2468  0.1918  0.3792
30805W        W45936  15.073   7.574   4.068 -0.0049 -0.0121 -0.1344
30806W        W45937  11.650  17.130  14.900  0.1669  0.0685  0.2104
30807W        W45938  16.249   0.634  11.884  0.2818  0.2179  0.2040
30808W        W45939  16.764   5.838   3.473 -0.1250  0.0156  0.1967
30809W        W45940  10.505   1.812  13.174  0.0131 -0.3450 -0.0717
30810W        W45941   9.062   1.620   2.256 -0.0310 -0.2441 -0.1865
30811W        W45942   4.414  12.230  15.399  0.2609 -0.1365  0.2358
30812W        W45943  14.511  12.724  11.637  0.2638 -0.0057  0.3258
30813W        W45944   4.449   5.402  12.273  0.0563 -0.0644 -0.2771
30814W        W45945   8.727   0.416   0.548  0.0219 -0.1316 -0.1053
30815W        W45946   9.816   1.790  12.646 -0.0606 -0.0536  0.1282
30816W        W45947  11.731   9.692   2.642 -0.1585 -0.1021  0.0405
30817W        W45948  15.812   3.242   2.229 -0.0270  0.0015  0.2222
30818W        W45949  16.925   7.848  15.761  0.0507 -0.0937 -0.0710
30819W        W45950   0.002   0.401   0.371 -0.3621  0.1234  0.2212
30820W        W45951  12.708   9.018   4.186 -0.0666  0.1925  0.2324
30821W        W45952   3.192  15.230   0.587 -0.1216 -0.0224 -0.2455
30822W        W45953   3.095   5.619   5.369 -0.4302  0.3324 -0.0150
30823W        W45954   3.158  16.621  16.654  0.0341 -0.2276  0.0403
30824W        W45955   6.963  16.047   4.051 -0.1465  0.0425 -0.0659
30825W        W45956   2.119   1.153   3.192 -0.3503  0.1050  0.2662
30826W        W45957   3.295  12.756  15.953 -0.1288  0.1423  0.0188
30827W        W45958  16.437   9.872   2.980  0.1518 -0.1171 -0.1610
30828W        W45959  13.940   0.113  12.489 -0.1087  0.2923 -0.0906
30829W        W45960   9.747  14.151   3.087 -0.0233 -0.0772 -0.1429
30830W        W45961  10.665  11.482  11.922  0.1635 -0.1455  0.1271
30831W        W45962   0.883   5.044   4.851  0.2119 -0.1570  0.0296
30832W        W45963   6.910   5.145  15.745 -0.2543  0.3019  0.0234
30833W        W45964   3.913  11.199   4.820  0.0857  0.0091  0.0519
30834W        W45965  13.899   5.252  15.034  0.4045  0.0321 -0.1527
30835W        W45966  10.630  12.890  11.726  0.2460 -0.3864 -0.1880
30836W        W45967  11.592   5.782  15.903 -0.1512 -0.1734 -0.2379
30837W        W45968   6.605   3.398  14.274 -0.1650 -0.0363  0.1258
30838W        W45969  10.421  10.638   2.506 -0.2435  0.1844  0.3744
30839W        W45970   1.890  12.435   4.119 -0.0066  0.0859  0.2840
30840W        W45971   2.147  11.363   0.443 -0.1522  0.0322  0.1449
30841W        W45972   9.653   5.264   4.084 -0.1164  0.1777  0.1273
30842W        W45973  17.818  17.160   3.780  0.0272  0.0437 -0.0437
30843W        W45974   3.214  11.130  10.825 -0.1287  0.2888 -0.1035
30844W        W45975   3.181  13.285  15.860 -0.0944  0.2070 -0.0911
30845W        W45976   2.641   3.460  13.668 -0.0829  0.1498 -0.2094
30846W        W45977  11.701  14.884   3.305  0.4210  0.1412  0.0584
30847W        W45978  16.376  10.353   3.388  0.2453 -0.1181  0.2415
30848W        W45979   8.099   1.036  11.178  0.1038  0.0743  0.0752
30849W        W45980   5.334   5.260  13.528 -0.2994 -0.0213 -0.0707
30850W        W45981   9.171  16.476   1.826  0.0789 -0.4060 -0.0761
30851W        W45982  17.136  13.874   6.005  0.1151  0.3256 -0.2984
30852W        W45983  11.600  15.388  16.478  0.1512 -0.0686 -0.0591
30853W        W45984   9.859   7.334   3.019  0.0194  0.0459  0.2658
30854W        W45985  16.871  15.835  12.904 -0.1032  0.2578  0.2089
30855W        W45986  10.677   2.750   2.792  0.3773  0.1760 -0.0445
30856W        W45987  14.356   0.905   5.477 -0.1068  0.2576 -0.1194
30857W        W45988  17.049   5.693  12.427  0.1469  0.1403  0.2792
30858W        W45989  10.610  16.064   4.149 -0.0699  0.3385  0.0694
30859W        W45990  14.781  15.229  11.114 -0.0578 -0.2907  0.1078
30860W        W45991   8.887   7.409  14.809  0.2440 -0.4472 -0.0079
30861W        W45992   1.572   3.647   5.129 -0.2211  0.2597  0.2632
30862W        W45993  15.426   9.997  13.955 -0.0121  0.2043  0.4174
30863W        W45994  14.608  14.644  15.202  0.1435 -0.4588  0.7310
30864W        W45995   4.804  10.281  12.217  0.0171  0.0267  0.0816
30865W        W45996  10.832  14.398   4.920  0.2321  0.3864 -0.1990
30866W        W45997  13.712   8.383   1.220 -0.2459 -0.1517 -0.1487
30867W        W45998  14.802  15.054   5.157 -0.1374  0.1347 -0.1149
30868W        W45999  12.615   3.591   5.512 -0.0137 -0.1256  0.1028
30869W        W46000  17.311   4.872  16.682 -0.0629 -0.2963 -0.1731
30870W        W46001  15.058   9.083  15.062 -0.3545 -0.1220 -0.2582
30871W        W46002  15.293   0.546  12.213  0.0047 -0.0675  0.1304
30872W        W46003   3.187   3.036   4.661 -0.1893  0.1674  0.0170
30873W        W46004  13.273  12.440  15.836 -0.0286 -0.4643  0.0360
30874W        W46005   7.062  13.843  14.819  0.0764  0.1450  0.2927
30875W        W46006  10.915  13.381   5.573 -0.1785  0.1602  0.0086
30876W        W46007   5.558  11.386  13.886 -0.0885  0.1998 -0.1106
30877W        W46008  13.936  12.894  11.890  0.0015  0.0909  0.0865
30878W        W46009  14.068  13.842  12.446 -0.1881 -0.0403  0.1421
30879W        W46010   7.158   4.513  16.485 -0.3695 -0.0247  0.1975
30880W        W46011  10.613   6.746  13.745  0.2291 -0.0424 -0.3690
30881W        W46012   8.952   8.149   0.804 -0.2991  0.2116 -0.1165
30882W        W46013   5.863   9.852   5.390 -0.0585  0.2512  0.2892
30883W        W46014   0.154  14.749  13.894 -0.0871 -0.3252 -0.2443
30884W        W46015   5.233   6.763   5.065  0.2894 -0.0383  0.1342
30885W        W46016   9.598  17.216   3.146 -0.1170  0.0544  0.1213
30886W        W46017  12.957  17.107  12.602 -0.1604 -0.0224  0.2668
30887W        W46018  10.061  11.956  16.500  0.1447 -0.0071 -0.0843
30888W        W46019   5.344  11.121   1.700 -0.1758  0.0737 -0.4761
30889W        W46020   7.744  13.210  11.423  0.0249  0.2209  0.0951
30890W        W46021  15.516   3.498   1.948  0.3713 -0.0069  0.2028
30891W        W46022  11.808  12.408   2.515 -0.1703 -0.0179 -0.0439
30892W        W46023   9.053  12.993   3.137  0.1050 -0.1128  0.0715
30893W        W46024  17.691   7.737   2.499 -0.1511  0.5159  0.3023
30894W        W46025  14.158   8.180  11.494 -0.2493  0.0170 -0.0585
30895W        W46026  15.442   0.386   2.054 -0.0306  0.2044 -0.0676
30896W        W46027   9.805  11.796  16.136  0.1265  0.1259 -0.0811
30897W        W46028   1.435   8.372  12.885  0.0926 -0.0768  0.3207
30898W        W46029   2.610  17.669  16.283 -0.2648 -0.0002  0.4000
30899W        W46030  15.535   9.020  12.024  0.5238 -0.0843  0.2929
30900W        W46031  14.369   2.590   3.269  0.2026  0.2476 -0.0895
30901W        W46032   0.402  11.831  14.080 -0.1127 -0.1938 -0.0450
30902W        W46033  15.766  13.193   0.879  0.1014 -0.1237  0.1433
30903W        W46034   7.967   3.203   4.480  0.0328  0.0888 -0.0496
30904W        W46035  10.542   2.796   1.499 -0.0797 -0.0373  0.0528
30905W        W46036   4.006  11.012   3.901  0.0920  0.1079  0.2135
30906W        W46037  17.379   6.862   4.667 -0.1212  0.1229  0.0537
30907W        W46038   1.946   3.998  12.156  0.2756 -0.2533  0.0837
30908W        W46039   6.268   7.473  10.958  0.1470  0.0575 -0.2459
30909W        W46040  16.814   8.285  14.846 -0.0478 -0.4507  0.1352
30910W        W46041  13.940  12.471   1.538  0.0393 -0.1993  0.1161
30911W        W46042   7.265  13.627  12.581  0.2645 -0.0478 -0.0201
30912W        W46043  17.682  11.361   0.068  0.1395  0.1076 -0.1099
30913W        W46044   7.775   8.557   1.341  0.1989 -0.0287  0.0165
30914W        W46045  16.697   7.642  13.116  0.3122 -0.1195 -0.0809
30915W        W46046  15.644  10.104   3.549 -0.0770 -0.4796  0.3175
30916W        W46047   9.284   0.097  15.786 -0.0778 -0.0306 -0.0240
30917W        W46048  10.233  10.214   0.714 -0.1884  0.3749  0.1102
30918W        W46049  16.978   6.859  11.418  0.1210 -0.1572 -0.0553
30919W        W46050   6.209  13.194   1.133 -0.1765  0.2447 -0.0550
30920W        W46051  14.500   0.127  15.706 -0.3853  0.0902 -0.3772
30921W        W46052  17.058  15.568  14.402 -0.0389 -0.0647  0.3396
30922W        W46053   7.921  14.331  14.002  0.2425 -0.0643 -0.4006
30923W        W46054  13.967  12.727  16.344  0.1825  0.2246 -0.2433
30924W        W46055  15.146   8.974  12.301 -0.0434 -0.2525 -0.0655
30925W        W46056  16.731   7.198   2.739 -0.3001  0.4223 -0.1661
30926W        W46057  13.967   1.839   5.344 -0.0825  0.0983 -0.0915
30927W        W46058  16.226   3.156   3.071  0.1592 -0.0729 -0.0304
30928W        W46059  17.551   0.876   5.000 -0.0398 -0.0874  0.2727
30929W        W46060   9.933  15.506  12.831 -0.2632  0.1342 -0.0753
30930W        W46061  11.701  12.598   3.938 -0.0971 -0.1523 -0.1392
30931W        W46062   8.686   1.530   1.250  0.0119 -0.0385 -0.2353
30932W        W46063  16.185   3.239   4.378 -0.0090  0.1234  0.0910
30933W        W46064  11.530   3.600  14.977 -0.0177  0.1224  0.2695
30934W        W46065  14.396  16.078  13.660  0.2313  0.3370 -0.1284
30935W        W46066   4.056   0.286   2.783 -0.1079 -0.1521  0.0988
30936W        W46067   2.042  10.013  13.823  0.0174 -0.0539  0.2851
30937W        W46068   1.759  15.202   3.127 -0.0232  0.0970  0.0095
30938W        W46069   5.758   1.695  14.460  0.3747  0.2640  0.0751
30939W        W46070  15.649   3.155   4.219 -0.1054  0.1090 -0.1313
30940W        W46071   9.905  13.114   5.553  0.3640  0.1705 -0.0628
30941W        W46072   4.396   1.826   1.280  0.3815 -0.0821 -0.1060
30942W        W46073   6.748   9.322   0.252 -0.5768  0.0621  0.0975
30943W        W46074  16.408  12.603  11.498 -0.4479  0.1766  0.0948
30944W        W46075  11.259   0.411   4.303 -0.1557  0.1026  0.1965
30945W        W46076   8.346  14.531   3.782  0.1537  0.3017  0.0328
30946W        W46077   9.916   9.018  12.264  0.1119  0.1872 -0.4967
30947W        W46078  12.091   1.943   2.282  0.1777 -0.1038 -0.3737
30948W        W46079  10.613   8.731  15.561 -0.0378 -0.0700 -0.0730
30949W        W46080  13.015   7.915   0.203 -0.0483  0.2282 -0.0029
30950W        W46081   8.030  14.273  12.779  0.5568  0.0361 -0.0113
30951W        W46082  10.089   6.821   1.519 -0.0298  0.0373 -0.1880
30952W        W46083  11.617   0.802   0.946  0.0212 -0.0295 -0.0412
30953W        W46084   2.528   7.220   0.321  0.0717 -0.3136  0.5114
30954W        W46085  11.798  12.377   3.464 -0.2147 -0.1711  0.1222
30955W        W46086  10.347   9.718   1.558  0.1896 -0.0744 -0.0427
30956W        W46087   9.509   2.271  11.248  0.3780 -0.1849  0.0374
30957W        W46088   2.352   2.808  15.271  0.2009  0.1709 -0.0640
30958W        W46089  14.312  10.221   5.207 -0.1142  0.2580 -0.2756
30959W        W46090   9.965  17.072  11.520 -0.3585 -0.0665  0.1556
30960W        W46091  10.628   5.492  15.150 -0.0034  0.0053 -0.2655
30961W        W46092  13.216  17.309  13.458 -0.0979  0.0940  0.3115
30962W        W46093  16.341   4.418  15.799 -0.0586  0.1818  0.1303
30963W        W46094  11.282   6.329  13.558  0.0152 -0.0500 -0.0447
30964W        W46095  10.317  15.974   3.186 -0.2124  0.1713 -0.1945
30965W        W46096  15.626   0.056  13.346 -0.0909  0.0528 -0.1622
30966W        W46097  10.050   2.501  13.664 -0.0410 -0.0545 -0.3712
30967W        W46098   8.158   3.729  13.727 -0.1346  0.2706 -0.3037
30968W        W46099   5.855   1.314  13.705 -0.0929 -0.0122  0.1280
30969W        W46100   4.986   9.278  15.587 -0.0240  0.0641  0.0017
30970W        W46101   1.111   8.398  11.201  0.2110  0.4384 -0.0273
30971W        W46102  17.290   0.102   2.523 -0.0730 -0.0204  0.1195
30972W        W46103   8.520   7.875  13.007 -0.2410 -0.1502 -0.2993
30973W        W46104  16.757  13.052  14.689 -0.2072 -0.1663  0.1056
30974W        W46105   3.059   1.989  13.450  0.0873  0.2187  0.2120
30975W        W46106   7.847   2.638   1.686  0.3252 -0.1759  0.0320
30976W        W46107   4.280  11.745   3.290  0.0998  0.3586  0.2694
30977W        W46108  13.427  11.570   5.184 -0.3426 -0.0560  0.0656
30978W        W46109  17.078   3.403  14.654 -0.3769 -0.2271 -0.2615
30979W        W46110   7.744   9.371  12.072 -0.0695  0.0486  0.0648
30980W        W46111   6.677   8.527  14.472 -0.1512 -0.1168  0.2568
30981W        W46112   2.347  17.828   4.198 -0.1426 -0.0239  0.2536
30982W        W46113  16.489   2.433  12.583 -0.2061 -0.0779 -0.3102
30983W        W46114   8.292   0.087  14.595 -0.0185  0.4538  0.0334
30984W        W46115   7.017  13.282   0.779  0.1939 -0.1123 -0.1937
30985W        W46116  16.247  17.046  12.488 -0.1060  0.0029 -0.3525
30986W        W46117   0.642   1.512  12.648 -0.1548 -0.1489 -0.1299
30987W        W46118   6.174   1.635  12.987 -0.0317 -0.0053 -0.2883
30988W        W46119   2.435  14.072   1.593  0.0313 -0.0928  0.2342
30989W        W46120  10.387  14.142   5.615 -0.1097 -0.2349 -0.0282
30990W        W46121   0.943  15.297   2.532  0.0544  0.1290 -0.1623
30991W        W46122   1.564   3.173  14.692 -0.1265  0.1830 -0.1030
30992W        W46123   9.956   5.190   3.123  0.0357  0.1296 -0.0491
30993W        W46124  17.151  13.786   1.796 -0.0639 -0.1306  0.2483
30994W        W46125   6.641  12.718  16.549  0.3036  0.0489  0.1468
30995W        W46126  13.253  13.694   5.290  0.1982  0.0769  0.1039
30996W        W46127   4.197  10.371   5.485  0.1278  0.0533  0.1706
30997W        W46128   3.937   9.472   1.021  0.0419 -0.1094  0.1547
30998W        W46129   9.811   6.725  12.398 -0.0845  0.0584  0.0041
30999W        W46130   4.793  10.970   2.959  0.0447 -0.0081  0.4466
31000W        W46131   7.542   6.342  13.281  0.0489 -0.1280  0.3106
31001W        W46132   5.301   2.659  16.151  0.0135  0.0398  0.1949
31002W        W46133   7.713   4.903   3.822 -0.0424 -0.0330  0.0930
31003W        W46134   8.642   6.931  15.491  0.1473  0.4398  0.1574
31004W        W46135   1.651   5.962  15.009 -0.0231 -0.0460 -0.0130
31005W        W46136   3.273  12.082   2.063  0.0675  0.0631 -0.0940
31006W        W46137   7.980   8.617  11.544  0.1485  0.1679  0.1089
31007W        W46138  17.662  11.845   2.776 -0.1303  0.0006 -0.0850
31008W        W46139   6.373  15.149  13.213 -0.4243 -0.2036 -0.2232
31009W        W46140  11.488   6.663   1.496 -0.1440  0.0150  0.0209
31010W        W46141  11.016   7.166  11.616  0.2403 -0.0167  0.1559
31011W        W46142   3.799   9.257   0.558 -0.0607  0.1343  0.1129
31012W        W46143  12.871  17.538   5.016  0.1757  0.0072  0.1439
31013W        W46144  17.506   3.390  11.792 -0.2662 -0.2672  0.0688
31014W        W46145  14.257  16.544  11.759 -0.0389  0.0264 -0.0192
31015W        W46146   2.039   9.766  14.681  0.3569 -0.0865 -0.0984
31016W        W46147   8.845  14.284   5.030  0.1867  0.1312  0.1975
31017W        W46148  13.376  14.718  12.530 -0.3206 -0.1342 -0.0501
31018W        W46149  17.653  16.404  13.053 -0.2427 -0.0801 -0.1415
31019W        W46150  15.719  13.997   1.992 -0.3973  0.0482 -0.1353
31020W        W46151  17.261  16.172   4.249  0.0208 -0.0988 -0.1923
31021W        W46152   8.314   4.033  13.317  0.3058 -0.0991  0.2233
31022W        W46153   5.913   5.749   4.828  0.1628  0.3305  0.1135
31023W        W46154   9.288   5.451   3.796  0.2349 -0.4100 -0.0650
31024W        W46155   5.926   0.646   2.010 -0.0995 -0.0424 -0.0956
31025W        W46156  17.870   6.642  10.023 -0.1270  0.0149  0.2388
31026W        W46157  16.951  10.613   4.709  0.2068 -0.0768  0.1269
31027W        W46158  11.294  10.464  15.539  0.0908  0.1523 -0.0836
31028W        W46159  11.556   7.990   3.857 -0.1420 -0.3528 -0.1595
31029W        W46160  10.188   2.833   2.661  0.0166 -0.2278  0.1921
31030W        W46161  16.153   7.620  13.082  0.0442 -0.1890  0.0906
31031W        W46162  13.686   9.398  13.384 -0.1595  0.0071  0.1432
31032W        W46163   9.006  15.631  14.506  0.0840  0.0896  0.0318
31033W        W46164  16.957   9.505  16.454 -0.1691  0.0749  0.0566
31034W        W46165  15.212  17.774   3.901 -0.2221 -0.0678 -0.0854
31035W        W46166  13.654   1.570  14.435 -0.1596  0.0409 -0.0658
31036W        W46167   8.596  12.984   0.101 -0.0385  0.0295  0.1194
31037W        W46168   3.079  15.021  11.999  0.0158  0.1621  0.0495
31038W        W46169  16.876  14.900  11.799 -0.0588 -0.0833 -0.0379
31039W        W46170  15.128   0.688  11.358 -0.0546  0.2620 -0.0283
31040W        W46171   7.756   3.622  14.951 -0.0522 -0.0635 -0.0429
31041W        W46172   4.737  10.526   3.269  0.0872 -0.2978 -0.1480
31042W        W46173   8.562  11.762   1.273 -0.2216  0.1069  0.0646
31043W        W46174  17.329   8.678  14.263  0.0637  0.2690 -0.0334
31044W        W46175  11.663   1.006  12.030 -0.1244 -0.0954  0.5631
31045W        W46176   1.086   0.247  14.803  0.3969 -0.0774  0.0281
31046W        W46177   5.367   9.628   5.410 -0.1307 -0.0708 -0.0122
31047W        W46178  14.659  11.058   0.617  0.0474 -0.0724 -0.2185
31048W        W46179  11.981  10.279   1.901 -0.0469 -0.1422 -0.2924
31049W        W46180  14.334   2.610   3.768  0.1573 -0.0265 -0.1185
31050W        W46181   1.431  16.199  14.939 -0.1914  0.3064 -0.1060
31051W        W46182   4.363   9.736   3.832 -0.5870  0.1020  0.0248
31052W        W46183   4.104   5.000   0.135  0.2818 -0.2588 -0.4717
31053W        W46184   3.880  14.069  16.212  0.0987 -0.1858  0.1927
31054W        W46185  16.067  15.642   0.043 -0.0422  0.1786  0.2466
31055W        W46186   7.727   1.557  14.596 -0.0155  0.0653  0.0773
31056W        W46187   5.729  11.797   2.977 -0.0426  0.2926 -0.0043
31057W        W46188   6.709  14.754  13.342 -0.2630 -0.3218 -0.1466
31058W        W46189  10.617   8.720  14.673 -0.0284 -0.3437 -0.1061
31059W        W46190  10.521   5.854  13.453 -0.1551  0.1810  0.1167
31060W        W46191  10.673   4.293  15.984 -0.4824  0.2083  0.1768
31061W        W46192   5.376   0.320  14.597  0.1578 -0.3944 -0.2132
31062W        W46193  16.819  10.765   1.045 -0.0241 -0.0998 -0.1558
31063W        W46194   3.571   0.289  14.057  0.3683  0.1935  0.1008
31064W        W46195   2.489  15.838  16.756  0.0451  0.1861 -0.2148
31065W        W46196  12.307   4.540  13.626  0.1037 -0.1136 -0.2352
31066W        W46197  11.126  11.897   4.007  0.0388  0.0308  0.3143
31067W        W46198   8.064   7.858  13.793  0.1062  0.0966  0.0958
31068W        W46199  16.391   0.218   1.247  0.1419 -0.1623 -0.0139
31069W        W46200   6.611   7.791   0.022  0.1012 -0.3278 -0.2640
31070W        W46201  16.717   2.268  14.034  0.0661  0.1802 -0.0516
31071W        W46202   1.532   2.294   3.374  0.0625  0.1593  0.0568
31072W        W46203  13.540  16.158  11.186 -0.2074  0.0118 -0.1166
31073W        W46204   1.663  13.740  11.036 -0.4924  0.1437 -0.2625
31074W        W46205  12.465   2.737   5.173 -0.3321 -0.0269 -0.0884
31075W        W46206  16.302  13.926  14.462  0.1272  0.0756  0.0374
31076W        W46207  15.056   1.097  16.717 -0.0466  0.0646 -0.1654
31077W        W46208  15.797  14.843  12.602 -0.1281 -0.2353 -0.0389
31078W        W46209  15.749   0.603  13.475  0.0188 -0.0292 -0.2815
31079W        W46210   0.632   8.782   2.322  0.2058 -0.3463 -0.2008
31080W        W46211  16.715  15.172  12.206  0.0388 -0.3478 -0.1513
31081W        W46212  10.281   7.994  14.387 -0.1012 -0.3385 -0.3314
31082W        W46213   5.166  15.822   2.579 -0.2009  0.1185 -0.0384
31083W        W46214  17.079  11.392   2.152  0.2478 -0.2634  0.1739
31084W        W46215   4.623   6.226   3.942  0.0081 -0.1869  0.1362
31085W        W46216   5.584  13.025   3.530 -0.0664 -0.0883  0.0665
31086W        W46217  12.756  16.378  13.540  0.0670  0.0632  0.0539
31087W        W46218  10.773   5.447  16.490  0.1815 -0.0694  0.1765
31088W        W46219  15.620  11.707  16.266 -0.0879  0.1665 -0.3604
31089W        W46220   7.880  14.779   3.603  0.0100 -0.0611  0.0684
31090W        W46221   2.191   4.426   5.211 -0.0428  0.0477  0.2868
31091W        W46222   2.761  11.255   1.184 -0.3008 -0.0811 -0.1308
31092W        W46223  10.755   7.044   5.989 -0.0526  0.2129  0.0961
31093W        W46224  15.491  11.687  15.713 -0.0071 -0.1030  0.0088
31094W        W46225   3.433   8.837   6.227  0.0966 -0.1454  0.4476
31095W        W46226   1.019   8.410   4.241  0.0986  0.3038  0.0909
31096W        W46227  11.806  13.409  13.677 -0.1825 -0.4912  0.1948
31097W        W46228  12.176  17.032  12.235  0.2406 -0.2015 -0.1572
31098W        W46229  11.739  13.465  12.464 -0.0142  0.0474 -0.1460
31099W        W46230   7.338   7.196   3.332  0.0941 -0.2017  0.3806
31100W        W46231  15.316   9.666   4.774  0.2013  0.2223  0.0150
31101W        W46232   6.353   0.094  15.734 -0.1889  0.2168  0.0991
31102W        W46233  11.033   8.200  11.764 -0.3144  0.0508  0.1862
31103W        W46234  17.728  17.808  15.891 -0.2981 -0.1113 -0.2569
31104W        W46235   8.394   5.307  14.791  0.0486  0.1379  0.3173
31105W        W46236   6.205  12.854  14.744  0.1307 -0.0322 -0.0655
31106W        W46237  11.658   4.103  12.273 -0.0050  0.0536 -0.2492
31107W        W46238  17.785  11.287   0.687  0.1131  0.0603 -0.0764
31108W        W46239   9.495  10.697  11.268  0.3025  0.0320  0.0701
31109W        W46240  16.419   4.987   0.128 -0.0157 -0.1673 -0.1257
31110W        W46241  10.390  12.151   1.721 -0.2982 -0.1083  0.2986
31111W        W46242   8.709  16.589   5.049  0.0748 -0.1012  0.0116
31112W        W46243  14.089   1.863  11.006  0.3227 -0.0694  0.0290
31113W        W46244   2.334   3.881   4.100  0.2041  0.1557 -0.1564
31114W        W46245   1.816  12.278  15.582  0.3068  0.0827 -0.2952
31115W        W46246   1.047  10.124   2.852 -0.2116  0.0407  0.1379
31116W        W46247  10.939   0.999  16.055  0.0967 -0.0891 -0.3216
31117W        W46248  14.546  17.492   1.255  0.2748  0.0115  0.0543
31118W        W46249   5.466   0.502   3.986 -0.0995 -0.0718  0.1447
31119W        W46250   7.238  14.707   1.630  0.0913 -0.2464  0.0626
31120W        W46251  11.326   2.302  15.941  0.0882  0.1286 -0.1421
31121W        W46252   4.016   9.040   3.797 -0.0968 -0.0527 -0.1078
31122W        W46253  11.384   6.219  11.320 -0.2249  0.2671  0.1649
31123W        W46254   2.551   8.620  15.838 -0.2818  0.1841 -0.3785
31124W        W46255   1.696   2.003   1.229  0.0727 -0.0047  0.2964
31125W        W46256   0.531   6.413   3.683  0.4183 -0.2813 -0.2945
31126W        W46257  14.795   6.675   3.117 -0.0639  0.0030 -0.2379
31127W        W46258  14.214   9.775  15.671 -0.1368  0.4295  0.1476
31128W        W46259   6.693  10.004   1.408  0.0861  0.0886  0.0641
31129W        W46260  15.941   9.707   1.088  0.0233 -0.1270 -0.0219
31130W        W46261   4.691   8.631  16.525 -0.2608  0.0999 -0.0930
31131W        W46262   7.500   3.489  16.527  0.1565  0.0952  0.1069
31132W        W46263  13.491   4.916   1.436  0.0682 -0.0959  0.0237
31133W        W46264   7.106  12.860  15.738 -0.1435  0.0759 -0.0302
31134W        W46265  16.058   9.378  15.193 -0.2424 -0.0412 -0.0856
31135W        W46266   0.548  11.569  15.371 -0.2013  0.1279 -0.0693
31136W        W46267  10.305  16.071  11.858 -0.0936  0.0250 -0.5427
31137W        W46268   7.347  12.662   3.538 -0.0660  0.2258 -0.0472
31138W        W46269  13.820  10.928   0.606 -0.0577  0.0450 -0.0665
31139W        W46270  10.774   1.807   2.666 -0.1027 -0.1735  0.0130
31140W        W46271   1.670   3.011   0.055  0.0471  0.1141  0.0539
31141W        W46272   8.952   4.752   0.379 -0.1121  0.1312  0.0101
31142W        W46273  11.169  11.606   1.934  0.0307  0.1519 -0.0266
31143W        W46274  13.904   2.436   3.326  0.0259 -0.1173 -0.2746
31144W        W46275  10.760  11.717   4.346  0.1746 -0.2199 -0.3567
31145W        W46276  17.352  13.570   2.681 -0.1821  0.1298  0.1365
31146W        W46277   2.194   0.316  14.243  0.0712  0.0297  0.1238
31147W        W46278   2.338  17.699   5.558  0.3416 -0.1739 -0.3046
31148W        W46279  13.141  14.745  10.265 -0.1392 -0.1989 -0.2160
31149W        W46280  16.259   2.715   1.852 -0.1932 -0.2147 -0.0282
31150W        W46281   3.790  11.596   4.288 -0.0838 -0.0517  0.0354
31151W        W46282   4.506   7.473  13.112 -0.3483 -0.2344 -0.0984
31152W        W46283   1.969   2.722   0.322  0.3786 -0.0112  0.0528
31153W        W46284   2.842  15.691   6.459  0.0770  0.1401  0.0152
31154W        W46285   6.999   9.364   4.225  0.0740 -0.0958 -0.0456
31155W        W46286  17.297   9.406   0.192  0.2485  0.0259 -0.4628
31156W        W46287  16.754   4.053   3.983 -0.1611  0.0880  0.0241
31157W        W46288  11.758   6.132   5.770 -0.0390 -0.0009 -0.2255
31158W        W46289  14.885  12.401  13.716 -0.0768 -0.0080 -0.0635
31159W        W46290   8.401  16.944   1.098 -0.2132 -0.1200  0.0127
31160W        W46291   9.940  16.286  15.559 -0.2061  0.0796  0.1818
31161W        W46292   7.227   6.017   2.314 -0.3317 -0.2836  0.0514
31162W        W46293   0.209   1.235  15.677  0.2657 -0.0224 -0.5516
31163W        W46294   7.254  12.501   1.779  0.0295 -0.2604  0.0412
31164W        W46295  17.861  10.809  14.814  0.1579  0.0401 -0.0531
31165W        W46296  16.333   3.345  16.523  0.0586 -0.0387 -0.0186
31166W        W46297   9.694   1.930   2.982 -0.0306  0.0299 -0.3033
31167W        W46298  17.124  14.415  14.782  0.4657 -0.1669  0.0455
31168W        W46299  13.059  11.394  12.803  0.2468 -0.0598 -0.2398
31169W        W46300  15.701   6.586  13.947  0.1900  0.0824  0.1144
31170W        W46301  17.328  13.891  15.633 -0.0476 -0.2817  0.0092
31171W        W46302  13.079   1.063  13.568 -0.1707  0.0236  0.2054
31172W        W46303   5.843   6.757   1.166 -0.0142 -0.1035  0.0976
31173W        W46304   5.222   9.770  12.851  0.1013 -0.3460 -0.0582
31174W        W46305   5.920   4.312   5.017  0.0393  0.0751  0.2109
31175W        W46306   7.530  13.460   2.106 -0.2167 -0.0048 -0.1236
31176W        W46307   6.814  10.312  12.473  0.0793  0.1074  0.0741
31177W        W46308  17.872  11.419   5.747  0.3071  0.1299 -0.0986
31178W        W46309   2.994   4.945   1.976  0.2536  0.0724  0.0849
31179W        W46310   9.517  17.424  13.964 -0.0494 -0.1228 -0.0265
31180W        W46311   7.144   4.724  13.329  0.0984  0.1740 -0.0664
31181W        W46312   6.093  17.562   3.465  0.0903  0.0343 -0.2651
31182W        W46313   2.975  16.622  14.577  0.2534  0.0348 -0.2178
31183W        W46314   4.983   9.837   2.301  0.0069  0.0724 -0.0758
31184W        W46315  14.102  16.714   5.722 -0.1035 -0.0911  0.1505
31185W        W46316   7.083  15.759  14.421 -0.3283  0.1913 -0.2987
31186W        W46317  14.395  16.272   3.190 -0.1735  0.0977 -0.1585
31187W        W46318  16.652  14.494  11.955 -0.5873  0.0060 -0.2884
31188W        W46319   4.344   1.953  12.228  0.0191  0.2649 -0.0820
31189W        W46320  15.021   5.134   1.387  0.1226 -0.1029 -0.3316
31190W        W46321  15.745   4.007  16.195 -0.0371 -0.2867  0.1380
31191W        W46322  12.167   7.750   5.586 -0.2793  0.2281  0.2767
31192W        W46323   3.610   8.077  15.570 -0.0454 -0.0674  0.4283
31193W        W46324  11.705   1.258   1.966 -0.3097  0.0490  0.2590
31194W        W46325   6.457   6.994  12.313 -0.1020  0.1250 -0.2356
31195W        W46326  15.784  10.280   1.736 -0.1472  0.0765  0.2217
31196W        W46327   8.588  16.054   3.733  0.0459  0.0394  0.1242
31197W        W46328  13.752  10.114  11.662 -0.1338  0.0711 -0.0906
31198W        W46329  11.137  11.077  16.260 -0.1154 -0.2587  0.0638
31199W        W46330  12.033  14.572  11.149 -0.0833  0.2034  0.0120
31200W        W46331   0.467   6.302  12.567 -0.1755  0.1871  0.1724
31201W        W46332   1.043   2.467  11.064 -0.2473  0.0776  0.0348
31202W        W46333   4.016  14.825   5.324  0.0825 -0.2141  0.3909
31203W        W46334   0.727  14.117   3.105  0.0628  0.0718  0.3212
31204W        W46335   8.303  17.266  16.522  0.0819 -0.3509  0.0579
31205W        W46336   1.663  15.761  14.867 -0.0393  0.2210 -0.0719
31206W        W46337  15.005   2.436  15.272 -0.4409 -0.0894  0.0829
31207W        W46338   1.706  10.022  14.371 -0.1137 -0.0782  0.0178
31208W        W46339  10.998  13.430  16.302  0.2025 -0.1673 -0.2631
31209W        W46340   0.960   6.632  11.959  0.1107  0.1072  0.1663
31210W        W46341   4.544   2.011  11.739 -0.1085 -0.1516  0.1220
31211W        W46342   7.759   7.835   3.134  0.2587 -0.1928  0.0077
31212W        W46343   4.232   8.337  10.757  0.1785 -0.0781  0.0656
31213W        W46344  12.328   4.918   3.236 -0.1323 -0.1410  0.2299
31214W        W46345   5.621  12.245  11.417 -0.3263 -0.2563  0.0876
31215W        W46346  10.675  12.624   5.686 -0.1639 -0.0390  0.5387
31216W        W46347  16.561   3.812   1.958  0.1841 -0.3073  0.0374
31217W        W46348   7.547   9.923  11.519 -0.0944 -0.1373  0.0169
31218W        W46349   0.039   5.542  12.482  0.0867 -0.0571  0.1202
31219W        W46350   5.879  11.197   5.207 -0.1123  0.0665 -0.1799
31220W        W46351   2.098   0.153  12.085  0.3593 -0.3010  0.0948
31221W        W46352  11.775   0.456  12.889  0.1610 -0.0934  0.1023
31222W        W46353   1.693  15.904  12.516 -0.0074  0.3480  0.0390
31223W        W46354   2.141  16.957  16.397  0.0529  0.1547 -0.1514
31224W        W46355  10.501  15.245   4.473 -0.0579 -0.4599  0.0714
31225W        W46356  12.091  17.024   1.017 -0.1648 -0.1158 -0.0142
31226W        W46357   2.774   2.361   0.912  0.0928 -0.2431  0.2837
31227W        W46358  16.739   9.724   4.343  0.1774  0.0073  0.1490
31228W        W46359  13.630   8.158   2.176  0.0286  0.2772 -0.1773
31229W        W46360   1.524  16.341   1.087  0.1529  0.0237 -0.0121
31230W        W46361  14.512   0.576   3.767 -0.2672  0.0197  0.1701
31231W        W46362   3.082   9.469   1.523 -0.0842  0.1174  0.0380
31232W        W46363   4.236   0.419   3.301 -0.2928  0.3064  0.1546
31233W        W46364   0.874  15.017   3.429  0.3749 -0.0428 -0.2802
31234W        W46365  17.245   5.744  14.415  0.0534 -0.0305 -0.2894
31235W        W46366   1.883  17.671   5.679 -0.0304  0.1524  0.1012
31236W        W46367   9.035  17.036  11.799 -0.1072  0.3462  0.0525
31237W        W46368  17.518   2.893   1.171 -0.0015 -0.0921 -0.3430
31238W        W46369  10.048  14.961  15.157 -0.1898 -0.0277 -0.0456
31239W        W46370   3.248  11.962   5.727 -0.1183  0.0047 -0.0313
31240W        W46371   7.780   4.968   2.878  0.0259 -0.2182  0.3037
31241W        W46372   0.033   0.164   2.648  0.2828 -0.0678 -0.0003
31242W        W46373  16.851  14.836   1.161 -0.0066 -0.0984 -0.0765
31243W        W46374   2.405   0.837   4.697  0.0545 -0.0806 -0.2020
31244W        W46375  11.229  13.842  12.258 -0.3300 -0.2746  0.2498
31245W        W46376   8.387   3.399  12.738 -0.1330 -0.0200  0.1696
31246W        W46377  12.921  10.856   4.832  0.0121 -0.1941 -0.1031
31247W        W46378   4.560  11.202   1.081  0.0150  0.2277 -0.4296
31248W        W46379   1.999   1.317   1.157 -0.3948 -0.0080  0.1612
31249W        W46380   0.730  13.670  13.919  0.2974  0.0144 -0.3072
31250W        W46381  13.538   3.255   1.255  0.2002 -0.0868  0.2393
31251W        W46382  11.625   3.046  12.691 -0.0417  0.0963 -0.1628
31252W        W46383  13.254  14.514  15.711 -0.0988 -0.1972 -0.1427
31253W        W46384  13.571  17.451  16.666 -0.2249  0.0294 -0.0821
31254W        W46385   9.451   0.543   4.256  0.1497  0.0520 -0.1799
31255W        W46386   8.586  16.550  13.667 -0.1487  0.0966  0.0223
31256W        W46387  12.975  10.292   3.644  0.1771  0.0152  0.0271
31257W        W46388   6.191  10.773  13.951 -0.3769  0.0007 -0.4161
31258W        W46389   5.492   6.450  13.240 -0.0598 -0.2265 -0.0055
31259W        W46390   0.086   8.422   4.475  0.0709 -0.0727  0.0797
31260W        W46391  15.596   5.660   4.627  0.2393 -0.1268 -0.2297
31261W        W46392  17.817  10.804   2.175  0.0529  0.0495 -0.1060
31262W        W46393  15.881   2.609   0.277 -0.3728 -0.0214  0.0017
31263W        W46394  15.196   6.142  14.584 -0.0848 -0.3033 -0.2786
31264W        W46395   6.885   8.282  11.101  0.2120  0.0924 -0.0728
31265W        W46396   3.202   5.944  15.833 -0.1351 -0.0145  0.2955
31266W        W46397  15.467   6.694  16.250  0.0538  0.4216  0.0664
31267W        W46398  16.840  15.101   5.768  0.0461 -0.3810 -0.0677
31268W        W46399   4.884   2.480   2.844 -0.2877 -0.0149  0.0971
31269W        W46400   8.446  12.747  13.820  0.0370  0.0573  0.3464
31270W        W46401  16.416   9.711  15.515 -0.1879 -0.1001 -0.1302
31271W        W46402   1.839   3.580   5.704  0.1058  0.1102 -0.0336
31272W        W46403  13.255  12.973  13.639  0.5211 -0.0848 -0.1411
31273W        W46404   0.695  10.414   1.942  0.2325  0.0867  0.1743
31274W        W46405  11.782   6.538  16.614  0.3041 -0.1586  0.3589
31275W        W46406  12.922  14.298  13.342  0.0177  0.0301 -0.0678
31276W        W46407  15.976   5.472   4.906 -0.1441 -0.0548 -0.1969
31277W        W46408   2.333  15.603  14.062  0.0975 -0.0673  0.0427
31278W        W46409   7.332   5.541   5.244 -0.2578 -0.1917 -0.0331
31279W        W46410  12.427   0.655  15.737  0.2188  0.0627 -0.0586
31280W        W46411   9.337   7.848  14.067  0.0050  0.0497  0.0034
31281W        W46412  17.118  12.936   4.411  0.1853  0.0035 -0.0433
31282W        W46413   4.082  11.013   1.130  0.0527  0.0159 -0.3172
31283W        W46414  17.853   9.694  11.439 -0.0208  0.0323  0.1079
31284W        W46415  11.156   0.028   5.425 -0.1743 -0.1760 -0.1773
31285W        W46416  15.349   1.736   3.347  0.1472  0.4735  0.0546
31286W        W46417  12.788  13.266  10.564 -0.0218  0.0791 -0.2122
31287W        W46418   0.256   1.635   0.063  0.1476 -0.1461  0.2027
31288W        W46419   9.732  12.055   5.402  0.0199 -0.0687  0.1692
31289W        W46420  16.228   3.533  12.790  0.0853 -0.3958  0.2292
31290W        W46421   3.518   1.440   0.603  0.1559 -0.0926 -0.0736
31291W        W46422   8.013  11.621   1.065 -0.0624  0.0165  0.2521
31292W        W46423   4.821   2.074  13.879  0.0187 -0.0581  0.0253
31293W        W46424   8.657   6.915  11.757 -0.0158 -0.2431 -0.2189
31294W        W46425   3.115   9.926   5.437 -0.0552 -0.1910 -0.0550
31295W        W46426  16.465   0.152  15.870 -0.1228 -0.1673  0.0822
31296W        W46427   1.919   9.987   0.936 -0.0653 -0.0744  0.1600
31297W        W46428  10.275   7.099  10.557 -0.0994 -0.3275  0.0254
31298W        W46429  14.913   6.046  13.533  0.1915 -0.0112 -0.2065
31299W        W46430   4.348   2.419  12.054 -0.4629  0.0400 -0.3034
31300W        W46431  10.894   7.016  12.803  0.0324  0.0988 -0.1892
31301W        W46432  16.096  16.466   2.607  0.2382  0.0203 -0.0196
31302W        W46433  15.030  10.988  12.740 -0.3323 -0.1903  0.2285
31303W        W46434   7.636  13.113  13.691  0.0148 -0.0881  0.4297
31304W        W46435   8.532   0.394  16.214  0.2701  0.0589  0.0516
31305W        W46436  12.335  13.055   5.611 -0.0600  0.0193  0.2557
31306W        W46437  16.654   8.182   1.634 -0.0804  0.0770 -0.0157
31307W        W46438   9.288   4.229  14.777  0.0477  0.1577  0.1799
31308W        W46439   3.767  11.344  10.942  0.0001  0.1275 -0.3270
31309W        W46440   0.808  12.384  14.868 -0.1219 -0.2657  0.2892
31310W        W46441  11.688   8.526  15.454 -0.0249  0.0010 -0.0117
31311W        W46442  11.929   7.530  16.106  0.2627  0.1764  0.7722
31312W        W46443  16.970   2.052   2.206  0.1859 -0.1335  0.0696
31313W        W46444   1.729  10.846   2.286  0.4777  0.0110  0.1063
31314W        W46445   9.325   4.234  13.189 -0.0451  0.2814 -0.0214
31315W        W46446   5.098  10.103   5.530  0.0070  0.3601  0.2440
31316W        W46447  10.416  12.195   6.559  0.0147  0.1168 -0.1358
31317W        W46448  17.606  10.081  15.457  0.3201 -0.1443  0.2388
31318W        W46449   7.933  12.490   4.406  0.0078 -0.0859 -0.0778
31319W        W46450  15.066   8.860  13.731 -0.2420  0.2778 -0.1133
31320W        W46451  17.539  15.696   3.529 -0.0482  0.1341 -0.1138
31321W        W46452  10.720  17.334  11.974 -0.3255  0.1125 -0.2261
31322W        W46453  13.510   5.612   1.562 -0.2512  0.1104 -0.0580
31323W        W46454   7.559  17.262   0.851 -0.1154 -0.1088  0.2876
31324W        W46455   5.140  11.356  13.586 -0.0688  0.4798  0.0854
31325W        W46456   4.137   9.422  14.105 -0.0327  0.0743 -0.1419
31326W        W46457  14.158  13.820   4.965  0.0852 -0.0662  0.0908
31327W        W46458   6.181   6.640  16.177 -0.1721  0.2768  0.1777
31328W        W46459  16.226   4.583   4.753  0.0956  0.0371 -0.1930
31329W        W46460   0.424  17.253  16.408 -0.1662  0.2419  0.2155
31330W        W46461  12.764   6.450  15.766 -0.3798  0.2774 -0.0997
31331W        W46462  11.258  11.713  14.390  0.1256  0.1764  0.0019
31332W        W46463   0.934   1.039   2.661  0.0588  0.1966  0.1779
31333W        W46464  16.407  14.235   5.751  0.0791 -0.0874  0.0129
31334W        W46465   6.081   3.084   0.948 -0.1838  0.2176 -0.0099
31335W        W46466  12.345   0.345   1.699  0.0149 -0.1745  0.1996
31336W        W46467   2.556  10.210   4.521 -0.3538  0.3054 -0.1905
31337W        W46468  14.753  12.099   1.824  0.1345 -0.2158  0.0738
31338W        W46469   9.365  11.654  11.818  0.0319  0.0804 -0.0543
31339W        W46470   3.662   6.978   2.227  0.0543 -0.0880 -0.2772
31340W        W46471  13.182   7.941  16.451 -0.4570  0.0139 -0.0020
31341W        W46472   4.271   0.803   2.809  0.0641 -0.0446  0.0824
31342W        W46473   9.826   5.943  13.018  0.1388  0.0445  0.1746
31343W        W46474   2.744   3.544   3.189  0.0916  0.0670  0.2986
31344W        W46475   8.760  10.892  16.635 -0.0141 -0.0136  0.3474
31345W        W46476   4.880   6.340  11.769 -0.0604  0.0292 -0.1167
31346W        W46477   8.998  14.655   1.924 -0.1435  0.0702 -0.0605
31347W        W46478   9.622  12.035  15.675  0.1987 -0.1404  0.1814
31348W        W46479   1.236   6.167   4.946  0.2903  0.3798 -0.0073
31349W        W46480   8.401  11.284  13.659 -0.1728 -0.1387 -0.1414
31350W        W46481  16.601  14.535   3.394 -0.1200  0.2889 -0.2630
31351W        W46482  12.612   5.234   4.580  0.1076  0.0419 -0.0692
31352W        W46483   3.624   2.262  10.377  0.3862  0.1500 -0.1115
31353W        W46484   8.704  15.704   2.984  0.3469 -0.0371  0.0584
31354W        W46485  15.036  11.036   0.300  0.0513 -0.0882 -0.2802
31355W        W46486   5.808   1.919  12.707  0.2067  0.1085 -0.1280
31356W        W46487   9.088   9.115   1.060 -0.0037  0.1224  0.0487
31357W        W46488   9.719   2.476   2.997 -0.0146  0.1675 -0.0341
31358W        W46489  14.718   1.644  10.824  0.1347  0.4097 -0.1571
31359W        W46490  17.346   7.150   3.915  0.1267  0.2692  0.2229
31360W        W46491   5.302  10.207   5.063  0.0449  0.1507 -0.0573
31361W        W46492   3.960   5.619  13.532 -0.1284  0.0941  0.0316
31362W        W46493   8.771  16.894   4.150 -0.0546  0.0193  0.3406
31363W        W46494  17.382   2.176   0.978 -0.1330 -0.1099 -0.0928
31364W        W46495  11.085   9.106  15.206 -0.2878 -0.2244  0.1856
31365W        W46496  15.225   7.772   0.431  0.0401 -0.0632  0.4878
31366W        W46497   8.927   6.243  16.707  0.1282  0.0989  0.0621
31367W        W46498   2.526  14.078  15.688 -0.2472 -0.3696  0.0445
31368W        W46499   6.188  14.638  16.207  0.0967  0.1102  0.0065
31369W        W46500  10.911   8.151  16.327  0.0674  0.3167 -0.2058
31370W        W46501   8.819   0.838  16.460 -0.2651  0.0094 -0.0931
31371W        W46502   6.286   1.907   2.139  0.0771  0.0031  0.0574
31372W        W46503   3.640  14.597   5.456  0.1224 -0.0649  0.1768
31373W        W46504   6.458   4.622  14.990 -0.2748 -0.2078  0.0942
31374W        W46505   3.702   6.695  16.080  0.2007 -0.0297 -0.0583
31375W        W46506  17.149   3.848  16.762 -0.1448  0.3803 -0.2889
31376W        W46507   4.467   4.947   1.648  0.0638 -0.0348 -0.0041
31377W        W46508   9.716  13.109   1.509 -0.1728 -0.0677 -0.1858
31378W        W46509  14.063   0.584  11.465  0.1344  0.0406  0.4496
31379W        W46510  11.943  14.940  16.342 -0.1955 -0.0031  0.3479
31380W        W46511   4.767  11.682   0.863 -0.1468  0.1436  0.0381
31381W        W46512  11.613   3.835   1.103  0.0834  0.5276 -0.1511
31382W        W46513   2.362   5.205  12.962 -0.2814  0.0232 -0.1849
31383W        W46514   7.066  16.848   4.236  0.2353 -0.3350  0.0333
31384W        W46515  17.686  10.900   0.361  0.1466 -0.0064 -0.0078
31385W        W46516   1.699   8.414  14.410 -0.2103  0.0962  0.2658
31386W        W46517   5.877  13.288  14.555  0.0797  0.0721 -0.1890
31387W        W46518   0.940   0.876   4.946 -0.0979  0.0973  0.0872
31388W        W46519  15.202  14.355  13.832 -0.1324  0.1327 -0.0422
31389W        W46520   7.762   5.445   5.506  0.2916 -0.0924  0.0235
31390W        W46521   6.919   5.152  12.366  0.2251 -0.2572 -0.0487
31391W        W46522  14.144  15.515  12.850  0.1824 -0.3611  0.1041
31392W        W46523  12.005  13.796  13.469 -0.0519 -0.1170  0.0693
31393W        W46524  12.955   9.298  15.706 -0.2036 -0.0090  0.3060
31394W        W46525  15.611  12.729  11.078  0.1779 -0.1274 -0.0196
31395W        W46526   5.408   8.978  13.721  0.2249  0.1201 -0.1121
31396W        W46527   1.270   1.262   4.846 -0.2189 -0.0832  0.0187
31397W        W46528  17.522  12.475   4.847  0.1338  0.0337  0.0133
31398W        W46529  16.723  15.375  14.671  0.1890  0.3041  0.0097
31399W        W46530   4.603   0.824  14.289 -0.1443 -0.0767  0.3222
31400W        W46531   1.897   8.743  16.290 -0.1241  0.0024 -0.0290
31401W        W46532  15.884   4.873   1.075 -0.0943  0.1780  0.0377
31402W        W46533   8.378  11.637   2.192 -0.2783  0.2246 -0.0462
31403W        W46534  10.862   3.343   5.554  0.1520 -0.2053  0.0796
31404W        W46535  10.643   5.418  14.619  0.0884  0.0133  0.0844
31405W        W46536   9.830   8.148   5.108 -0.1713  0.0820 -0.0336
31406W        W46537  14.404  11.446  11.824 -0.2327  0.0961 -0.0415
31407W        W46538  11.252   5.502   2.538  0.0701  0.0601 -0.1663
31408W        W46539   9.259  13.262  13.777 -0.2971 -0.1777 -0.3045
31409W        W46540  12.311  17.125  13.731 -0.0464 -0.0219 -0.1221
31410W        W46541   8.355  15.598   2.057 -0.2370 -0.1011  0.0086
31411W        W46542  17.612   1.836  12.287  0.1406  0.1346  0.1214
31412W        W46543   4.967  10.582   1.328  0.0045  0.0337 -0.0275
31413W        W46544   6.633   7.626  11.740  0.0313  0.1173  0.3391
31414W        W46545   6.935   1.320   1.077  0.2406 -0.1602 -0.3499
31415W        W46546   0.740  15.643   5.633  0.0791 -0.0483  0.0706
31416W        W46547  16.919  11.661   4.404  0.3552 -0.1222  0.0750
31417W        W46548  16.887  11.189   4.576 -0.3707 -0.3662  0.1629
31418W        W46549   7.971  15.795   2.384  0.1538  0.2307 -0.1522
31419W        W46550   8.645   3.042   2.574 -0.1827 -0.0239 -0.1298
31420W        W46551   0.305  14.680   4.516  0.0430 -0.2162 -0.0425
31421W        W46552  15.802   6.243  16.525  0.0787  0.0726 -0.1270
31422W        W46553   6.544  13.995   5.326 -0.0046 -0.0510 -0.0588
31423W        W46554   9.858  11.908  15.254  0.3378  0.1547  0.0991
31424W        W46555  12.248   1.932   1.423  0.2870  0.0001 -0.0809
31425W        W46556  13.473  10.107   0.132 -0.2987 -0.0160  0.0861
31426W        W46557   5.963  13.597   2.470  0.0730 -0.1825  0.0310
31427W        W46558   3.676  17.427  11.828  0.1331  0.0379  0.1818
31428W        W46559   9.412  12.803   1.924  0.4704 -0.0069 -0.0844
31429W        W46560   1.399  13.355   1.169 -0.0814 -0.2374  0.0623
31430W        W46561   1.807  16.076   0.704  0.1556  0.0833 -0.0040
31431W        W46562   6.416   7.639   0.974 -0.1383  0.2573 -0.0334
31432W        W46563   0.189  11.066  16.062  0.0890 -0.1784 -0.0506
31433W        W46564  13.613   2.774  13.100 -0.1660 -0.0628 -0.0078
31434W        W46565  16.221  17.737   1.700  0.1012 -0.2144  0.3326
31435W        W46566  15.270  17.849   1.804  0.1057 -0.1423 -0.2103
31436W        W46567  17.645   8.828   3.842  0.0289  0.0315  0.2391
31437W        W46568   3.102  15.838   4.773 -0.1019 -0.0337 -0.3126
31438W        W46569  15.534   2.635  13.602 -0.0715  0.0424  0.0247
31439W        W46570   0.187  16.328   0.005  0.2244  0.1650  0.0510
31440W        W46571   8.904   0.840  15.909 -0.1297 -0.0264  0.1805
31441W        W46572   5.990  10.275  13.883 -0.2290 -0.1136 -0.0503
31442W        W46573   7.147   2.508  12.363 -0.2589 -0.0764  0.2666
31443W        W46574  13.602  13.566   5.683 -0.0548  0.0419  0.2168
31444W        W46575  11.736   7.469   3.982  0.2204  0.1370  0.2409
31445W        W46576  11.895   1.212   0.893 -0.1385  0.1053 -0.3216
31446W        W46577   0.054   2.325   1.770 -0.2804 -0.1390  0.0059
31447W        W46578   2.412  17.407   4.557 -0.0340 -0.1886  0.0130
31448W        W46579   9.158  10.208  13.642  0.3397  0.2254 -0.0008
31449W        W46580   0.715   0.064  13.970 -0.0669 -0.0758  0.0362
31450W        W46581   6.563  14.075  12.818 -0.0278 -0.1295 -0.2090
31451W        W46582   8.097   2.770   3.110 -0.1117  0.2171  0.3090
31452W        W46583   6.883  10.868   5.126 -0.1693 -0.0526 -0.0660
31453W        W46584   4.711  10.384  16.183  0.2434  0.0442  0.0476
31454W        W46585   4.055   5.175   3.896 -0.4435  0.1264 -0.3415
31455W        W46586   5.143  15.774   3.332  0.0114  0.0635  0.1385
31456W        W46587  10.631  16.467  11.871 -0.0153 -0.0006 -0.0931
31457W        W46588  11.567   0.200  16.152 -0.0610 -0.2165 -0.2868
31458W        W46589   6.588   8.255   1.982  0.0149 -0.0399 -0.1059
31459W        W46590  13.293  13.780   1.009  0.2175  0.1545 -0.1509
31460W        W46591   1.408  10.504  15.016 -0.0205 -0.0828 -0.4756
31461W        W46592   6.650   0.732   4.339  0.1392  0.1433  0.0776
31462W        W46593   1.929  14.633   5.570  0.2168  0.0164  0.2458
31463W        W46594   5.988  17.083  13.731 -0.2003  0.3035 -0.1380
31464W        W46595  10.718   0.118   1.176 -0.0889 -0.2227 -0.1617
31465W        W46596  10.360  13.232   6.353  0.3003  0.1212  0.0791
31466W        W46597   7.492   0.019   2.688 -0.0553  0.0456  0.2446
31467W        W46598  13.375   2.356   1.406 -0.0499  0.4642 -0.2051
31468W        W46599   2.896  16.131   5.086 -0.0504 -0.0008  0.1500
31469W        W46600  13.650   1.002  11.444 -0.1321  0.1802  0.1371
31470W        W46601   6.643   0.783  16.134  0.1183  0.1640 -0.0044
31471W        W46602   1.854  17.444   2.660  0.2203  0.0128 -0.0112
31472W        W46603  10.440  10.791  16.445  0.0785 -0.2918  0.0147
31473W        W46604  11.932  12.090  13.684  0.1455  0.2662 -0.1597
31474W        W46605  13.598   3.482  11.223  0.0265 -0.0546 -0.0392
31475W        W46606   5.576   3.897   0.856 -0.3068  0.2207  0.2170
31476W        W46607  15.136  15.484  16.139 -0.1831 -0.0800 -0.2640
31477W        W46608   4.663   2.940   5.098  0.0283  0.0927  0.0802
31478W        W46609   3.324  10.277  13.211  0.0931  0.0068 -0.0841
31479W        W46610   8.790   0.199  11.454 -0.1754 -0.0235 -0.1798
31480W        W46611  15.145  10.093  10.274 -0.1181 -0.1441 -0.0095
31481W        W46612   7.339  14.168   0.728 -0.1126  0.1529  0.0512
31482W        W46613   8.468  14.993  15.131  0.1398  0.0910  0.1610
31483W        W46614   1.747   4.610   2.437  0.2848  0.0677 -0.0429
31484W        W46615  16.934   6.132  13.137 -0.3461 -0.0854 -0.6142
31485W        W46616   1.887   8.311   1.322  0.1024  0.1346  0.0705
31486W        W46617   0.609  11.528  16.724  0.0254  0.0461 -0.0719
31487W        W46618  17.677  10.970  15.231  0.1519 -0.4265  0.2269
31488W        W46619  11.356  14.365  14.357 -0.2536  0.1308 -0.1498
31489W        W46620   1.398   7.124  13.636 -0.0642  0.1510  0.2032
31490W        W46621   2.985  17.575  15.392  0.1679  0.1494  0.3031
31491W        W46622   9.192   8.302   3.421 -0.0819  0.0656 -0.1167
31492W        W46623  16.691   6.521   1.646  0.0020 -0.0685  0.3407
31493W        W46624  10.305  11.793   2.011 -0.0015  0.1620  0.0925
31494W        W46625   3.903   3.172  14.841 -0.1727  0.1309 -0.2463
31495W        W46626  13.745  17.439   3.239  0.2571  0.3442  0.0597
31496W        W46627  14.714  16.937   2.287 -0.0817 -0.1508 -0.2139
31497W        W46628   0.355   7.973  15.031  0.3326 -0.0673 -0.2013
31498W        W46629   0.737  16.117   5.508 -0.3143 -0.0011 -0.1297
31499W        W46630  17.220  17.557   4.338  0.2097  0.0653  0.0604
31500W        W46631  15.026   8.854  11.426  0.0748 -0.2415  0.0852
31501W        W46632  11.926   2.222   4.096  0.0240 -0.0237 -0.2836
31502W        W46633   7.149  10.148  16.734 -0.2134  0.1142  0.0085
31503W        W46634  12.055  15.277   0.742 -0.2863  0.1045 -0.2242
31504W        W46635   0.270  11.112   3.141 -0.1391 -0.0122  0.1107
31505W        W46636   7.349  15.217  12.092  0.1681 -0.2163  0.0056
31506W        W46637  13.658   1.971  15.825  0.0324 -0.0351 -0.2656
31507W        W46638  15.201  17.735  13.965  0.1061  0.0937  0.1719
31508W        W46639  17.194   7.826  13.909 -0.2903 -0.0647 -0.1353
31509W        W46640   2.056   3.325  14.375  0.0011  0.0691 -0.0689
31510W        W46641   8.062   5.306  16.774 -0.0667  0.0072  0.0090
31511W        W46642   0.545  12.352  11.252  0.1074 -0.0668 -0.0818
31512W        W46643  16.085   7.722   3.299  0.0768 -0.2025  0.2251
31513W        W46644  15.741   8.996   2.160  0.2101 -0.1217 -0.1640
31514W        W46645   4.230   2.612  15.719 -0.2547  0.1431 -0.0270
31515W        W46646   1.224   1.370   2.930  0.3971  0.3396 -0.0729
31516W        W46647   5.999   0.744  11.957 -0.1163 -0.0442  0.1557
31517W        W46648   1.495   7.798  15.624 -0.1704  0.1468  0.0082
31518W        W46649   1.572   1.289  12.717  0.0594  0.2251  0.0289
31519W        W46650  14.390   2.541   0.491  0.1285  0.1707 -0.2078
31520W        W46651   6.572   1.184   1.407 -0.0291  0.0227 -0.1211
31521W        W46652  10.019   4.049  11.940  0.0728  0.3569 -0.2072
31522W        W46653  12.813   6.453  12.291  0.0697 -0.0391 -0.0275
31523W        W46654   2.811   6.668   1.911 -0.0287  0.1955 -0.0587
31524W        W46655   8.575   8.753  15.697  0.0742 -0.2114 -0.0203
31525W        W46656   1.280   7.561   3.924 -0.0752 -0.0254  0.1621
31526W        W46657   4.401  10.123   0.592  0.2131 -0.1174  0.2655
31527W        W46658  15.400   4.042  14.934 -0.3372 -0.0818 -0.2030
31528W        W46659  10.075   9.806  16.614  0.2395  0.1033  0.2066
31529W        W46660   0.789  15.616  15.266 -0.2726 -0.1385  0.1373
31530W        W46661   2.167   6.163  14.262 -0.1238 -0.1051  0.1715
31531W        W46662  11.425  16.852  14.555 -0.1659  0.2137  0.1262
31532W        W46663  14.867   3.829  14.162 -0.1175 -0.0036  0.2573
31533W        W46664   5.432   1.348   5.146 -0.0106 -0.0128  0.4222
31534W        W46665   4.768   1.979   5.066  0.3271 -0.0498  0.3070
31535W        W46666  14.633   9.395  16.744 -0.0111 -0.0516  0.1202
31536W        W46667  15.665   5.828   2.103  0.0270  0.1820 -0.0903
31537W        W46668   3.770   4.011  13.320 -0.2023 -0.3583  0.0814
31538W        W46669  15.970   1.700   3.189 -0.2646  0.2565 -0.3939
31539W        W46670  14.621   3.842   0.941  0.4415  0.3432  0.0866
31540W        W46671   8.163   1.264   3.326 -0.1112  0.0357 -0.2643
31541W        W46672  12.838   3.365  15.746 -0.0190 -0.0273 -0.0276
31542W        W46673  10.837   1.533   3.058 -0.2202  0.1982  0.1923
31543W        W46674   3.961   8.184   3.608  0.3220 -0.0093 -0.1120
31544W        W46675  10.188  14.187   4.008 -0.0513 -0.4710  0.0484
31545W        W46676   2.693  14.859  11.705 -0.2181 -0.0074 -0.0052
31546W        W46677  16.233   2.494  13.686  0.1085 -0.1602  0.3483
31547W        W46678   1.550  14.405   4.815  0.1475  0.0185 -0.1173
31548W        W46679  12.642  10.380   6.209  0.1615 -0.5382  0.1469
31549W        W46680   1.002  12.578   4.743 -0.1668  0.1184  0.0076
31550W        W46681   4.602   7.791   0.394  0.1247  0.0633  0.2397
31551W        W46682   5.409   4.020   3.777 -0.0610  0.2731 -0.2237
31552W        W46683   6.436  11.718   5.112 -0.1149  0.0691 -0.2347
31553W        W46684  16.530   4.805   2.555 -0.0706  0.3785 -0.0671
31554W        W46685  17.441  15.412   5.027 -0.1689  0.1824 -0.0644
31555W        W46686  14.011  11.309  11.380  0.1986  0.0947 -0.0545
31556W        W46687   5.078   5.340   3.857 -0.0958 -0.1434  0.1611
31557W        W46688  10.477   9.988   1.955  0.0965 -0.0724  0.2116
31558W        W46689  12.089   3.844  12.792  0.0223 -0.2212  0.1520
31559W        W46690   9.222   5.950   2.352  0.1423  0.0454  0.1945
31560W        W46691  14.896   3.412  15.405 -0.0070  0.0063  0.2675
31561W        W46692  11.801   7.082  12.696  0.1991 -0.1979 -0.2844
31562W        W46693  11.991  13.428   5.728  0.5009  0.0548 -0.0098
31563W        W46694  14.623  13.100   5.194  0.0788  0.0821 -0.1252
31564W        W46695  15.440   0.315  13.743  0.0110 -0.0681 -0.0340
31565W        W46696  17.872  10.845  12.368  0.0331 -0.3693  0.1695
31566W        W46697  12.924  12.584  16.244 -0.1359  0.3582 -0.0125
31567W        W46698   9.642   1.113  14.858  0.0842  0.0213  0.0879
31568W        W46699   7.973   4.169  12.207 -0.2116 -0.0003  0.0457
31569W        W46700  14.058  16.159   4.448  0.1115 -0.0300  0.3416
31570W        W46701  17.339   0.928   1.555  0.0296 -0.0826  0.1320
31571W        W46702   0.524   2.306   1.968  0.1182  0.1824  0.2048
31572W        W46703  15.683  15.821  12.509 -0.1714  0.1346  0.2110
31573W        W46704  12.347   2.592  14.349 -0.1095  0.2078  0.2957
31574W        W46705   1.957  11.248  15.480  0.0004  0.1207  0.0043
31575W        W46706   7.536   3.233  14.145  0.1527 -0.1772  0.1786
31576W        W46707   2.486   4.435  14.600 -0.2266 -0.1117  0.3951
31577W        W46708   8.814   3.495   2.247  0.0053 -0.1043 -0.0092
31578W        W46709   2.133  17.423   2.198  0.0893 -0.0108 -0.1238
31579W        W46710   6.951  11.657  12.738  0.0432  0.1058  0.0910
31580W        W46711   8.135  12.106   1.252 -0.0785  0.0754 -0.0165
31581W        W46712  17.171   7.386  11.255  0.2141  0.1517 -0.2872
31582W        W46713   1.672  14.086   0.247  0.0965 -0.1949 -0.0865
31583W        W46714   1.055  15.874   5.961  0.2583 -0.1376  0.0786
31584W        W46715  14.644   2.871  12.530  0.2417 -0.0081  0.2169
31585W        W46716  17.439  15.226   5.615 -0.0252  0.3314 -0.3253
31586W        W46717  17.704   9.882  14.973 -0.0744  0.3357  0.2873
31587W        W46718  12.540   6.676   6.303 -0.1796  0.0561 -0.4281
31588W        W46719  11.423  15.196  14.047  0.1677  0.0479  0.1078
31589W        W46720   9.338   4.797  13.254 -0.2601 -0.2044 -0.1459
31590W        W46721   4.270   4.581   0.784  0.1332  0.0961 -0.1249
31591W        W46722  15.679  17.590   3.764  0.1303  0.3817 -0.1591
31592W        W46723  10.664   8.580  11.757  0.0400  0.2605  0.1882
31593W        W46724  10.046  13.667   4.637 -0.2440 -0.1004  0.2060
31594W        W46725   0.677  17.172   2.874  0.0923  0.0362  0.1000
31595W        W46726   5.393  15.394  12.946 -0.2381 -0.1596  0.1165
31596W        W46727  14.789   5.039   5.124 -0.0031  0.1482 -0.2346
31597W        W46728   5.579  10.432  14.628 -0.0228  0.1365 -0.0320
31598W        W46729  12.481  15.442  10.405 -0.0333 -0.0487 -0.0137
31599W        W46730   1.397  10.673  10.650 -0.0933  0.2109 -0.1022
31600W        W46731   4.312  11.390  15.228  0.0237 -0.1020 -0.0460
31601W        W46732  11.674  16.584   1.693 -0.2097  0.3083 -0.1217
31602W        W46733  14.796  15.296  16.458  0.0619  0.3924 -0.0204
31603W        W46734  11.218   6.190   3.918  0.1180  0.1309  0.0206
31604W        W46735   0.961  12.578  12.694  0.1086 -0.0870  0.1441
31605W        W46736   6.781   4.357  12.230  0.3236 -0.2083  0.4137
31606W        W46737  10.617  10.839  15.751  0.0524  0.1022 -0.1990
31607W        W46738   4.769   5.086   1.304 -0.3509 -0.2424  0.1176
31608W        W46739   7.650   6.076   0.267 -0.1552 -0.0181  0.0130
31609W        W46740  17.245  11.579   3.705  0.3839  0.1772  0.0929
31610W        W46741  11.862  17.838  12.834  0.0993  0.1609 -0.1678
31611W        W46742   1.043   5.710   3.078 -0.3870 -0.1789 -0.1242
31612W        W46743   1.436  12.923   2.995  0.0726 -0.0461 -0.3420
31613W        W46744  11.765  14.677   5.340 -0.0907 -0.1228 -0.1244
31614W        W46745  13.801  11.710  13.354  0.0546 -0.0250 -0.1352
31615W        W46746  16.306  14.329   5.176  0.0154 -0.1840  0.0591
31616W        W46747   1.873   0.136   1.784 -0.1384 -0.3027  0.3038
31617W        W46748   9.789   0.313  15.720  0.2215  0.2373 -0.0983
31618W        W46749   6.145   5.738   0.373 -0.0001 -0.1031  0.0165
31619W        W46750  17.076   3.356  16.090 -0.1680 -0.0632  0.1822
31620W        W46751   1.792   6.645   1.444  0.0562 -0.1101 -0.0556
31621W        W46752   6.212   7.414  13.099  0.1766 -0.2350  0.0302
31622W        W46753  14.883   4.212  11.624 -0.0836 -0.0950 -0.2634
31623W        W46754   0.682  14.487   0.952 -0.0663  0.0699  0.0784
31624W        W46755   5.074   4.766  16.281  0.0376 -0.0806  0.1916
31625W        W46756   5.705   6.899   1.615 -0.2613 -0.3112  0.2714
31626W        W46757   2.639  16.809  13.212  0.1671  0.1415 -0.4753
31627W        W46758  10.337  17.638  14.008 -0.2169 -0.0334  0.2436
31628W        W46759  14.177  12.289  11.654 -0.2293 -0.0273  0.1795
31629W        W46760   1.519   6.437  11.721 -0.1225  0.1602  0.2424
31630W        W46761  10.186  17.823  10.491  0.2515  0.2467 -0.1248
31631W        W46762  16.926  12.767  16.582 -0.4816  0.0117 -0.0904
31632W        W46763  17.299   9.756   1.096 -0.1195  0.1985 -0.0972
31633W        W46764   4.774   9.586   4.667  0.0590 -0.1707 -0.0506
31634W        W46765   6.260   5.055  13.504  0.2437 -0.1127 -0.2198
31635W        W46766  10.237  14.817  13.354 -0.0920 -0.2720 -0.4640
31636W        W46767   9.040  11.532  14.194  0.0641 -0.3105 -0.0556
31637W        W46768   0.530   0.755   2.820 -0.2642  0.1084  0.3175
31638W        W46769  13.346   3.980  12.012  0.0386  0.1752  0.0976
31639W        W46770   2.953   3.884  13.836 -0.1050  0.5902  0.2713
31640W        W46771   1.994   8.834   0.274 -0.1365 -0.1570 -0.0330
31641W        W46772   2.014  16.588   3.730 -0.0017 -0.1965 -0.2577
31642W        W46773   4.484   8.526   3.012  0.1857  0.1302 -0.1839
31643W        W46774  13.196   1.733   2.271 -0.3855 -0.3708  0.1408
31644W        W46775  11.242   7.463   3.728 -0.2015 -0.0892 -0.0585
31645W        W46776   2.018   0.654  15.112 -0.1847 -0.1761  0.1368
31646W        W46777   2.970  10.707   3.855 -0.0052  0.0850  0.0423
31647W        W46778   0.177  16.632   0.388 -0.3321 -0.0219 -0.0558
31648W        W46779   1.390   8.936   2.000  0.0340  0.2544 -0.2058
31649W        W46780   1.021   8.099  12.972 -0.0549 -0.3622  0.0711
31650W        W46781  11.468   4.620  13.864  0.0865  0.1965  0.3674
31651W        W46782  12.313  10.254  13.939  0.1324  0.0838  0.0094
31652W        W46783  16.415  15.751  14.807  0.2617 -0.0187  0.0628
31653W        W46784  14.428   8.298   3.632 -0.1543 -0.1404 -0.3759
31654W        W46785  15.197   8.323   3.460  0.3131 -0.3037 -0.0076
31655W        W46786  10.461   3.616  12.886  0.0301 -0.1532 -0.0739
31656W        W46787   7.435  14.930  10.864  0.2531  0.0191 -0.3295
31657W        W46788   9.678   2.219   0.177  0.1918 -0.3164 -0.1090
31658W        W46789   8.278   9.317  16.035  0.1367  0.0801  0.1208
31659W        W46790   1.581   1.011   3.741  0.1778 -0.1347  0.1050
31660W        W46791   0.871   5.557  15.464 -0.0232  0.1290  0.3142
31661W        W46792  16.507   7.200  15.478 -0.0751 -0.0383 -0.1181
31662W        W46793   3.772  10.002  11.452 -0.2992  0.0813  0.1842
31663W        W46794  13.066   6.274   1.068  0.3115 -0.2436 -0.2621
31664W        W46795   0.471   4.849  14.037 -0.3541 -0.0479 -0.0380
31665W        W46796   5.546  10.452  14.103  0.2999  0.0149  0.2088
31666W        W46797  11.700   8.868   0.420 -0.0178  0.0188  0.1407
31667W        W46798   7.697   0.702   3.661  0.3948  0.3599 -0.1572
31668W        W46799   2.816  11.863   2.218 -0.0674 -0.0432 -0.0087
31669W        W46800   2.964  13.644   5.700  0.2311  0.2830  0.2996
31670W        W46801  15.662   9.450   2.379 -0.1191 -0.0312  0.1370
31671W        W46802   2.766   6.230  16.638 -0.1950 -0.1171  0.0371
31672W        W46803   8.320   2.487  13.144 -0.2230  0.1921  0.1880
31673W        W46804   0.596   1.019  13.606  0.0384  0.0369 -0.2695
31674W        W46805   1.130   7.859   5.696  0.0903  0.0622  0.0147
31675W        W46806  13.262  17.369  13.989  0.2587 -0.2009  0.0797
31676W        W46807  13.753  13.208  16.453 -0.0782  0.2425 -0.1864
31677W        W46808  12.528  12.316  13.073  0.3532 -0.0828 -0.1281
31678W        W46809   4.475  11.152   3.960  0.4144 -0.0912  0.1447
31679W        W46810  13.789  17.484  11.604  0.0493  0.0816  0.1476
31680W        W46811  14.956  16.572  13.161 -0.1917  0.0118 -0.0740
31681W        W46812   8.216  16.284   4.467 -0.3597 -0.1935 -0.2768
31682W        W46813  13.853  11.685   4.413 -0.1595 -0.0032 -0.2201
31683W        W46814  17.412  14.056  15.157 -0.0636  0.5301 -0.3661
31684W        W46815   8.912   7.770  16.021 -0.1387 -0.1038  0.1692
31685W        W46816   1.573   9.113  15.386  0.0509 -0.1348 -0.0331
31686W        W46817   7.023   3.319  14.620  0.1275 -0.2706  0.3301
31687W        W46818  14.605  17.528  13.417 -0.2426 -0.0235 -0.0935
31688W        W46819  11.066   8.730  11.463 -0.0790  0.1381  0.2669
31689W        W46820  13.140  11.536   5.865 -0.2132  0.0758 -0.1893
31690W        W46821  12.256  16.149  16.061  0.0226 -0.0356 -0.4161
31691W        W46822  11.520   8.781   2.572 -0.0473 -0.2082 -0.1847
31692W        W46823  15.451   3.942   9.885 -0.1841  0.1939 -0.0042
31693W        W46824  16.411  16.260   0.608 -0.2216 -0.0116  0.0806
31694W        W46825  12.673  16.961   0.429  0.0688  0.1327  0.0287
31695W        W46826  13.578   0.314  16.038 -0.0848 -0.1047 -0.4197
31696W        W46827  16.031   5.993  11.344 -0.0234 -0.2619  0.2366
31697W        W46828  13.205  10.922   4.265 -0.0002  0.0081  0.1754
31698W        W46829   7.898  17.704  13.264  0.2096 -0.1227 -0.1893
31699W        W46830   8.848  10.101   0.201  0.0024  0.3098  0.1123
31700W        W46831   1.284   9.868  16.419 -0.1032  0.0245  0.0262
31701W        W46832  10.946  12.489  13.404 -0.1760 -0.1134 -0.1103
31702W        W46833   8.965   7.984  12.411  0.0823 -0.0355  0.0034
31703W        W46834   5.274  13.275  16.140  0.0678  0.0840  0.0775
31704W        W46835   4.614   8.101  11.860  0.2695 -0.0895  0.1155
31705W        W46836  15.658  17.191   5.684  0.1116  0.1777 -0.0254
31706W        W46837   8.513  14.045  15.331  0.0602 -0.2014 -0.1250
31707W        W46838  11.134  17.101   2.632  0.2131  0.2395  0.1943
31708W        W46839   7.805  14.723   0.225 -0.1521 -0.1187  0.1726
31709W        W46840   2.741  12.725   1.856 -0.0799  0.1813 -0.1079
31710W        W46841   4.328  10.888   2.620  0.0460 -0.0425 -0.2117
31711W        W46842  15.075  16.110   4.282 -0.0066 -0.2304  0.0531
31712W        W46843   7.896  15.977  16.575  0.1901 -0.1044 -0.1846
31713W        W46844  15.144  13.671  11.835  0.1070 -0.2194  0.1653
31714W        W46845  11.685   5.494   4.422  0.1549  0.3541 -0.4301
31715W        W46846   6.045  16.396  13.649  0.0897 -0.2873 -0.0352
31716W        W46847  12.374   4.333   4.986 -0.0746 -0.1792 -0.0735
31717W        W46848   8.238  15.180  11.452 -0.3724 -0.0700  0.2368
31718W        W46849  12.236   3.609   3.563  0.2340 -0.2728  0.1487
31719W        W46850   1.049  16.808   4.893 -0.1931  0.3388  0.0252
31720W        W46851  13.563   1.657   1.066 -0.0533 -0.0502 -0.0193
31721W        W46852   1.837  10.125   5.765  0.1121 -0.1534 -0.0454
31722W        W46853  16.336   8.530  11.125 -0.0635  0.1858 -0.0014
31723W        W46854  15.676   0.552  16.720  0.3653  0.0212  0.2364
31724W        W46855  13.920   1.145  14.276 -0.1230  0.0100  0.2390
31725W        W46856   7.648  15.147  15.916 -0.0750 -0.2581  0.2998
31726W        W46857   4.736   6.962   5.106  0.3518 -0.0101 -0.1393
31727W        W46858   2.942  12.731   5.408  0.0874  0.1764 -0.1386
31728W        W46859  17.415  15.844  14.899 -0.2925  0.2499  0.2626
31729W        W46860   7.210   2.713   3.798  0.0765  0.0743 -0.2901
31730W        W46861  16.504   0.482   6.118 -0.0775  0.0390  0.2442
31731W        W46862  12.865  15.581   0.381 -0.0736  0.2615  0.3166
31732W        W46863  16.426   3.145   3.550  0.1156  0.0871  0.1120
31733W        W46864  15.558  12.087   1.097  0.2911 -0.1357 -0.0781
31734W        W46865   9.197   0.473  14.502  0.0647  0.0421  0.0264
31735W        W46866  16.896  16.965   3.719  0.0053  0.2140 -0.0889
31736W        W46867  11.232   3.424  12.768 -0.2063  0.2041  0.0067
31737W        W46868   4.222   3.700   4.633  0.0638 -0.0681 -0.1838
31738W        W46869   4.219   4.014   5.502 -0.1866  0.0212  0.1643
31739W        W46870   0.928  13.593   0.435 -0.2475  0.2044  0.3906
31740W        W46871   1.857  13.734   1.891 -0.0254 -0.2376  0.1897
31741W        W46872   3.923   6.540  12.084 -0.1973 -0.0117 -0.3762
31742W        W46873  15.728  11.938  14.772 -0.2672 -0.1181  0.1496
31743W        W46874  10.785   4.562  13.201  0.0607 -0.0242 -0.0984
31744W        W46875   5.439   1.070  12.724  0.0133 -0.3147  0.3732
31745W        W46876   6.185   1.425   3.545  0.1641 -0.3411 -0.2470
31746W        W46877  15.782   4.386  16.578 -0.2072  0.0855 -0.1071
31747W        W46878   7.782  12.121  13.681 -0.1374 -0.1448 -0.2994
31748W        W46879   4.151   9.826   2.280  0.1015  0.2051 -0.4508
31749W        W46880   4.617   8.533   4.242 -0.1122 -0.1215 -0.4006
31750W        W46881  13.045   8.425   0.094  0.1102 -0.1688 -0.3984
31751W        W46882   5.933  15.482  12.739 -0.2304  0.0190 -0.1097
31752W        W46883   9.820   4.981  15.791 -0.2835  0.1697 -0.1763
31753W        W46884   9.242   6.055   0.278 -0.0942  0.1868 -0.4173
31754W        W46885   5.829  14.968  12.355  0.2241 -0.1757 -0.1415
31755W        W46886  13.241   3.668  13.456 -0.0358 -0.0195  0.3130
31756W        W46887   0.328   8.382  13.963 -0.0568 -0.1594 -0.2586
31757W        W46888   6.422  15.595   3.255 -0.1327 -0.0547 -0.0254
31758W        W46889  12.658   5.564  16.678  0.0046 -0.0891  0.0182
31759W        W46890   7.124   9.030  13.514 -0.1012 -0.3599 -0.0801
31760W        W46891  15.472   9.747   3.787  0.3682  0.0737  0.0896
31761W        W46892   1.172  16.320   5.671 -0.3975 -0.1282  0.0616
31762W        W46893  15.366   2.260   0.107  0.1576  0.0748  0.3960
31763W        W46894   8.970   1.854   1.520 -0.0030  0.1755  0.0215
31764W        W46895  16.829  10.639   2.311  0.1562 -0.1382  0.2370
31765W        W46896   6.519  13.142  12.384  0.2720 -0.1176  0.0247
31766W        W46897   3.770   1.824   3.520 -0.2363 -0.1425  0.0847
31767W        W46898  11.639   5.141  14.161 -0.1133 -0.0084  0.2396
31768W        W46899   4.870   0.431   1.208  0.1833 -0.0386 -0.1004
31769W        W46900  14.094  10.032   0.373 -0.1800 -0.1746 -0.3047
31770W        W46901   6.782  12.769   0.293 -0.0259 -0.0386  0.0351
31771W        W46902  16.205  16.823   5.022  0.2274  0.1954 -0.1459
31772W        W46903   1.820  14.876  16.283  0.1256 -0.1446  0.0698
31773W        W46904   6.729  10.143  14.630 -0.0801 -0.0914 -0.1553
31774W        W46905   4.712   3.400   2.860 -0.1816 -0.0187 -0.0421
31775W        W46906  14.608  14.282   3.911 -0.2815  0.4233  0.1094
31776W        W46907  16.783  10.722  14.391  0.0096 -0.2757 -0.0767
31777W        W46908  16.376  11.402   0.059  0.1035  0.3285 -0.0023
31778W        W46909  14.136   0.340   2.692  0.1410  0.0509 -0.1809
31779W        W46910  15.815  15.643   3.560  0.2420  0.0023 -0.1846
31780W        W46911  13.875  13.793  14.355 -0.0261  0.2905 -0.2713
31781W        W46912   1.836   5.004  12.216 -0.0387  0.0688  0.0407
31782W        W46913   9.766  10.862  10.707 -0.1499  0.1740 -0.0555
31783W        W46914   2.223  13.289  12.843  0.0698  0.3803  0.1867
31784W        W46915  13.230  13.633   1.458 -0.0296 -0.0066  0.0607
31785W        W46916   9.797   1.802  11.292  0.0878  0.0553 -0.0414
31786W        W46917  13.328   3.067   3.693 -0.0298  0.1936 -0.1059
31787W        W46918   8.881   5.506   5.441  0.0853 -0.0981  0.0789
31788W        W46919  16.322  17.413   4.031 -0.0943  0.1362  0.0308
31789W        W46920   4.448   3.229   0.877 -0.0442  0.2618  0.2667
31790W        W46921   4.273   4.710  16.565  0.2007 -0.4245  0.2403
31791W        W46922   7.243  15.934   5.300 -0.1652  0.2587  0.2658
31792W        W46923   3.729  16.022   3.376 -0.1298 -0.1017  0.2809
31793W        W46924   7.778  12.596  11.160  0.2935 -0.0405 -0.0391
31794W        W46925   8.389   5.770  11.821  0.0373  0.0625 -0.2604
31795W        W46926  16.758   0.537   2.069 -0.1218  0.1810 -0.1488
31796W        W46927  11.551  14.503   4.241 -0.0150  0.2870  0.2064
31797W        W46928  14.645   1.805  16.654 -0.0753 -0.4063 -0.2221
31798W        W46929  15.404   0.426  11.756  0.0626 -0.0325 -0.0325
31799W        W46930   0.457   5.007  12.069 -0.2326  0.1311  0.1246
31800W        W46931   0.674   3.340  13.019  0.1270 -0.2472  0.1552
31801W        W46932   2.899  14.863  15.231  0.1839  0.0447  0.1254
31802W        W46933   0.677   0.849  16.686 -0.1137 -0.1600  0.0846
31803W        W46934   6.229   5.959   1.541 -0.0251  0.0344 -0.1458
31804W        W46935  14.894  12.326  16.281  0.0354  0.2378  0.0119
31805W        W46936   2.875   1.133   1.614 -0.1310  0.2254  0.1716
31806W        W46937  14.826   5.218  16.357  0.0108  0.0074 -0.1047
31807W        W46938   6.755  13.751  16.104  0.2464 -0.2396 -0.1741
31808W        W46939   5.677   8.779  10.612  0.0036 -0.0040 -0.1806
31809W        W46940   9.511   1.308   2.126  0.2392  0.2969  0.0549
31810W        W46941  10.832   4.468   2.114  0.4762 -0.2882  0.0972
31811W        W46942   1.483   3.501  15.052 -0.3172  0.1517 -0.0141
31812W        W46943   9.360  10.881   0.509  0.0404  0.0813  0.1826
31813W        W46944  11.217  11.533   2.614  0.1229 -0.2260  0.2411
31814W        W46945   4.451  12.846   2.617  0.1786 -0.2110 -0.1097
31815W        W46946   0.746  14.966  12.609 -0.0677 -0.2629  0.4011
31816W        W46947  11.973  12.444  15.214  0.1796 -0.1606 -0.0088
31817W        W46948  11.941   8.965  11.973  0.2484  0.2671  0.2634
31818W        W46949   6.995  14.649   5.028 -0.1237 -0.1601  0.2529
31819W        W46950  15.110  16.524  16.115  0.0155 -0.2987  0.1439
31820W        W46951  14.434   9.569  11.761 -0.1368  0.1670  0.2174
31821W        W46952   0.655   9.133  11.489 -0.0131  0.1063 -0.0561
31822W        W46953  16.797   0.630   1.507 -0.1352 -0.1598  0.3797
31823W        W46954   7.278  15.441  13.800 -0.2123 -0.0253  0.3619
31824W        W46955   8.871   8.446  12.169 -0.0388  0.5784  0.4401
31825W        W46956   9.775   7.277  13.629  0.0630 -0.0672  0.1299
31826W        W46957   4.668   7.558  12.044  0.1419 -0.1558  0.1983
31827W        W46958   2.214   9.303   5.791 -0.0263  0.2841  0.1584
31828W        W46959  14.812  10.415   5.190  0.0342 -0.0887  0.3276
31829W        W46960   5.785   3.373  14.089 -0.1318  0.0984  0.0083
31830W        W46961   8.734   1.007   5.147 -0.1510  0.0278 -0.1085
31831W        W46962   3.768   7.594  15.546  0.0095 -0.1204 -0.1168
31832W        W46963   5.829   6.268  14.491 -0.1552 -0.1037 -0.1113
31833W        W46964  13.780  11.004   3.958 -0.2953  0.0499  0.0278
31834W        W46965  13.277   4.545   4.268 -0.0008  0.2225 -0.0977
31835W        W46966  16.530  13.586   3.165  0.1783  0.1469 -0.1937
31836W        W46967   1.145  16.191   3.721  0.0215  0.2221  0.2123
31837W        W46968  11.973   6.568   0.276 -0.1477  0.1031  0.2255
31838W        W46969  16.078  14.641   0.752 -0.2503 -0.1144  0.1807
31839W        W46970  14.931  15.242  13.900  0.0093 -0.1635  0.2835
31840W        W46971   2.817  16.725   2.137 -0.1857 -0.3163  0.1467
31841W        W46972   9.562  16.996  15.953 -0.0483 -0.3527 -0.0986
31842W        W46973  16.147  13.021  11.181  0.1266 -0.4270 -0.1280
31843W        W46974   1.466   6.144   2.239 -0.0344 -0.1163 -0.3045
31844W        W46975  11.593   3.039   5.323  0.1621 -0.2385  0.2178
31845W        W46976   0.972  10.340   6.086  0.0867  0.1035  0.0761
31846W        W46977  14.264   5.052   3.081 -0.4870 -0.1637  0.1270
31847W        W46978  14.067   8.032  12.418 -0.0445  0.0914 -0.1218
31848W        W46979  12.476  10.967  15.349  0.3348  0.1548 -0.0410
31849W        W46980   2.225  12.046  15.242  0.3171 -0.0714  0.1166
31850W        W46981   8.477   5.248   5.108  0.1615 -0.2095  0.2921
31851W        W46982   1.880   7.559  15.915  0.1630  0.0203 -0.0333
31852W        W46983  12.524   4.463  12.431 -0.1957 -0.0129  0.0567
31853W        W46984   1.525   2.117   2.866 -0.0279  0.1498 -0.2648
31854W        W46985   9.673  14.106   6.208 -0.0619 -0.1118  0.3483
31855W        W46986  16.955   7.961  12.783  0.1176  0.1167  0.1106
31856W        W46987   7.559  10.396   2.111  0.0874  0.0318 -0.0607
31857W        W46988   0.217  13.631  11.336  0.0188 -0.0240  0.1134
31858W        W46989  11.658  17.855  16.629  0.0862 -0.0319 -0.2522
31859W        W46990   3.366   6.565  12.919 -0.2331  0.0067 -0.0088
31860W        W46991   0.329   7.370   4.980  0.0203 -0.0275  0.0837
31861W        W46992  13.511  11.884  11.017  0.2022  0.1700 -0.0610
31862W        W46993   8.823   8.587   5.937 -0.1268 -0.3793  0.2245
31863W        W46994  17.717  10.836   2.739  0.0890  0.1551  0.1941
31864W        W46995  17.505  10.664   4.102 -0.1529  0.0687 -0.4085
31865W        W46996   3.128   6.516  12.419  0.1064 -0.0969  0.1892
31866W        W46997  12.647   3.673   3.864  0.2482  0.0136 -0.2109
31867W        W46998   2.467   2.477   5.061  0.0925 -0.1864 -0.0583
31868W        W46999   3.026  17.388   4.411  0.1958  0.2499 -0.2052
31869W        W47000  16.733  16.229   2.564  0.0362 -0.2333 -0.0305
31870W        W47001  10.721  15.729  11.261  0.1122 -0.1426  0.3453
31871W        W47002   4.679   4.853   2.691 -0.2368 -0.0596 -0.0742
31872W        W47003  17.697   8.791  16.436 -0.1011  0.0852 -0.3596
31873W        W47004   6.985  16.028   2.790 -0.0018 -0.2566 -0.0679
31874W        W47005   5.161  16.096   5.913 -0.2804  0.1405  0.3763
31875W        W47006  12.012   9.560   5.242  0.3854  0.1840  0.2421
31876W        W47007  15.809   7.491  11.444  0.0854  0.0235  0.2593
31877W        W47008  10.961  13.929   5.054  0.0379 -0.2809 -0.2321
31878W        W47009   4.748  11.831   5.880 -0.0256  0.2462 -0.1282
31879W        W47010   3.657   7.191  15.830 -0.3693  0.0506 -0.0524
31880W        W47011  13.892   4.714   3.027 -0.2446 -0.0393 -0.3015
31881W        W47012  11.446  14.845   4.578  0.0870  0.1834 -0.0948
31882W        W47013  12.947  15.009  15.513 -0.1263 -0.1961 -0.0527
31883W        W47014  16.701  11.269  14.303 -0.0543  0.0478 -0.2228
31884W        W47015   9.809  13.399  10.981 -0.2014  0.0138 -0.1052
31885W        W47016  13.632   1.099   4.734 -0.2428  0.2425  0.0473
31886W        W47017   8.050  10.644   0.965 -0.1487  0.1933 -0.1146
31887W        W47018   0.950  10.706  12.306  0.1668 -0.0233 -0.2535
31888W        W47019  14.722   2.415   5.704 -0.1319 -0.1539 -0.1626
31889W        W47020   1.040   0.159   1.130 -0.0329  0.0106  0.1187
31890W        W47021   8.720  14.567   4.533  0.0273  0.0150  0.1931
31891W        W47022   5.546   4.751  14.479 -0.1203 -0.2016 -0.3681
31892W        W47023   9.430   3.812  12.405  0.2817 -0.1845 -0.1430
31893W        W47024  16.744  16.875  13.701 -0.0895  0.0105  0.0693
31894W        W47025  15.869  15.252  13.999  0.3806 -0.1847 -0.0305
31895W        W47026   1.219   5.622  12.186 -0.0296  0.0583 -0.1992
31896W        W47027   9.523  15.026   4.160 -0.0868 -0.0391  0.2609
31897W        W47028   1.358  10.580   3.745 -0.1259 -0.2705  0.0748
31898W        W47029   2.449   4.217   4.422 -0.0526  0.0791  0.0319
31899W        W47030   2.148   2.729  14.272  0.2609 -0.1320  0.4076
31900W        W47031   6.822   7.928  12.797 -0.0017 -0.2873 -0.3104
31901W        W47032   5.630   2.889   1.620 -0.1683 -0.0017  0.0961
31902W        W47033  17.816  12.654  13.312 -0.0966 -0.1607 -0.0708
31903W        W47034  11.789   8.645  13.454  0.2313  0.0417  0.1038
31904W        W47035  15.773   8.268   0.919  0.1200 -0.1010 -0.0585
31905W        W47036   1.709   5.321   3.207 -0.0420  0.0252  0.1208
31906W        W47037  15.221  14.157  11.130  0.0824  0.0546 -0.1053
31907W        W47038   7.379   3.481  13.645 -0.0688  0.0606 -0.0362
31908W        W47039  15.256  15.262  16.654 -0.0705 -0.1224 -0.1393
31909W        W47040  14.823  16.088   0.865  0.2146 -0.0105 -0.1911
31910W        W47041  15.535   4.864   3.063 -0.0353  0.2501  0.1627
31911W        W47042   0.640  11.822   6.400  0.0923  0.0138 -0.0544
31912W        W47043   0.601  13.199  12.998 -0.0420  0.3373 -0.2079
31913W        W47044  13.338  15.765  12.489  0.1524  0.1548 -0.1278
31914W        W47045  10.619   1.315  16.159 -0.0490  0.0730  0.0757
31915W        W47046  15.606   9.973  11.162  0.2770 -0.2497  0.0123
31916W        W47047   8.244   8.458  14.485 -0.0558 -0.0108 -0.1597
31917W        W47048   3.283  11.718   2.436  0.0024  0.1578  0.0360
31918W        W47049  17.259   3.487  13.728  0.1686  0.2229  0.0791
31919W        W47050   3.043  16.555  13.432 -0.3562  0.1286 -0.0776
31920W        W47051  12.492  16.650  16.218 -0.2801  0.1525 -0.1853
31921W        W47052   2.496  11.408  11.186 -0.2173 -0.1645 -0.3116
31922W        W47053  10.255   7.196   2.213  0.0610 -0.0624 -0.0099
31923W        W47054  13.913  15.867   2.759  0.1783 -0.1671  0.0671
31924W        W47055   9.511   8.752  16.197  0.0385  0.2034 -0.0922
31925W        W47056  16.395  14.488  16.530 -0.0788 -0.1408  0.1832
31926W        W47057   8.094   2.559   2.602 -0.1698 -0.3354 -0.0309
31927W        W47058   0.755   4.709   3.366  0.0131  0.2223 -0.3900
31928W        W47059   8.842  15.585   2.247 -0.2681  0.1728 -0.1066
31929W        W47060   6.722  12.400  14.869  0.2488 -0.2247 -0.1379
31930W        W47061  14.258  15.289   3.468  0.1144  0.0378 -0.2599
31931W        W47062  12.537  12.984   2.181 -0.0469  0.2129 -0.1807
31932W        W47063  15.338   2.568  15.664  0.1395  0.1227 -0.1562
31933W        W47064  17.642  13.633   5.279  0.0753  0.0834 -0.2157
31934W        W47065  16.666  14.634  15.008 -0.2817 -0.1102  0.0897
31935W        W47066  17.726  15.631   5.709  0.1017 -0.2142 -0.1313
31936W        W47067  12.141   3.570   1.324  0.1141 -0.1748 -0.1659
31937W        W47068   2.297   6.591  12.907 -0.4471 -0.2157  0.1961
31938W        W47069   4.915   1.241   3.019  0.1270 -0.2078 -0.0897
31939W        W47070  12.469   3.559  15.465 -0.2214  0.0242 -0.0867
31940W        W47071  11.087  16.866   3.976 -0.1042  0.0758 -0.1142
31941W        W47072  15.403  13.835  12.542 -0.1411  0.3892  0.0426
31942W        W47073   0.257   6.936   3.497  0.2888 -0.0989  0.0581
31943W        W47074   4.979   4.079  12.795 -0.0470 -0.1092  0.1668
31944W        W47075   6.291  13.927  11.602 -0.0869  0.2972 -0.1725
31945W        W47076  14.549   5.878  11.287  0.0508 -0.2028 -0.0389
31946W        W47077   0.811  17.297   4.014  0.1059  0.2877 -0.2947
31947W        W47078  12.595   3.070  11.260 -0.1224  0.0294 -0.2074
31948W        W47079   8.682   9.328  13.918 -0.1501 -0.2254 -0.1184
31949W        W47080   5.803   2.209   1.259 -0.2438  0.2117 -0.3842
31950W        W47081  10.767  16.789   0.764  0.2679 -0.0278 -0.2505
31951W        W47082  17.848  17.449  15.097 -0.3858 -0.2625  0.1075
31952W        W47083   3.716  11.432  14.459  0.1024 -0.2003  0.1060
31953W        W47084  11.521   8.116  13.444 -0.1535 -0.2124 -0.1244
31954W        W47085   6.033   5.899   5.320 -0.1743  0.0494 -0.0890
31955W        W47086   3.991  10.446  12.470  0.1113  0.2420 -0.0259
31956W        W47087  14.085   3.300  14.816 -0.0662 -0.0244  0.0206
31957W        W47088  16.250   0.214  16.329  0.1709 -0.0386 -0.0528
31958W        W47089  17.392   5.846   4.750  0.1138 -0.1277 -0.1149
31959W        W47090   2.421   7.531   3.599 -0.1618  0.3571  0.0433
31960W        W47091   4.597   5.552   5.307 -0.0398 -0.0419  0.2086
31961W        W47092  16.332  17.335  12.085  0.0062 -0.1614  0.2530
31962W        W47093  10.128   8.930  12.903 -0.0072  0.0809  0.0522
31963W        W47094  12.230   5.358   1.637  0.1888  0.3020 -0.1219
31964W        W47095  10.877   9.216   5.582  0.2144 -0.2087 -0.0771
31965W        W47096  11.826  14.074   3.997 -0.0584 -0.2595  0.2204
31966W        W47097   4.920   6.625  15.630  0.0596 -0.2271 -0.0510
31967W        W47098   1.821  10.986   1.293 -0.1385 -0.0136 -0.1464
31968W        W47099   2.178   9.583   1.862 -0.0835  0.0139  0.0512
31969W        W47100  11.234  12.210  14.141 -0.2044  0.0279  0.3487
31970W        W47101   8.145  10.498  15.616 -0.1742 -0.1066  0.3201
31971W        W47102  10.892   1.452  11.439  0.1455  0.1563 -0.2323
31972W        W47103   8.418   7.976  15.909 -0.1386  0.1840 -0.1957
31973W        W47104  10.933  17.109   4.429  0.0519  0.0503 -0.1617
31974W        W47105  10.629  15.646  14.583  0.0649  0.3868 -0.1714
31975W        W47106   8.383   4.900  12.672 -0.0152  0.2666 -0.0448
31976W        W47107  12.803   9.780  14.512 -0.1066  0.0613  0.1573
31977W        W47108   2.328  10.942   0.859  0.4147  0.0178  0.1446
31978W        W47109   3.114   6.084  12.849  0.2717  0.0742  0.2416
31979W        W47110  12.597  10.977  11.620  0.2478  0.1388 -0.0084
31980W        W47111   6.401   2.313   4.098 -0.0049  0.2513 -0.3441
31981W        W47112  17.064  15.275  16.527  0.0824 -0.1538 -0.0213
31982W        W47113   7.166   5.030  14.903  0.0866  0.1411 -0.2047
31983W        W47114   4.883  12.671  14.041  0.2038 -0.1683  0.1835
31984W        W47115   9.959   7.575   3.538 -0.2389 -0.1512  0.0398
31985W        W47116  11.858   5.455   1.328 -0.1171 -0.0630  0.0542
31986W        W47117  14.280   4.543   4.434  0.0051  0.1595  0.1482
31987W        W47118   1.553  14.922   4.019 -0.0469 -0.2069 -0.1309
31988W        W47119   3.649   6.282  15.183 -0.2393 -0.0337 -0.0152
31989W        W47120   9.844   7.341  14.537  0.0181  0.0455  0.2870
31990W        W47121  11.727   7.148   3.062  0.1605 -0.0062  0.2213
31991W        W47122   4.756  17.800   5.170 -0.1858 -0.0390 -0.1241
31992W        W47123   5.986   3.186  16.040  0.1788  0.0371 -0.1843
31993W        W47124   1.658  12.679  14.211  0.0287  0.0216 -0.2005
31994W        W47125  12.189   8.659   1.662 -0.0482 -0.1271  0.1081
31995W        W47126   7.272   9.809   2.484 -0.0702 -0.0485  0.0540
31996W        W47127  10.321   0.828   1.618 -0.0388  0.5049 -0.0396
31997W        W47128   7.119  13.417  15.855  0.0418  0.0823  0.0534
31998W        W47129  10.609   6.180   3.406 -0.1498  0.0504  0.1940
31999W        W47130   0.804  17.714  15.675 -0.2002 -0.2126  0.2964
32000W        W47131   6.327   2.163   0.376 -0.0763  0.1079  0.0404
32001W        W47132   4.424  13.263  16.417  0.2048  0.1158  0.1472
32002W        W47133  14.671   3.261   1.800  0.2100 -0.1935 -0.1940
32003W        W47134   6.602   1.138   6.130  0.0207  0.1238  0.1935
32004W        W47135   5.627  15.698   4.281 -0.0075  0.2740 -0.0523
32005W        W47136  11.376  14.538  15.879  0.0523 -0.2096 -0.0391
32006W        W47137   3.556   5.108   4.924  0.1233 -0.1432  0.0835
32007W        W47138   6.685   7.875  13.661 -0.0438 -0.0748  0.2994
32008W        W47139   5.798   5.879  15.802  0.0217  0.0891  0.0195
32009W        W47140  16.583   2.786  15.435 -0.2298  0.0807 -0.0103
32010W        W47141   6.729   6.422   0.585  0.0848  0.1082  0.0617
32011W        W47142   9.975  14.539   3.553  0.0726  0.1238 -0.2009
32012W        W47143  15.879   3.379  11.943  0.0147 -0.1565 -0.0550
32013W        W47144  10.751  14.565   1.400 -0.2443 -0.1312 -0.3183
32014W        W47145  15.633  10.936  12.686 -0.2337  0.4573  0.0343
32015W        W47146  14.685  17.392  12.716  0.3824  0.0422 -0.1083
32016W        W47147  11.494   2.295   2.284  0.0919 -0.1569  0.0478
32017W        W47148  14.007   2.071   4.886  0.0004  0.0910 -0.1859
32018W        W47149   1.349  11.819  12.860 -0.0204  0.0965 -0.0845
32019W        W47150   2.340   3.440  11.728 -0.2697 -0.0954  0.1987
32020W        W47151   5.593  12.826  12.940 -0.1699  0.0962 -0.0739
32021W        W47152  12.431  14.616  12.668 -0.1598 -0.2864  0.2398
32022W        W47153   4.254  13.781  14.159 -0.3027 -0.2649  0.0495
32023W        W47154  12.821   0.917   2.644 -0.0441  0.1007 -0.1149
32024W        W47155   1.522  13.483   5.094  0.1792  0.1064  0.2641
32025W        W47156   8.469   1.331  15.343 -0.1699 -0.1579 -0.4061
32026W        W47157   5.288   6.895  12.917  0.4772 -0.1333 -0.0134
32027W        W47158  16.789   2.921  16.740 -0.1767 -0.0093 -0.2189
32028W        W47159  17.834   5.586  13.479  0.1277 -0.1535  0.1537
32029W        W47160   1.663   5.624  11.355  0.0349 -0.1498 -0.1694
32030W        W47161  15.893  13.173  12.832 -0.1388  0.4799  0.0476
32031W        W47162   0.743   0.112   2.516 -0.0098 -0.0199 -0.0544
32032W        W47163  10.619   2.891   4.472  0.1703 -0.1893  0.0544
32033W        W47164   3.977  14.101  13.259  0.0890 -0.1937 -0.1107
32034W        W47165   1.994   5.674   3.382 -0.4477 -0.1734  0.5109
32035W        W47166  17.500  12.727  15.735 -0.0362  0.5217  0.2947
32036W        W47167  13.541  15.015   3.399  0.0062  0.0275  0.2166
32037W        W47168   6.410   5.746  15.869 -0.0428  0.0116  0.0159
32038W        W47169  15.618   8.736   0.617  0.2171 -0.0216 -0.4979
32039W        W47170  15.323   9.082   1.354  0.2652  0.0631  0.1039
32040W        W47171   2.349   0.169   1.603 -0.0618  0.0349  0.1673
32041W        W47172   9.852   5.488  16.642  0.0495  0.0325  0.1820
32042W        W47173   8.994   3.071   5.591 -0.0078 -0.1948 -0.0921
32043W        W47174  10.230  15.169  15.756 -0.1820  0.1035  0.1336
32044W        W47175  11.576   9.852  15.755  0.1171  0.2790  0.0280
32045W        W47176   3.489   5.652  12.317  0.0090  0.0634  0.1092
32046W        W47177  10.188  17.634   0.337  0.0121  0.3367  0.0769
32047W        W47178   3.778   3.528   2.705  0.0062 -0.5365 -0.0964
32048W        W47179  11.384   9.570  14.528  0.1421 -0.0070  0.0875
32049W        W47180   5.038   8.214  13.038 -0.3916 -0.1090  0.0637
32050W        W47181  16.850   4.478  15.933 -0.0767  0.0315 -0.0320
32051W        W47182  15.799  12.682   5.874 -0.1240  0.2561  0.1332
32052W        W47183  12.448   9.155   4.604  0.4386 -0.0433 -0.0952
32053W        W47184  11.630  13.600   3.017  0.2271 -0.0217 -0.1744
32054W        W47185  16.883   0.469   3.777  0.0481  0.0983  0.1693
32055W        W47186  15.348  14.872  14.606 -0.1802 -0.2274  0.1906
32056W        W47187   2.847   1.928  14.876  0.0195 -0.1712  0.1191
32057W        W47188  17.243   7.677   1.917  0.4017  0.1076  0.2366
32058W        W47189  11.716  12.952   0.919 -0.2253  0.1545 -0.1124
32059W        W47190   8.805  16.663   0.914 -0.0160 -0.0714 -0.0494
32060W        W47191  15.882  11.847  15.418 -0.1170 -0.2074 -0.0535
32061W        W47192   4.728  13.128  11.170 -0.1342 -0.0001 -0.0562
32062W        W47193   6.547  17.542  14.331 -0.3173  0.0538  0.1246
32063W        W47194  13.884  15.216  16.348  0.1613  0.3488 -0.0664
32064W        W47195  16.924   3.388  16.604  0.1054  0.1402  0.2120
32065W        W47196  11.823   6.047  11.027  0.0944 -0.1547  0.0659
32066W        W47197   4.882  14.941  14.163  0.1075 -0.0358  0.3093
32067W        W47198  16.827  14.900   4.583 -0.2408  0.1640 -0.1843
32068W        W47199   8.984  16.812   4.642  0.0663 -0.0420  0.0043
32069W        W47200  17.495   7.059  13.918 -0.2754 -0.2115 -0.2044
32070W        W47201   3.575   2.620  12.261 -0.0860  0.0857 -0.1072
32071W        W47202   6.489   6.543  13.250  0.0712  0.0515 -0.0785
32072W        W47203   0.522  14.507   2.367 -0.2250 -0.3306 -0.1762
32073W        W47204   8.561  17.106  13.377 -0.3290 -0.0733 -0.1365
32074W        W47205  16.053   4.611  12.952 -0.5065  0.1331 -0.1519
32075W        W47206  10.257   9.792   1.039 -0.2875  0.2477 -0.0136
32076W        W47207   9.473   4.175  16.586 -0.0465  0.2139 -0.1741
32077W        W47208   0.256   8.166  12.185  0.2655 -0.0884 -0.3453
32078W        W47209   6.199   9.330   5.362  0.3312 -0.1297 -0.2542
32079W        W47210  10.076   5.336   2.522 -0.1423  0.1315  0.0479
32080W        W47211   7.578  14.707   4.885  0.1997  0.4209 -0.0787
32081W        W47212  12.092   1.434  10.974 -0.0169 -0.1961  0.2703
32082W        W47213  12.440   8.612   2.847  0.1560 -0.2118 -0.2449
32083W        W47214  15.733   2.967  15.662 -0.0495 -0.1569  0.0993
32084W        W47215  16.714  10.447   3.810  0.0181  0.2016 -0.2689
32085W        W47216   8.018   4.115  15.531  0.1302  0.0906  0.0985
32086W        W47217   3.693  15.103   0.752 -0.2082  0.1679  0.0251
32087W        W47218   5.241   2.631   5.348  0.0978 -0.0634  0.2040
32088W        W47219  14.379   5.461   2.109  0.0200 -0.0213  0.0379
32089W        W47220   5.423   1.835  16.505 -0.1256 -0.1648  0.2003
32090W        W47221  12.023   8.338   5.159  0.0995 -0.3822  0.1814
32091W        W47222  10.973  14.377  11.514  0.0442  0.1263  0.0523
32092W        W47223   4.179   1.991  12.701  0.0754 -0.0506 -0.0525
32093W        W47224   3.286   8.216   0.711 -0.1661  0.0030 -0.1975
32094W        W47225  12.554   8.221   0.258 -0.3732  0.1425  0.0127
32095W        W47226   1.673   9.163   4.555 -0.0166 -0.0829 -0.1077
32096W        W47227  15.366   9.524  14.678  0.1199  0.1665 -0.2128
32097W        W47228   9.429  14.486   6.475  0.0512 -0.3422  0.1944
32098W        W47229  17.773   4.331  11.426  0.0663 -0.2973  0.0844
32099W        W47230  13.855   4.418  11.592  0.3502  0.1534 -0.2186
32100W        W47231  14.576  14.270   3.160  0.0905  0.0911  0.2110
32101W        W47232  16.944   4.632  11.340  0.1382  0.0454  0.0533
32102W        W47233   9.400  13.483   4.969 -0.0187 -0.1332  0.0269
32103W        W47234   5.350   8.835  11.438  0.1275  0.2529  0.1851
32104W        W47235  11.690   0.918  13.015  0.2062 -0.1426  0.1620
32105W        W47236   3.213  10.832   5.565  0.1406 -0.2743  0.0885
32106W        W47237   8.597   6.501   4.244 -0.1834 -0.0895  0.0541
32107W        W47238   2.770   9.030  12.904 -0.0375 -0.5348  0.2118
32108W        W47239   7.602  17.634  12.876 -0.0029  0.0582  0.1973
32109W        W47240  10.637   5.234  11.271  0.0275 -0.4106  0.2747
32110W        W47241   8.829   1.412  11.109  0.1890  0.0515  0.2038
32111W        W47242   4.263  12.300  16.321  0.2109  0.0957 -0.5447
32112W        W47243   7.888   3.183  16.381 -0.0158  0.2438  0.3297
32113W        W47244   2.685   0.376  14.924 -0.2291  0.1466 -0.1191
32114W        W47245  17.119  13.840   0.986  0.3505  0.2009  0.0204
32115W        W47246  17.823  17.777   1.863 -0.1717 -0.3848  0.0263
32116W        W47247   1.388  15.304   2.273 -0.1467  0.1783 -0.0546
32117W        W47248  10.247  11.578   3.509 -0.0088 -0.0064  0.0558
32118W        W47249   8.485   0.532  12.694  0.0996 -0.0248  0.2879
32119W        W47250  16.009  12.772   4.746  0.1234 -0.1702 -0.0066
32120W        W47251  17.082   3.108  13.373  0.3724 -0.3710  0.1549
32121W        W47252   7.394   7.298  15.738  0.0378  0.0301 -0.0370
32122W        W47253  12.168   3.115   0.760  0.0236  0.2941 -0.2906
32123W        W47254  12.020  11.542  16.723  0.0722  0.1994  0.1482
32124W        W47255  13.517  15.344  14.594 -0.0487 -0.1460 -0.1778
32125W        W47256  15.024  16.993   1.883 -0.2004  0.1525  0.0399
32126W        W47257   5.128   3.421  15.472 -0.0549 -0.0755 -0.1962
32127W        W47258   6.791  17.262  12.508  0.0676  0.0175 -0.0339
32128W        W47259   0.109   4.818   1.668 -0.1215  0.2113  0.0756
32129W        W47260  10.781   1.516  14.157 -0.1132 -0.1380  0.0383
32130W        W47261  11.521  17.439   1.405 -0.1408  0.2470  0.1933
32131W        W47262  13.380   8.750  16.487  0.0430 -0.2439 -0.0355
32132W        W47263   1.319  11.558  11.848 -0.1863 -0.2471  0.0156
32133W        W47264  12.608  14.265   2.485  0.3491 -0.0781 -0.1622
32134W        W47265  16.199   6.015  16.226 -0.2596  0.1868  0.0270
32135W        W47266   8.512   6.515   2.327 -0.2145 -0.0828 -0.0890
32136W        W47267   9.522  15.427  13.050 -0.0662 -0.2023  0.0328
32137W        W47268   1.253   7.445  14.076 -0.0735  0.0696  0.0050
32138W        W47269   1.244   5.215  12.555 -0.1585  0.1258 -0.0833
32139W        W47270   7.482   8.058  16.206 -0.0122 -0.1867 -0.0758
32140W        W47271  15.454   3.764   3.016 -0.0408  0.1660  0.2768
32141W        W47272  16.407  12.568  15.366  0.0457  0.6373 -0.0265
32142W        W47273  10.746  15.600  13.076  0.0308  0.0126  0.0435
32143W        W47274   6.954   6.848   0.693 -0.0524 -0.0959  0.1489
32144W        W47275   8.747   9.623   5.573 -0.3025 -0.1707 -0.2299
32145W        W47276   3.875  10.629  15.552  0.2654 -0.1700  0.1362
32146W        W47277   2.770  14.345  11.844 -0.0196 -0.1767  0.0444
32147W        W47278   2.527   2.648  16.385 -0.4273  0.2158 -0.0795
32148W        W47279   9.354   7.193   4.193  0.0364  0.0391 -0.2650
32149W        W47280   9.723  11.693   5.711 -0.2167  0.0913 -0.0539
32150W        W47281   3.796  15.641   3.730  0.1837 -0.3159 -0.2535
32151W        W47282   0.300  15.893  15.469 -0.1881  0.1495 -0.0511
32152W        W47283  17.136  13.906  14.745 -0.1596 -0.4551  0.2067
32153W        W47284   5.842   4.325   3.606 -0.0485  0.2981 -0.0736
32154W        W47285  13.750   1.029   2.853  0.0639 -0.4303 -0.2118
32155W        W47286   2.393  13.499  16.604 -0.1386  0.0402  0.1056
32156W        W47287   8.194   2.320  14.098  0.1820  0.2371 -0.0041
32157W        W47288  12.653   9.228   2.343 -0.4384  0.1234  0.0258
32158W        W47289  10.190  10.722   1.312 -0.1937  0.1314  0.0165
32159W        W47290  12.410   1.557   0.154  0.2795  0.0066 -0.0874
32160W        W47291   4.331   3.191   3.228 -0.1180  0.0050 -0.0527
32161W        W47292   9.886  17.032   2.731 -0.3589 -0.3775  0.1580
32162W        W47293   5.856  13.570  13.454 -0.0705  0.0664 -0.1591
32163W        W47294   5.698  14.435  11.175  0.0200 -0.1430 -0.1788
32164W        W47295   5.727  16.220  15.954 -0.1178  0.3554 -0.1522
32165W        W47296   3.445  14.638   2.451 -0.0033  0.1996 -0.0694
32166W        W47297  10.254  16.803  15.388 -0.1652 -0.0039  0.3843
32167W        W47298  11.852   8.574   4.239 -0.1863 -0.1965 -0.1570
32168W        W47299  14.838  11.168   4.364 -0.0351 -0.1939  0.1986
32169W        W47300   2.544   8.866   0.288  0.3610 -0.1667  0.1268
32170W        W47301   7.216   2.693   5.743  0.1617 -0.0767  0.2644
32171W        W47302   5.962  11.496  14.221  0.0386 -0.0612 -0.0758
32172W        W47303   6.097   2.812  14.820  0.0168  0.0570 -0.3382
32173W        W47304   3.011   3.229  15.930 -0.1876  0.1516 -0.2054
32174W        W47305  14.157   7.357   3.324 -0.2092 -0.1101  0.3180
32175W        W47306  11.694  12.555  14.797 -0.0833 -0.0540  0.1545
32176W        W47307   8.427   2.497   0.088  0.1079  0.0760  0.1104
32177W        W47308   9.774   2.929  15.811  0.1252 -0.2646  0.2744
32178W        W47309  16.485  15.405  16.742  0.0458  0.2855 -0.1633
32179W        W47310   2.959   8.467  12.163  0.2615 -0.1992 -0.2088
32180W        W47311  16.179   7.744  12.341  0.1878  0.0896 -0.0111
32181W        W47312  13.992   9.159   3.752  0.3375  0.1495  0.3208
32182W        W47313   7.912  13.647  12.291 -0.2878 -0.0114  0.0511
32183W        W47314   4.335   0.953  16.327 -0.1850  0.1731  0.2473
32184W        W47315   0.807  16.683  15.785 -0.0470 -0.0874 -0.0641
32185W        W47316   0.024   1.866   4.933  0.0652  0.1142 -0.1673
32186W        W47317  14.987   3.055  16.710 -0.2004 -0.0304 -0.1573
32187W        W47318  15.566  10.415  15.334  0.2029  0.1962 -0.1490
32188W        W47319   8.713   9.716  16.611  0.1686 -0.2810  0.1867
32189W        W47320  15.218   4.597   4.590  0.1183  0.0281  0.0213
32190W        W47321   1.254   1.365   6.376  0.1344 -0.0623  0.0878
32191W        W47322   5.362   2.601   4.812 -0.1404 -0.0230 -0.0238
32192W        W47323   8.519   0.826  15.480 -0.2200 -0.0206  0.0506
32193W        W47324  17.564   4.334   4.108  0.2345 -0.1935  0.2233
32194W        W47325   9.700  15.187   4.673  0.0703  0.0681  0.3873
32195W        W47326   2.529   2.174  14.083  0.0535 -0.4100  0.1867
32196W        W47327  16.482   9.324  12.074  0.0485  0.0337  0.1091
32197W        W47328   5.685   2.322  12.981  0.2981  0.2567  0.1272
32198W        W47329   6.427   0.361   3.880  0.0342 -0.1912  0.1220
32199W        W47330  13.309  17.878  15.526  0.2350 -0.1584  0.2125
32200W        W47331   5.589  13.911   2.862 -0.2122  0.0601  0.2740
32201W        W47332  10.629   4.504  13.720  0.1781 -0.1159  0.2633
32202W        W47333   3.837   1.176  12.179  0.0332 -0.0525 -0.2438
32203W        W47334   2.241   8.938   3.946  0.1949  0.1567  0.4197
32204W        W47335   9.347   7.933   4.427 -0.0496 -0.0151 -0.0663
32205W        W47336   1.994  12.356   6.041 -0.0932  0.0420  0.1864
32206W        W47337  10.880   6.638  16.461  0.4243  0.0734 -0.0087
32207W        W47338   0.628  14.517  11.526 -0.0047  0.2111  0.0965
32208W        W47339  12.355  15.055   4.738 -0.1054 -0.2587 -0.0041
32209W        W47340  13.453  16.736   3.086 -0.0067  0.3968 -0.1873
32210W        W47341   8.633   0.178  14.918  0.1299 -0.0773 -0.2569
32211W        W47342   0.893   0.794  12.252 -0.0565  0.1968  0.0864
32212W        W47343  13.308   0.626   4.783 -0.0074  0.1336  0.1014
32213W        W47344   9.474   6.404  11.787  0.1795  0.1643 -0.1584
32214W        W47345   1.019  13.898  16.305 -0.0267 -0.0441 -0.0640
32215W        W47346  12.564   0.514   5.034 -0.0058 -0.1330 -0.0041
32216W        W47347  10.881  10.963   3.916 -0.0219 -0.0197 -0.0787
32217W        W47348  13.279   0.766   3.934 -0.0513  0.0590  0.0394
32218W        W47349  11.853  10.892  12.396  0.1452 -0.3435 -0.2702
32219W        W47350  10.793   8.041  14.318 -0.1840  0.1423  0.3394
32220W        W47351   0.220   5.309  13.013  0.0800 -0.1664 -0.3006
32221W        W47352   9.629  14.514  10.051 -0.3518  0.1713 -0.1452
32222W        W47353   1.510  11.018  14.642 -0.0024  0.0314 -0.1460
32223W        W47354   9.827   5.579   1.609 -0.1306 -0.3177  0.0876
32224W        W47355   8.233  10.456  11.541  0.2135  0.0614 -0.0933
32225W        W47356   9.102   1.133  11.443 -0.3141  0.0256 -0.1397
32226W        W47357  17.016   8.741  15.082  0.0454  0.1317 -0.2534
32227W        W47358  13.981   3.919  12.490  0.0846 -0.0811 -0.0358
32228W        W47359   0.941  15.160   2.031  0.0035  0.0124 -0.0893
32229W        W47360   3.378   1.158   3.756  0.1335  0.1812  0.1208
32230W        W47361   5.548  13.607  13.853  0.3265  0.1359 -0.0476
32231W        W47362   6.128   5.233   3.714 -0.1890 -0.4378 -0.1156
32232W        W47363  10.443  16.973  11.777 -0.4849 -0.1501  0.2287
32233W        W47364   1.311   0.143  16.693  0.2811 -0.0388 -0.1421
32234W        W47365   2.421  16.542   6.071  0.1037 -0.0786 -0.1319
32235W        W47366  12.216   1.385   1.491 -0.0362  0.2434 -0.2579
32236W        W47367   8.175   1.660   2.217 -0.1606  0.0290  0.0870
32237W        W47368   3.511  16.501  13.065  0.0755  0.2383  0.3185
32238W        W47369   4.902   9.174  12.284  0.1117 -0.1629  0.3218
32239W        W47370  15.882   8.721  16.621 -0.2991 -0.4425  0.0886
32240W        W47371   1.774  13.207  11.640 -0.0595  0.0431 -0.2800
32241W        W47372  10.316   3.936   3.767  0.1919  0.0293 -0.1397
32242W        W47373   2.579  17.020   4.268 -0.0139  0.0551 -0.1207
32243W        W47374   0.234   8.156  10.978  0.0487 -0.2806  0.1704
32244W        W47375  13.666   3.698   0.793  0.0399 -0.0108  0.1439
32245W        W47376  12.882   6.702   1.303 -0.0467  0.4518 -0.1970
32246W        W47377   5.829   5.005   1.417  0.3173  0.2611 -0.1764
32247W        W47378   3.228  11.325  11.916  0.0400 -0.1125  0.4927
32248W        W47379  15.767   5.652   1.085 -0.0182 -0.1105  0.1422
32249W        W47380  17.591   2.553   2.845  0.3626 -0.1236 -0.2715
32250W        W47381   9.386  13.673   3.009  0.2436 -0.0370 -0.0908
32251W        W47382   0.477   9.208  16.280 -0.0406  0.1441 -0.1848
32252W        W47383   1.938   9.335  11.107 -0.1750  0.1240  0.2191
32253W        W47384   9.416  11.362   2.880  0.0828 -0.1435 -0.0127
32254W        W47385   0.091   3.950  16.155 -0.1689  0.3447  0.2514
32255W        W47386   6.461   9.558   0.654  0.1885 -0.3650  0.1525
32256W        W47387  10.445   7.043  11.059  0.1681 -0.0089 -0.0662
32257W        W47388   2.624   6.139   2.068  0.0412  0.0998  0.0026
32258W        W47389   2.126   3.032  16.536  0.0208  0.0303 -0.0298
32259W        W47390  11.318  14.595   4.997  0.2756 -0.3700 -0.2151
32260W        W47391  15.153   5.464  15.486  0.0191 -0.1413  0.0489
32261W        W47392   8.828  12.379   4.922  0.1676 -0.0641 -0.1309
32262W        W47393   1.414   4.461  16.659 -0.0342 -0.0370  0.0892
32263W        W47394   4.983   8.071  15.684  0.1097  0.0781 -0.0739
32264W        W47395  15.824   1.945  15.537 -0.0188 -0.2052  0.0902
32265W        W47396   6.642  17.266  16.270  0.1553  0.0735  0.0976
32266W        W47397   5.285  11.684   1.723 -0.2563 -0.0699  0.0837
32267W        W47398   1.501  12.566   3.484  0.0427 -0.1423  0.0761
32268W        W47399  15.998   9.349  15.698 -0.1988 -0.1143 -0.2133
32269W        W47400   1.835   9.717  11.401  0.0512 -0.3185  0.1056
32270W        W47401  10.926   0.880   3.870  0.2809 -0.0648  0.0067
32271W        W47402  10.277   6.763   2.492 -0.0628 -0.3274 -0.1215
32272W        W47403   2.988   7.013   0.460  0.2387 -0.1231 -0.1185
32273W        W47404   8.639   0.226  10.938  0.0017  0.2435 -0.2069
32274W        W47405   3.305  14.268   4.631 -0.3436 -0.2084  0.0045
32275W        W47406  17.172   4.778   4.926  0.2313 -0.1113 -0.1157
32276W        W47407   9.719  14.223  13.945  0.2620  0.0706  0.0421
32277W        W47408   6.925   1.931  11.538 -0.4246  0.0130  0.1500
32278W        W47409   8.180  12.338  11.269  0.2342 -0.2063  0.1812
32279W        W47410  13.700   6.970  12.165  0.0837 -0.0008  0.0173
32280W        W47411   4.637  13.496  13.760  0.1477 -0.0845  0.0258
32281W        W47412  14.061   4.466  16.218  0.2666 -0.0416  0.1017
32282W        W47413   1.443  11.550  13.293  0.0680  0.1619 -0.0104
32283W        W47414   2.385  14.605  14.140  0.2517 -0.0769 -0.3020
32284W        W47415   6.098  13.656   3.629 -0.1280 -0.3117 -0.1102
32285W        W47416   7.046   5.482  13.141  0.2723 -0.1786 -0.1079
32286W        W47417   6.607   6.067   1.924  0.0690  0.0700 -0.2926
32287W        W47418  12.213  14.497   6.415 -0.0138  0.3489 -0.0729
32288W        W47419  13.642   0.499   2.770  0.1659 -0.1665 -0.1525
32289W        W47420  17.548   3.942   5.405  0.2266  0.2648 -0.0887
32290W        W47421  15.008   8.501  11.094  0.1775 -0.0315  0.1702
32291W        W47422  16.458   5.081   1.739  0.0463 -0.0105 -0.2633
32292W        W47423  10.403  16.031   2.264 -0.1188  0.0221  0.4550
32293W        W47424   9.712   6.150   0.307  0.0894  0.0236  0.2604
32294W        W47425   5.332   9.281   2.888  0.0170 -0.1052  0.2145
32295W        W47426  12.232  17.192   3.737  0.2863 -0.1589  0.0197
32296W        W47427   7.840   3.231   3.948  0.2342  0.1614 -0.0437
32297W        W47428   3.119   2.857  13.845  0.0298 -0.0607 -0.1599
32298W        W47429  10.595   7.628  14.607 -0.2461  0.2088  0.1175
32299W        W47430  15.547   3.076   1.619  0.0677 -0.0991  0.0193
32300W        W47431  15.271   6.867   1.436  0.3192  0.1354  0.0546
32301W        W47432   6.229   0.327   4.338  0.0354  0.0101  0.2478
32302W        W47433   5.415  17.673   1.341 -0.2041 -0.1325 -0.0213
32303W        W47434   8.691   0.827   2.231  0.0393 -0.1893 -0.5743
32304W        W47435  16.835   7.387   1.866 -0.0286  0.1426  0.0323
32305W        W47436  13.038   1.408  11.162  0.2145  0.0966 -0.1085
32306W        W47437   1.667   8.268  11.337 -0.2106 -0.3726 -0.1536
32307W        W47438  14.487  14.869   3.830  0.2866  0.1687 -0.1276
32308W        W47439  14.187  11.211  15.820  0.0689  0.1687  0.1468
32309W        W47440  12.084   2.289  11.916 -0.0156  0.1707  0.2047
32310W        W47441   0.848   6.691  14.871 -0.2195  0.1073  0.3954
32311W        W47442   9.604   4.889   4.489  0.0299 -0.1079  0.2295
32312W        W47443   4.921   5.946   0.025  0.0038  0.0740 -0.0329
32313W        W47444  15.226   2.623   3.815  0.0081 -0.0993 -0.0877
32314W        W47445   7.379   1.307  12.967 -0.3678 -0.0483 -0.1477
32315W        W47446   1.336   8.617   2.818 -0.1186 -0.2646 -0.0372
32316W        W47447  16.197  10.072  13.037 -0.0283  0.1754 -0.2969
32317W        W47448   8.904  14.444   3.404 -0.3174  0.0873 -0.1161
32318W        W47449   3.758   8.075   5.082  0.0460  0.2787  0.1347
32319W        W47450  15.374  16.433  14.789  0.0132 -0.2958  0.0179
32320W        W47451  16.878   5.667  15.486 -0.1605  0.0467 -0.3925
32321W        W47452  10.225  17.179  15.067  0.0304 -0.0989 -0.1809
32322W        W47453   1.116   5.107   5.334 -0.0448 -0.3868 -0.0716
32323W        W47454  14.872  13.145   3.984  0.0065 -0.0082  0.0902
32324W        W47455   7.313  17.588   5.045 -0.1107  0.0114  0.4451
32325W        W47456  11.237  10.020  13.831 -0.2028 -0.0652 -0.1864
32326W        W47457   4.266   6.368  16.195  0.0849 -0.0311 -0.0254
32327W        W47458   7.837  10.480  13.070  0.0367  0.0167 -0.0049
32328W        W47459  14.299   0.627  15.465  0.0338 -0.2918  0.0125
32329W        W47460  11.882  17.041   3.015  0.0392 -0.2838  0.0445
32330W        W47461   0.633   9.977  15.636 -0.0823 -0.1524 -0.0828
32331W        W47462   7.404  13.624  13.066  0.2309  0.0399  0.1970
32332W        W47463   6.583   0.188   5.313  0.0140 -0.2093 -0.0932
32333W        W47464  13.933   1.697  12.140 -0.1170 -0.0597 -0.0407
32334W        W47465   1.348  17.736  16.234 -0.0890  0.0685  0.1425
32335W        W47466  11.067   2.672   4.829  0.2065 -0.2095 -0.0501
32336W        W47467  10.038  16.949   3.649  0.3122 -0.1760  0.0584
32337W        W47468   5.865  15.208  13.256  0.1259 -0.3366  0.0576
32338W        W47469  12.967  15.633  13.326 -0.1855  0.0416  0.0647
32339W        W47470  13.161  14.967  12.127 -0.1562  0.2458 -0.3204
32340W        W47471   3.524  15.611   0.752 -0.0830 -0.0698 -0.0485
32341W        W47472   7.089  10.145  11.317  0.2392 -0.1442 -0.0592
32342W        W47473   6.874  13.705   5.691  0.0503 -0.0947  0.0705
32343W        W47474   8.101   9.185  13.723  0.1633 -0.0916 -0.0392
32344W        W47475   6.715   5.802   1.508  0.1919 -0.3428 -0.0048
32345W        W47476  17.019  14.878  13.896 -0.0520  0.2417  0.0718
32346W        W47477  10.235   1.034   0.003  0.1592 -0.0818 -0.2829
32347W        W47478  10.399  12.603  14.538  0.0665 -0.0474  0.0552
32348W        W47479  14.615   3.424  13.896 -0.0505  0.1371  0.0369
32349W        W47480  17.122   6.542   5.078 -0.1426  0.1833  0.0748
32350W        W47481   1.478  13.352   0.183  0.1988  0.2968 -0.0685
32351W        W47482  16.712   2.881   3.221  0.0761  0.3171 -0.1321
32352W        W47483   0.259   6.561  16.392 -0.1425  0.0756  0.0541
32353W        W47484  16.633  11.654  12.470 -0.1440  0.2991  0.1003
32354W        W47485  10.198  13.143   0.879  0.1605 -0.0559  0.0169
32355W        W47486  11.847  10.858   2.296 -0.2478  0.2322 -0.1509
32356W        W47487   3.883   8.730  10.516 -0.2895 -0.0510  0.2894
32357W        W47488  11.521  10.897  12.008  0.2452 -0.2682 -0.0367
32358W        W47489   7.785  15.662   0.190  0.3324 -0.1611 -0.0103
32359W        W47490  10.192  10.316  15.646  0.0069  0.2272  0.1165
32360W        W47491  11.408  15.273   2.324  0.1814  0.2392  0.0206
32361W        W47492  12.317  11.961  14.449  0.0245 -0.1166 -0.0074
32362W        W47493   0.411   1.872   2.682 -0.0462  0.0381 -0.0540
32363W        W47494   5.310   9.339  16.463 -0.0443 -0.3380 -0.1144
32364W        W47495   4.937   1.509   3.976  0.2144 -0.1002 -0.0904
32365W        W47496   1.688   5.566  15.374  0.0815  0.2504  0.3183
32366W        W47497  12.603   5.184  12.948 -0.0219  0.1010 -0.1837
32367W        W47498   0.962   7.245   1.296 -0.2902 -0.2795 -0.2653
32368W        W47499  14.295   9.643  15.109 -0.3618 -0.0767 -0.2014
32369W        W47500   0.845   9.833   4.204 -0.0481 -0.0293 -0.1731
32370W        W47501   8.808  13.224  13.064  0.2420  0.1099  0.2895
32371W        W47502   5.614   8.411  15.367  0.1363 -0.0465  0.0675
32372W        W47503   5.284   4.294  15.692 -0.1096  0.1882 -0.2311
32373W        W47504  17.382   5.230   4.855 -0.0804 -0.0429  0.2369
32374W        W47505  14.609   6.438   5.967  0.3143  0.0656  0.4777
32375W        W47506  16.025   7.814   3.857  0.3298 -0.0101 -0.0964
32376W        W47507   8.508  15.893  15.435 -0.1253 -0.0753  0.4630
32377W        W47508   7.053   7.657   0.370  0.2354  0.0756 -0.0650
32378W        W47509   5.637   1.036   0.586  0.0334  0.1301  0.1387
32379W        W47510   1.669   8.301  12.069 -0.2444 -0.1236  0.1457
32380W        W47511  16.057  14.333  13.101 -0.1102  0.0220 -0.0435
32381W        W47512   0.008   0.485   4.859  0.1002  0.1154  0.0533
32382W        W47513   3.884  11.979  14.424 -0.2261 -0.0601 -0.0578
32383W        W47514   0.423  14.224   3.976  0.0417 -0.1062 -0.3117
32384W        W47515   6.857  10.488  16.353  0.3839  0.1406 -0.2914
32385W        W47516   2.889   1.079   0.214  0.2054 -0.1076 -0.0592
32386W        W47517  13.798   4.822  14.703 -0.3276 -0.2067 -0.2778
32387W        W47518   5.942   8.542   1.249  0.0951  0.2209 -0.1163
32388W        W47519   6.230  10.703   5.822 -0.4679  0.0894 -0.1768
32389W        W47520  14.014  11.131   5.730  0.1205 -0.0352  0.1359
32390W        W47521  11.597  17.294  14.411  0.0136 -0.2304 -0.1382
32391W        W47522   9.200  17.067  15.466  0.1483 -0.0462 -0.4292
32392W        W47523   0.288  17.372   0.099 -0.0742 -0.6004 -0.0464
32393W        W47524   2.303   2.599  12.338 -0.0966 -0.0773  0.0551
32394W        W47525  11.566  16.362  12.529 -0.3021  0.1195  0.2016
32395W        W47526  16.799  10.615  13.035 -0.2191  0.3113 -0.3203
32396W        W47527   8.494   1.069  13.607  0.2642  0.2864 -0.1232
32397W        W47528   4.599  10.010   2.989  0.0357  0.0003 -0.0224
32398W        W47529  15.632   9.153  15.044  0.0926  0.2459 -0.2573
32399W        W47530  15.952   7.302  12.510  0.1188  0.0154 -0.3284
32400W        W47531   1.709   6.277   4.741  0.2592 -0.3446  0.0620
32401W        W47532   1.748   9.610   1.533 -0.1371 -0.0832  0.1466
32402W        W47533  12.027  10.990  11.924  0.3850  0.0306  0.2301
32403W        W47534   4.719  14.697  14.613 -0.4123  0.0953 -0.1369
32404W        W47535  10.502   5.168   1.200  0.0094 -0.0422  0.3535
32405W        W47536   4.193  10.190  11.588  0.0580  0.1522  0.3000
32406W        W47537   6.117   6.576  14.760  0.2099 -0.0235  0.1700
32407W        W47538  14.338   0.020   5.055 -0.0695 -0.1396 -0.0135
32408W        W47539   7.476   8.021  14.480  0.1607  0.2824  0.1401
32409W        W47540   9.491  11.195  14.360 -0.2551  0.1441  0.4345
32410W        W47541   4.415  10.820   0.805 -0.2998 -0.0872  0.0553
32411W        W47542   4.076   6.060  10.522  0.1371  0.0420 -0.3287
32412W        W47543   5.380  13.364   0.755  0.1110  0.1589 -0.2506
32413W        W47544  15.818   4.650  11.352 -0.2405  0.2783  0.0874
32414W        W47545  15.244   1.418  14.406 -0.0191  0.3238  0.1223
32415W        W47546   6.275  12.433  13.615  0.3343 -0.2570 -0.1868
32416W        W47547  11.199   2.712   2.478  0.2118  0.1376  0.2043
32417W        W47548  11.494  11.253  14.146 -0.1502  0.0910 -0.0956
32418W        W47549   7.413   0.778   0.185 -0.0561 -0.1213  0.3566
32419W        W47550   3.119   5.121   0.950  0.3690 -0.0780  0.2575
32420W        W47551  16.986  11.020   1.468 -0.3075 -0.0140  0.0256
32421W        W47552   6.367   4.412   4.400  0.0130 -0.1145  0.0291
32422W        W47553  17.815   5.560  14.436 -0.0432  0.0901 -0.3474
32423W        W47554   2.951   7.987  12.095  0.0114 -0.0298  0.0464
32424W        W47555   2.109   2.942   3.808  0.3781 -0.0161  0.0706
32425W        W47556  15.278  13.613   3.990  0.0504  0.0680  0.2451
32426W        W47557  17.559   1.063  12.198  0.0557 -0.2644  0.1555
32427W        W47558   7.323  15.817   0.980 -0.0251  0.0376  0.3062
32428W        W47559   9.672   7.509   4.330  0.2896  0.0213 -0.0844
32429W        W47560  16.283  10.777  13.014 -0.1087  0.1641  0.1074
32430W        W47561  11.596   6.121   2.234  0.0922 -0.3022 -0.0852
32431W        W47562   9.188  16.530  11.636  0.2720 -0.3614 -0.0064
32432W        W47563   1.075  10.782   3.345  0.1195  0.4990 -0.3407
32433W        W47564   7.622   5.736  15.356 -0.0815 -0.0571  0.2826
32434W        W47565   8.364   3.875   2.088  0.2270 -0.1783 -0.0128
32435W        W47566   7.561   2.093   1.208 -0.1000 -0.4272 -0.3160
32436W        W47567   4.950  13.117  13.576  0.1701  0.0213  0.2019
32437W        W47568   4.384   7.103   1.521 -0.0454  0.3592  0.1018
32438W        W47569   9.731   6.236   3.132  0.0264  0.1741 -0.0588
32439W        W47570   7.842   3.283  13.370 -0.0123  0.2110  0.0312
32440W        W47571  11.020  16.483  12.574 -0.1317 -0.1656  0.0498
32441W        W47572  13.338   3.275  16.191  0.1467  0.3101 -0.0727
32442W        W47573  12.358   6.555   1.283  0.1431 -0.1914  0.3437
32443W        W47574  14.635  10.983   3.805  0.0149 -0.1971  0.0461
32444W        W47575   2.012   3.102  16.019 -0.3061  0.1035 -0.1236
32445W        W47576  14.482  14.807   3.177 -0.1332  0.2545 -0.0309
32446W        W47577   5.168  10.327  16.350  0.2730  0.1937  0.0125
32447W        W47578   4.944  14.266   2.351  0.1104 -0.1713 -0.1355
32448W        W47579   4.035  17.257  14.133 -0.1569  0.0270  0.2865
32449W        W47580   6.591  15.306   0.608 -0.0837 -0.0368  0.0193
32450W        W47581   6.342   1.236  12.722 -0.0400 -0.0334 -0.0584
32451W        W47582  14.565   1.040  10.914 -0.1512 -0.0912 -0.1487
32452W        W47583   3.747  14.947  11.415  0.0477  0.0535 -0.1849
32453W        W47584   6.838  10.953   2.176  0.0215  0.0719 -0.1160
32454W        W47585  13.477   9.493  14.386 -0.1830 -0.1580 -0.0823
32455W        W47586  17.266   1.743  14.949  0.2484  0.1731  0.0004
32456W        W47587   7.196  16.852   1.116  0.2269  0.1966  0.0318
32457W        W47588  15.050  11.800   2.876  0.0974 -0.0641 -0.0994
32458W        W47589   1.037  12.315  13.533 -0.1427 -0.1645 -0.1161
32459W        W47590  11.918   2.200   4.787 -0.2204  0.0424 -0.2335
32460W        W47591   6.585   5.809  11.992  0.0183  0.1417  0.2875
32461W        W47592  16.211  11.428   3.721  0.0416 -0.1946  0.0066
32462W        W47593   4.345   7.809   3.908 -0.2010  0.2509 -0.1873
32463W        W47594   5.731  16.809  12.558  0.1050  0.2309 -0.1724
32464W        W47595   6.680   3.516  16.528  0.2120 -0.3525  0.1941
32465W        W47596  11.143  12.448  16.408  0.1163 -0.0989 -0.0765
32466W        W47597   0.290   3.013  11.816  0.0649  0.0322 -0.1330
32467W        W47598   4.959   1.426   2.071 -0.2012  0.1048 -0.0889
32468W        W47599   3.254   6.276  13.869 -0.0293 -0.2438 -0.1046
32469W        W47600  11.608   6.021   4.872 -0.1657  0.0359  0.2014
32470W        W47601   8.469   6.938   5.567 -0.3793  0.3431  0.3542
32471W        W47602  10.085  14.186   2.609 -0.1564 -0.0379 -0.4316
32472W        W47603   4.058   7.975  16.011  0.0813 -0.2166  0.2195
32473W        W47604   8.829   9.199  12.956 -0.0607 -0.0774  0.0268
32474W        W47605  11.815  14.081  13.022 -0.4656 -0.1335 -0.0202
32475W        W47606   4.891   8.227  13.633  0.0103  0.2392 -0.1793
32476W        W47607   2.236  16.797  12.565  0.2873  0.0518  0.1380
32477W        W47608  14.620   6.214   2.660  0.0996 -0.2563  0.0122
32478W        W47609   4.197  12.840   0.199 -0.1780  0.3689 -0.0379
32479W        W47610  16.014   6.689   0.989 -0.1332  0.1321  0.0826
32480W        W47611   4.194   4.834   5.542  0.0270  0.2687 -0.1426
32481W        W47612  13.221   4.253  16.176 -0.1894 -0.0414 -0.2158
32482W        W47613   8.509  10.661   3.384  0.0574  0.2662 -0.0736
32483W        W47614   5.729   6.287  11.670  0.0835  0.1726 -0.1327
32484W        W47615  11.794   3.685   3.723  0.0431 -0.1790 -0.2875
32485W        W47616   0.440   2.093  15.887  0.0175 -0.2782 -0.1894
32486W        W47617   3.652   1.441  16.435  0.1431  0.0001 -0.1671
32487W        W47618   2.691  13.955  16.680  0.2727  0.1501  0.1060
32488W        W47619   9.112   5.075   1.337  0.0843 -0.0310 -0.0476
32489W        W47620  13.953   2.392   0.226  0.3767  0.1879  0.0054
32490W        W47621   0.781  11.662  11.956  0.0349 -0.0808  0.0501
32491W        W47622   1.376  16.333   0.555 -0.2659 -0.2096  0.0134
32492W        W47623   3.047   4.360  16.547 -0.1338  0.2548 -0.4213
32493W        W47624   1.899  15.251   4.265 -0.0560 -0.3029  0.0643
32494W        W47625  14.382   4.833  14.875  0.2357 -0.2671 -0.0152
32495W        W47626  17.861   6.168   2.737  0.0767  0.1706  0.1446
32496W        W47627  16.272  11.811   4.049  0.1441 -0.0827  0.0433
32497W        W47628  16.428   8.542   0.446 -0.2184 -0.3329  0.0405
32498W        W47629  14.674   8.386   4.135  0.3123 -0.1429  0.0606
32499W        W47630  16.556  10.203   4.345  0.1211  0.2546 -0.0514
32500W        W47631  14.386   5.324   1.129  0.2211  0.2093 -0.3278
32501W        W47632   2.145  16.730  13.107  0.0645  0.0321 -0.1880
32502W        W47633  13.538  11.743   1.072 -0.2037 -0.0018  0.3020
32503W        W47634   4.726   0.811  13.143 -0.0698  0.0865  0.2209
32504W        W47635   9.121  10.355   5.059 -0.1069  0.1208  0.0437
32505W        W47636  16.935   5.586  11.043 -0.2590  0.0963  0.1891
32506W        W47637  17.561  14.788   0.455 -0.0152  0.1704  0.2123
32507W        W47638   0.428   1.627  15.952 -0.1007  0.0844 -0.3482
32508W        W47639   0.993   3.002   2.963  0.2367 -0.2295  0.0861
32509W        W47640  11.437  16.606  13.689  0.0113  0.0860 -0.2790
32510W        W47641   5.638   3.279   0.078 -0.1225  0.0319 -0.0399
32511W        W47642  11.393   3.361  11.874  0.0147  0.0402  0.3538
32512W        W47643  10.272   9.962  16.130  0.1533  0.0792  0.1209
32513W        W47644   3.685   8.272  14.315 -0.0354  0.0287  0.1029
32514W        W47645  14.427  15.079  15.330 -0.2160  0.3459 -0.2255
32515W        W47646  15.898   3.196  16.150 -0.3146  0.2123 -0.1722
32516W        W47647   7.090  16.725  14.611 -0.0758  0.0273 -0.1792
32517W        W47648  13.165   5.043   4.273 -0.2612  0.4393 -0.0970
32518W        W47649  16.930   7.463   0.702  0.0220 -0.1393  0.2039
32519W        W47650  17.301  16.333  14.584  0.1529  0.2902 -0.1812
32520W        W47651  11.696   4.750  12.084 -0.0207 -0.3405  0.1863
32521W        W47652   2.691   3.673   2.485  0.1232  0.1350  0.4471
32522W        W47653  14.702   9.523  13.961  0.3396  0.1888  0.1539
32523W        W47654  16.540  10.304   1.420 -0.0265  0.0730 -0.1489
32524W        W47655   1.456   3.903  15.940  0.1125  0.0040  0.0832
32525W        W47656  15.906  12.243   0.668 -0.0554 -0.1442 -0.0265
32526W        W47657   3.683   2.318  15.210 -0.0392  0.0166 -0.2978
32527W        W47658   1.091   5.451  14.324 -0.0018 -0.3556 -0.0898
32528W        W47659   9.189   5.148  16.047  0.0381  0.0226  0.0172
32529W        W47660   3.383   5.121  16.125  0.0776  0.0985  0.1197
32530W        W47661  11.153   8.687   2.886  0.1809  0.0774  0.0501
32531W        W47662  11.752  14.972  15.832  0.1284  0.0018 -0.0072
32532W        W47663   5.728  12.468   4.985  0.3748 -0.1221 -0.2246
32533W        W47664   4.212   3.936  12.605  0.1835 -0.0183  0.0175
32534W        W47665   0.410  16.231  14.564  0.1392 -0.0695 -0.0564
32535W        W47666   8.992  16.841   2.642 -0.0817 -0.2094 -0.0576
32536W        W47667   2.150   2.693   5.393  0.0944 -0.1768 -0.1410
32537W        W47668   0.346   1.158   2.570 -0.0811 -0.1003  0.3470
32538W        W47669   5.532  15.709  11.732  0.1133  0.2060  0.1824
32539W        W47670   1.183   8.056   1.225  0.0200  0.0023  0.0858
32540W        W47671   0.022   0.948  15.374  0.3100  0.1300  0.2799
32541W        W47672  17.174   0.740   4.141  0.4575  0.0259  0.3207
32542W        W47673   5.082   5.866   5.076  0.0272 -0.0195  0.3457
32543W        W47674   9.013  11.512  12.166 -0.1006  0.0911  0.0858
32544W        W47675  15.746   4.342  14.036  0.0861  0.0070  0.0313
32545W        W47676  13.460  11.064   3.453  0.1143  0.0360 -0.0766
32546W        W47677  15.369   2.637  12.054  0.2371 -0.2136  0.1520
32547W        W47678   9.934  15.919   2.493 -0.2032  0.0154  0.4005
32548W        W47679  14.156   8.754   3.023  0.2057  0.1561 -0.1020
32549W        W47680  11.343  16.252   5.450  0.2486  0.1234 -0.1875
32550W        W47681   9.060   2.622  12.678  0.0686 -0.1020  0.1084
32551W        W47682  12.338   7.372   4.504 -0.2174 -0.0443  0.1088
32552W        W47683  16.893   1.503   2.183 -0.1858  0.1797  0.0192
32553W        W47684  10.070   0.382   0.567 -0.0630 -0.3565  0.1791
32554W        W47685  17.740   4.640  15.378 -0.0491  0.2084  0.1195
32555W        W47686   1.445   6.622   1.886 -0.3328 -0.1365 -0.3273
32556W        W47687  12.385   3.926   1.576 -0.2509  0.1288 -0.1704
32557W        W47688   0.715   2.001  15.432 -0.0738 -0.3469  0.1026
32558W        W47689   7.407  11.947  15.215 -0.1099 -0.0208  0.0082
32559W        W47690   6.666  17.730  12.363 -0.4029 -0.1022  0.0721
32560W        W47691   9.749   1.356  15.945 -0.0906  0.0793 -0.1432
32561W        W47692  10.354   0.445  15.538 -0.1875  0.2620  0.1729
32562W        W47693   6.606  12.920  13.821 -0.0462  0.1553 -0.0646
32563W        W47694  10.459   1.050   3.750 -0.1259 -0.2683 -0.1456
32564W        W47695   5.611  13.128   6.057  0.2059  0.0659 -0.2781
32565W        W47696  13.070   0.943  12.288 -0.0785 -0.0026  0.4858
32566W        W47697  16.297  17.149   1.484  0.1035 -0.2945  0.1977
32567W        W47698   9.301  10.761   4.159 -0.2144 -0.1340 -0.1996
32568W        W47699   0.563   1.468   4.370 -0.0796  0.2699 -0.0231
32569W        W47700  10.800   5.968  13.883 -0.0754 -0.2084  0.0433
32570W        W47701  13.088  17.880   3.370  0.2910 -0.2922 -0.1113
32571W        W47702   3.470  10.637   5.992 -0.4137 -0.3145  0.1674
32572W        W47703  12.317  17.010   3.277  0.3356 -0.2845  0.1798
32573W        W47704   0.704   7.790   2.470  0.0755 -0.0934  0.1165
32574W        W47705  16.584   6.826  16.231 -0.0953 -0.1492 -0.1287
32575W        W47706  16.062   7.558   5.812 -0.2505  0.4371  0.3503
32576W        W47707   9.249  15.306   2.235  0.0370  0.1510  0.2074
32577W        W47708  13.733  13.209  13.607  0.1158 -0.2423 -0.0002
32578W        W47709  14.099   7.321   5.079  0.1685 -0.0086 -0.4376
32579W        W47710  11.402  14.164   5.323  0.0915  0.2236 -0.1885
32580W        W47711   5.312  15.159   0.559  0.0582 -0.2946  0.0672
32581W        W47712   0.401   0.739  12.137  0.3754 -0.2315 -0.2172
32582W        W47713   0.463   5.288   2.296 -0.0236 -0.1775  0.3564
32583W        W47714   6.176   9.384  13.796  0.0339  0.1231  0.0764
32584W        W47715  13.879   1.577   0.657 -0.0490 -0.3458  0.1682
32585W        W47716  13.894  14.229  14.019  0.1133  0.0539 -0.2803
32586W        W47717  10.027  14.564  12.525  0.2303  0.1100  0.1309
32587W        W47718   1.924  16.140  15.604 -0.3510 -0.2666 -0.4544
32588W        W47719   9.513  17.387   5.019  0.2662 -0.2111 -0.2477
32589W        W47720   6.652  12.268   1.934 -0.0649 -0.0554  0.3714
32590W        W47721  16.123   5.908   2.419  0.1102  0.1489 -0.0234
32591W        W47722  13.001  14.258  16.037 -0.0868 -0.0610  0.0627
32592W        W47723  14.545  11.144   3.271  0.2570  0.0688 -0.1507
32593W        W47724  10.072   6.934   3.348 -0.0068 -0.0619  0.0505
32594W        W47725  14.800  10.438   3.805  0.1252  0.1386  0.1751
32595W        W47726   8.328  13.992  14.027 -0.1051  0.4656 -0.0107
32596W        W47727   9.513   8.082  14.944  0.1342 -0.0471  0.0215
32597W        W47728   7.606  15.864  13.036 -0.2683 -0.3550 -0.3780
32598W        W47729   8.618  10.416   0.504  0.0239  0.2360  0.2293
32599W        W47730  13.008  10.996   3.735 -0.0380  0.4984  0.2272
32600W        W47731  12.626   2.371   4.092  0.1428 -0.1041 -0.1124
32601W        W47732  11.751   0.489  11.141  0.3156  0.1651  0.0580
32602W        W47733   2.756  13.241   1.404  0.0443  0.1138 -0.1969
32603W        W47734  14.007   0.077  11.503 -0.0349  0.1099  0.1119
32604W        W47735  12.839   9.990   4.001  0.0233  0.2150  0.2395
32605W        W47736   8.438   8.809  16.651  0.0978 -0.0025  0.1922
32606W        W47737  10.995   1.373  13.669 -0.0242  0.3688 -0.4079
32607W        W47738   5.653  12.561   1.618 -0.1754 -0.0182  0.1111
32608W        W47739   8.515   6.868  13.802  0.1588  0.1336 -0.1415
32609W        W47740  10.470  15.704   2.768 -0.0895 -0.2627 -0.3603
32610W        W47741   3.814   6.295   1.676 -0.2070  0.1958 -0.4026
32611W        W47742   9.824   6.837  14.575 -0.2732  0.1834  0.1762
32612W        W47743  11.659  12.573  12.952  0.1242  0.0275 -0.0787
32613W        W47744  16.225  17.115   2.024 -0.1143 -0.0759  0.2446
32614W        W47745   7.494   4.651  12.971 -0.1542  0.1910  0.1434
32615W        W47746   1.369  17.174  16.178 -0.4092  0.2662 -0.2126
32616W        W47747   0.562  10.172   0.813 -0.2197 -0.4518  0.3135
32617W        W47748  15.487  10.731   3.065  0.2928  0.2648  0.0319
32618W        W47749  13.834  10.688   5.867  0.0252 -0.1947  0.0850
32619W        W47750  12.720  14.504  14.392 -0.0043 -0.1287 -0.0216
32620W        W47751  13.428   0.081   2.523  0.1977 -0.1926  0.1311
32621W        W47752  12.956   9.756  15.606  0.1943  0.3047  0.2190
32622W        W47753   0.004   5.352   0.194  0.0910  0.0289 -0.0625
32623W        W47754  16.122   4.762  13.944 -0.0947  0.0310  0.0115
32624W        W47755   2.785  15.455   2.617  0.1914 -0.0502 -0.5536
32625W        W47756  15.641   2.765  16.130 -0.3465  0.1618  0.0626
32626W        W47757  13.313   2.341  12.958  0.2825 -0.4241  0.0971
32627W        W47758   3.226  14.216   6.191 -0.2316 -0.2182  0.0504
32628W        W47759   7.753  17.015   4.869 -0.2626 -0.2833 -0.2172
32629W        W47760  17.594   4.680   5.284 -0.0146 -0.0563  0.0132
32630W        W47761  10.167   1.989   9.731  0.0076  0.0375  0.2265
32631W        W47762  11.455   5.734  14.894 -0.0637  0.1606  0.1152
32632W        W47763   7.728   0.148   1.025  0.0882  0.3096  0.4306
32633W        W47764   0.424   6.459  15.659  0.0706  0.2719  0.0527
32634W        W47765   0.640   0.207   6.004  0.3445 -0.0692 -0.1465
32635W        W47766  15.692  15.411  11.426 -0.0542  0.0787 -0.2244
32636W        W47767   9.386   2.636   3.748  0.0670 -0.1207 -0.0259
32637W        W47768   7.794  17.039   2.064 -0.4505  0.0537  0.0747
32638W        W47769   3.722   4.960   3.307  0.0724  0.0114 -0.1232
32639W        W47770  15.420  16.266   1.482 -0.0739 -0.0665  0.2544
32640W        W47771  10.066   1.048   3.423  0.0362  0.1773  0.0779
32641W        W47772  11.176   3.017  10.039 -0.1593 -0.0214 -0.1499
32642W        W47773   3.264   3.667   2.503  0.0964 -0.3517  0.2851
32643W        W47774   1.192   7.077   4.411 -0.2738 -0.1187 -0.0909
32644W        W47775  16.666   2.307  15.399  0.1162  0.2832  0.3511
32645W        W47776  15.845  16.169  13.293 -0.0032  0.1522 -0.1216
32646W        W47777  11.138   0.048  14.076  0.1836 -0.2028 -0.0236
32647W        W47778  16.483   4.650  14.307 -0.1953  0.1978  0.0325
32648W        W47779  14.268   7.647  13.152  0.0211  0.2573 -0.0824
32649W        W47780  13.206  12.717   0.360  0.0547 -0.0244 -0.0668
32650W        W47781   2.473  17.397  14.568 -0.1343 -0.0724 -0.3751
32651W        W47782  14.253   4.711  12.989 -0.0605 -0.1065 -0.1252
32652W        W47783   9.107   6.141   2.855  0.0424 -0.0845 -0.0252
32653W        W47784  11.557   2.848   4.808 -0.0081  0.1927 -0.3530
32654W        W47785   4.456   0.633  15.072  0.0375 -0.0161  0.1016
32655W        W47786   6.030  12.889  11.845  0.1691 -0.1168 -0.0453
32656W        W47787   7.551   5.489  15.973  0.2683  0.2796 -0.1501
32657W        W47788   1.153  17.457  14.505  0.2466 -0.0620 -0.0760
32658W        W47789  15.719   5.376  15.185  0.0041 -0.1228 -0.2771
32659W        W47790   0.215  12.357  14.824  0.1865 -0.0927  0.2243
32660W        W47791   0.521  15.922  13.474  0.1550 -0.1671  0.1694
32661W        W47792  15.734   2.334  15.845  0.0605  0.3464 -0.2939
32662W        W47793  14.208  17.076  15.524 -0.2309 -0.1950 -0.2468
32663W        W47794  15.543   0.497   2.822  0.0749  0.0597  0.0979
32664W        W47795   9.857  11.262  14.737  0.2242  0.2245 -0.3994
32665W        W47796   3.910  12.730   2.621 -0.1294  0.2438  0.1862
32666W        W47797   4.459   5.719  13.343  0.0424 -0.1232  0.1626
32667W        W47798  10.347   6.948  15.261 -0.3217 -0.3975  0.0230
32668W        W47799  11.957   6.481   4.293 -0.3049 -0.1980 -0.1089
32669W        W47800   5.680  13.483   2.059 -0.1292 -0.0886  0.0362
32670W        W47801  13.090  15.310  14.262  0.2087 -0.1164 -0.0099
32671W        W47802   2.639  17.197  16.480  0.4629 -0.1153 -0.3691
32672W        W47803  10.573   2.345  12.496  0.0281 -0.4850  0.0717
32673W        W47804   8.865  13.989  13.304  0.1985 -0.1847 -0.0040
32674W        W47805   3.717  16.986   3.869 -0.1167 -0.1364 -0.0176
32675W        W47806  15.327   4.566  15.058 -0.1748  0.1967 -0.0939
32676W        W47807  17.170  16.261  13.765  0.0906  0.1490  0.0845
32677W        W47808   6.166  17.615  13.380  0.0683  0.3299 -0.1195
32678W        W47809   0.295   8.926  16.661  0.0936  0.0550 -0.0914
32679W        W47810  16.881   9.528  13.467 -0.0027 -0.0183  0.1256
32680W        W47811  16.996   5.253  13.877 -0.1447 -0.2316 -0.1346
32681W        W47812  14.275   3.492   2.682 -0.2506  0.3147 -0.2098
32682W        W47813   2.113   0.262   5.456  0.0683 -0.1947  0.1296
32683W        W47814  12.303  15.255  15.013 -0.0311  0.1555  0.0201
32684W        W47815   6.508  16.217   0.212  0.1032 -0.0371 -0.0901
32685W        W47816  11.575   0.056   4.558  0.0138  0.1956  0.0313
32686W        W47817   8.619   3.557  15.072 -0.1349 -0.1793  0.1660
32687W        W47818  14.646  14.558   2.621  0.0377  0.2748  0.0379
32688W        W47819   0.950  10.390   0.472  0.1588  0.1287  0.0558
32689W        W47820  12.422  15.722   6.169 -0.1133 -0.0126 -0.0453
32690W        W47821  17.776   3.182   0.418 -0.0880 -0.4420  0.2503
32691W        W47822  17.167  17.460   5.622 -0.0090 -0.2639 -0.2292
32692W        W47823  10.246   9.491   3.930 -0.0431  0.0676  0.2852
32693W        W47824  12.619  11.855  13.491  0.0210  0.1608 -0.0426
32694W        W47825  12.663   2.948   3.023 -0.1613 -0.2629 -0.1884
32695W        W47826  12.346  17.134  13.246 -0.2316 -0.0366 -0.0341
32696W        W47827   0.948   2.744   3.407 -0.2132 -0.1973  0.0524
32697W        W47828   2.840  15.315  12.807 -0.0262 -0.3485 -0.0833
32698W        W47829   4.002   8.490   1.069  0.2557 -0.0175 -0.1417
32699W        W47830   9.928   5.901  16.225  0.1379 -0.2097  0.0706
32700W        W47831  12.523   1.141   1.101  0.0086  0.0003 -0.4610
32701W        W47832   7.219   4.257   2.450 -0.3956  0.0559 -0.0286
32702W        W47833  16.360   6.138  14.991  0.1411  0.1260 -0.0778
32703W        W47834  12.551  17.158   5.180  0.3348  0.0018  0.2689
32704W        W47835   7.585   9.929  13.553 -0.1775  0.0835  0.0214
32705W        W47836  11.664  11.249  15.140  0.0542  0.0636 -0.2059
32706W        W47837   4.188  14.361   1.778  0.0916 -0.1046  0.0863
32707W        W47838   8.526  13.392  16.122 -0.0437  0.1173 -0.0905
32708W        W47839  13.972  16.958  13.751 -0.0936  0.1180 -0.0210
32709W        W47840  14.708  12.544  12.878  0.0836 -0.2301  0.2073
32710W        W47841   6.419   4.709  15.501 -0.3068 -0.0906  0.2828
32711W        W47842   6.047  12.467   2.109 -0.2012 -0.0026 -0.1061
32712W        W47843   4.374   7.800   2.457 -0.4312 -0.1338 -0.0340
32713W        W47844  11.309   4.120  10.646  0.0350 -0.0149 -0.1601
32714W        W47845   6.379   3.505  12.290 -0.3746 -0.1156 -0.1301
32715W        W47846  16.569  14.712  13.723 -0.0189 -0.2301 -0.2179
32716W        W47847  17.132   3.657  11.538 -0.1900 -0.1905 -0.0162
32717W        W47848  13.349   5.773   3.490 -0.0094  0.1003  0.1039
32718W        W47849   2.882   7.154  12.703  0.0224 -0.1646 -0.0396
32719W        W47850   3.422   0.320   0.496  0.0505  0.1490 -0.0078
32720W        W47851   7.425   1.195   4.685  0.2525 -0.2121 -0.1546
32721W        W47852   3.991   7.679  12.991  0.0703  0.1252  0.0707
32722W        W47853   6.371   0.316   2.158  0.3368 -0.0081  0.1519
32723W        W47854  17.831   7.086  13.436  0.2208  0.0144 -0.2207
32724W        W47855  12.128  12.896  13.452 -0.0443 -0.0102  0.0846
32725W        W47856   9.577  12.032   2.659  0.0632  0.1170  0.2702
32726W        W47857  15.079  10.223  12.398  0.1936 -0.0765 -0.0174
32727W        W47858  13.747   9.341  13.978 -0.0747  0.2190 -0.2311
32728W        W47859   0.399   1.430   3.052 -0.1683  0.1267  0.0611
32729W        W47860   2.954   9.578   5.084 -0.2337 -0.1340 -0.0661
32730W        W47861   5.830   9.916  15.689  0.1031  0.2323 -0.1992
32731W        W47862   5.220  14.871  16.466  0.2223 -0.1700 -0.0773
32732W        W47863  16.621  14.631   1.577  0.2225  0.0478  0.1039
32733W        W47864   5.028  16.167  12.276 -0.2316 -0.1972  0.0895
32734W        W47865  15.820  12.527  16.132 -0.0611  0.1492 -0.0309
32735W        W47866  12.553   5.481   0.386 -0.0533 -0.0399 -0.1193
32736W        W47867   2.245   1.578  16.334  0.0633  0.2193  0.2870
32737W        W47868  11.259   1.490  10.997  0.1132  0.3988 -0.4992
32738W        W47869   6.486   4.539   1.982 -0.0001  0.0476  0.0507
32739W        W47870  16.670  11.273  13.699 -0.0501 -0.0148 -0.1088
32740W        W47871   7.028   1.845  15.562  0.0153  0.1699  0.0399
32741W        W47872  10.114   3.348  13.323  0.1411 -0.3319  0.0660
32742W        W47873   8.265   2.867  16.315  0.0552  0.1207 -0.0670
32743W        W47874  17.575   3.115   1.614 -0.3858  0.1194  0.0376
32744W        W47875  11.750   8.080  14.153 -0.2116  0.1970  0.1193
32745W        W47876  11.979   5.125   5.791 -0.0402  0.1102  0.1988
32746W        W47877  14.152   6.844  16.768 -0.1741 -0.0685 -0.2132
32747W        W47878   9.393   9.265  16.676 -0.1425  0.2231 -0.0546
32748W        W47879  17.601   0.698   4.487  0.1261 -0.1503  0.1466
32749W        W47880   2.058   6.467  14.635  0.0077 -0.0606 -0.2062
32750W        W47881  16.792  10.379  14.047 -0.3022  0.0310 -0.0593
32751W        W47882   4.522   7.311  15.980  0.0149 -0.0715  0.2836
32752W        W47883  15.433  12.983   5.550 -0.0292 -0.0415 -0.0729
32753W        W47884  14.562   4.753  16.057 -0.0897 -0.1731 -0.0727
32754W        W47885  16.844  16.432   4.483 -0.1665  0.3108 -0.0997
32755W        W47886  12.631  14.115  11.690  0.3143 -0.2855 -0.0038
32756W        W47887  17.439  11.115  15.710  0.0178 -0.4196 -0.1790
32757W        W47888   4.930  10.826   0.887  0.1179 -0.0760 -0.0396
32758W        W47889  16.382  17.242   3.541  0.1887 -0.1276 -0.1068
32759W        W47890  13.760   2.934  15.127 -0.0887  0.0442 -0.1714
32760W        W47891   2.262  10.605   3.185 -0.3427  0.0265  0.3362
32761W        W47892  11.866  13.044  12.780  0.3549 -0.4223  0.0063
32762W        W47893  14.912  10.483  14.851  0.1107  0.0301 -0.0581
32763W        W47894  13.255  15.273   1.910  0.3804 -0.1529  0.0921
32764W        W47895  10.804  11.896  12.790  0.2002 -0.0939 -0.1511
32765W        W47896   1.947  13.221  13.318  0.1672 -0.0776 -0.0097
32766W        W47897   1.022  11.944  16.522 -0.0222 -0.0711 -0.0528
32767W        W47898   9.962   1.433   2.794  0.1119 -0.0017 -0.0611
32768W        W47899  17.389   4.653  13.010  0.0706 -0.1850  0.0789
32769W        W47900   8.474   0.559   1.529 -0.0134 -0.2399  0.1038
32770W        W47901   2.782   5.516   1.152 -0.2102 -0.1608 -0.4018
32771W        W47902  10.199   1.281   4.394  0.2877  0.1564  0.0362
32772W        W47903  14.420   9.322  15.703  0.3157  0.3388 -0.0921
32773W        W47904  13.058   8.898   2.284 -0.1336  0.0473  0.1172
32774W        W47905   6.509   9.256  11.617  0.0258 -0.0763 -0.4270
32775W        W47906   4.818   9.914  16.061  0.1747 -0.1077 -0.1298
32776W        W47907   9.248   4.408  10.970  0.3249  0.1683 -0.2010
32777W        W47908   5.456   0.721  15.457  0.2469 -0.0824  0.2660
32778W        W47909  15.535  14.322  10.333  0.0660 -0.1016  0.0899
32779W        W47910   9.582   9.069  15.143 -0.0530  0.1605  0.0751
32780W        W47911   6.591  16.527  14.489  0.0081  0.1402 -0.4527
32781W        W47912   3.492   0.305   5.293  0.1588  0.0330  0.2341
32782W        W47913  12.190   6.571   0.747  0.0093  0.0313  0.2464
32783W        W47914   5.779   4.003  14.961  0.0456 -0.2597  0.2413
32784W        W47915  12.641   6.467   1.794  0.1329 -0.2990  0.1346
32785W        W47916   0.489   0.875  14.901 -0.1916 -0.0421 -0.1757
32786W        W47917  16.878  12.708   2.966 -0.0093 -0.2447  0.1255
32787W        W47918  11.823  10.185  16.647  0.1179  0.3504 -0.1892
32788W        W47919   9.578   5.529   2.454  0.3129 -0.0113 -0.0746
32789W        W47920   4.751  12.192  16.079  0.1018  0.0683 -0.0646
32790W        W47921  11.016   0.325  11.535 -0.1315 -0.1178  0.0343
32791W        W47922   7.199  17.022  16.001  0.0474 -0.3153 -0.1768
32792W        W47923   1.030   8.452  16.554 -0.2030  0.1611 -0.2125
32793W        W47924  10.254  13.829   5.089 -0.0419 -0.1490  0.1050
32794W        W47925   0.251   0.232   5.203  0.0932 -0.2077  0.2468
32795W        W47926   3.063   8.559   5.425 -0.1498  0.1943 -0.1737
32796W        W47927   7.779  13.443  15.346  0.3645  0.0651  0.1708
32797W        W47928   1.576   8.221  15.891 -0.1123  0.2215  0.1631
32798W        W47929   3.122   1.537   0.249 -0.0173 -0.1876  0.1105
32799W        W47930  17.669   1.750  15.283 -0.0402 -0.0978  0.1212
32800W        W47931  11.948   2.260  14.310 -0.1408 -0.2265 -0.0956
32801W        W47932  13.172  14.848   4.322 -0.0785 -0.4381 -0.0042
32802W        W47933   5.112   4.143   2.811  0.1004 -0.0596 -0.1151
32803W        W47934  10.768   3.019  12.024  0.0041 -0.0313  0.1358
32804W        W47935   1.077   8.429  13.783  0.0761 -0.1780  0.2638
32805W        W47936  13.914   0.010   1.782  0.2336  0.1960  0.1088
32806W        W47937  16.916   0.665  14.518  0.0845  0.0979  0.0329
32807W        W47938  17.661   0.443   3.933  0.1477 -0.2049 -0.0557
32808W        W47939   1.931  13.352  15.376  0.0122  0.1687 -0.1010
32809W        W47940   4.390   9.443   1.342  0.0182  0.1385 -0.3071
32810W        W47941   2.039   5.993   3.034  0.1344 -0.2537  0.2717
32811W        W47942   3.246  14.792  16.544  0.1336  0.0162 -0.3181
32812W        W47943  12.211  12.352  15.660 -0.0366  0.0060 -0.4392
32813W        W47944  17.100   8.042   4.539 -0.0978 -0.1436  0.1287
32814W        W47945   9.482  13.849   2.130 -0.0773  0.2094  0.3435
32815W        W47946   4.810   5.722   0.470  0.1908 -0.0716 -0.2016
32816W        W47947   4.992  13.684  13.121  0.0559 -0.0238  0.0401
32817W        W47948   0.611   0.265   5.511 -0.2277  0.2038  0.2966
32818W        W47949  13.288   3.396   0.578 -0.2057  0.1766 -0.1367
32819W        W47950   1.144  15.226   3.831 -0.0225  0.0410 -0.3215
32820W        W47951  17.242  17.094   4.044  0.0382  0.0741  0.4978
32821W        W47952   9.981  16.166   1.455 -0.1856  0.0001 -0.3142
32822W        W47953  10.879  13.301   6.438 -0.0323 -0.2069  0.0324
32823W        W47954   1.010   2.350  15.183  0.1773  0.0289  0.1431
32824W        W47955  13.652   1.351  12.932 -0.1254 -0.0521 -0.2251
32825W        W47956  13.339   3.143  13.341  0.0156  0.3870  0.0351
32826W        W47957  13.847  17.351  15.153  0.2550 -0.2968  0.3042
32827W        W47958   5.335  17.004  11.680 -0.0077 -0.0112  0.0021
32828W        W47959  13.834  12.446  12.707 -0.0346  0.0153 -0.1960
32829W        W47960   4.645  12.118   2.411 -0.1191  0.1456  0.0997
32830W        W47961  12.497  14.578   0.947 -0.1014 -0.0210 -0.1743
32831W        W47962  16.523   9.871  12.009 -0.2084 -0.1014  0.0641
32832W        W47963   2.350  11.064  15.187 -0.2394 -0.0435  0.4551
32833W        W47964  11.947   9.698  14.278  0.1200 -0.5064  0.4538
32834W        W47965   1.521  13.034   5.335  0.0022 -0.0757  0.1396
32835W        W47966   0.034  12.294   5.215  0.1090 -0.3293  0.0141
32836W        W47967  14.356   4.082   5.027  0.1409 -0.1739  0.0708
32837W        W47968  10.047   0.551   2.591  0.1076 -0.1178  0.1731
32838W        W47969   9.654   8.328   2.756 -0.1547 -0.2651 -0.2828
32839W        W47970  13.097  17.626   2.929 -0.3663  0.1200 -0.0910
32840W        W47971   5.185  12.432  16.581 -0.3359 -0.0550  0.2546
32841W        W47972  15.485   4.176   1.221  0.0379 -0.1602 -0.1906
32842W        W47973  17.459  12.411  14.256 -0.2998 -0.0203 -0.1820
32843W        W47974   9.785  12.575   2.639 -0.1075 -0.0722 -0.4129
32844W        W47975  15.345   2.702   1.291  0.0641 -0.0761 -0.0289
32845W        W47976   6.932   9.013   1.676 -0.3174 -0.0763 -0.0570
32846W        W47977   3.878  10.827   2.452  0.1628  0.2181 -0.1381
32847W        W47978   0.922  15.316   4.297 -0.3249 -0.2866 -0.4063
32848W        W47979  17.873   3.193   0.911  0.0612 -0.0037  0.2400
32849W        W47980   3.578   3.292   3.700  0.3699  0.0164 -0.0596
32850W        W47981  14.263   5.005   4.320 -0.1084 -0.1483 -0.0554
32851W        W47982  12.731   7.995  16.131 -0.0969  0.1648 -0.0813
32852W        W47983   2.108   3.881  13.066  0.0101 -0.0211  0.3408
32853W        W47984  17.239   9.970  16.593  0.1785 -0.0464 -0.1859
32854W        W47985  16.747   6.428  11.931 -0.2093 -0.3255  0.0151
32855W        W47986  14.178   4.336   0.427  0.0029 -0.1000  0.0965
32856W        W47987   4.455   4.568  14.606 -0.0635 -0.1932 -0.0001
32857W        W47988  12.649   2.029   0.184  0.0256  0.1521  0.0498
32858W        W47989   7.067  11.879  12.347  0.2365 -0.1419 -0.1236
32859W        W47990  10.387   6.969  12.906 -0.4164  0.1291  0.1692
32860W        W47991   7.807   9.601   0.518 -0.3195 -0.0114 -0.2103
32861W        W47992  14.586  16.689  15.444 -0.1361 -0.0714  0.0394
32862W        W47993   6.777   7.506  13.139  0.2649 -0.2332 -0.3059
32863W        W47994   6.919  13.272  11.868 -0.0583  0.0563 -0.0575
32864W        W47995  13.164  12.894   2.676  0.3751 -0.2964 -0.0618
32865W        W47996  11.948   5.410  13.690 -0.1998 -0.0298  0.2617
32866W        W47997   0.843   5.775  11.778  0.1333  0.0672 -0.3063
32867W        W47998  12.567   3.459  12.315  0.1054 -0.2129  0.0701
32868W        W47999   8.193  15.094  13.163 -0.0464 -0.1442 -0.1075
32869W        W48000  15.960  12.808  11.600 -0.2908  0.0765  0.2071
32870W        W48001   9.168  11.195   4.388  0.0506 -0.2403  0.1607
32871W        W48002   8.144   6.572   1.988 -0.1091 -0.2753  0.2114
32872W        W48003  14.794  17.878   2.890 -0.0046 -0.0655 -0.4159
32873W        W48004   6.938  15.126  11.021 -0.0347  0.2026  0.2025
32874W        W48005   9.324  15.437  12.571 -0.0442  0.0704 -0.1904
32875W        W48006   7.434   2.127   4.972 -0.2155 -0.1486  0.0830
32876W        W48007   1.913  13.003  14.960  0.0506 -0.0699 -0.2374
32877W        W48008   0.633   8.727   0.561 -0.0963 -0.0169 -0.4042
32878W        W48009   7.350   3.709  13.179 -0.1091  0.3037  0.0234
32879W        W48010   4.101   4.305  16.316  0.1792  0.2714 -0.1332
32880W        W48011   4.790  16.823   5.287 -0.0331  0.2410  0.0886
32881W        W48012   4.114   0.723  12.360 -0.2238  0.0076  0.0605
32882W        W48013   9.468  12.577  14.341  0.0900 -0.1049  0.0025
32883W        W48014   4.987   2.853  11.889  0.0418 -0.0208  0.0832
32884W        W48015   1.761   0.387   3.664 -0.3078  0.1209  0.2667
32885W        W48016  14.724   0.729  13.972 -0.2842  0.1316  0.3085
32886W        W48017  13.031   4.035  14.744  0.0472  0.3238 -0.0406
32887W        W48018   0.046   4.562   1.208  0.1290  0.2766 -0.0564
32888W        W48019  10.712  10.434   0.601  0.0228  0.0456 -0.0876
32889W        W48020  15.774   1.324  12.424 -0.0598  0.0890  0.0315
32890W        W48021  10.246  10.393   3.623 -0.1479 -0.0602  0.3109
32891W        W48022   9.410   8.436  16.561 -0.3480  0.0848  0.3646
32892W        W48023   8.226  13.335   0.134 -0.1936 -0.1883  0.3165
32893W        W48024   8.849  11.961  12.988  0.1582  0.1129 -0.2044
32894W        W48025  12.715  13.103   5.964  0.0819 -0.1747 -0.0985
32895W        W48026   7.448   9.576  13.057  0.0725  0.2670  0.0173
32896W        W48027   1.121   5.788  14.821  0.2118  0.1398 -0.3793
32897W        W48028   0.119  12.253  12.972  0.1454 -0.1922 -0.0701
32898W        W48029   2.935  10.849  14.683 -0.0169  0.0988 -0.1347
32899W        W48030  10.678   6.272   1.907  0.0771  0.3173 -0.1031
32900W        W48031   3.602  16.121  16.295 -0.0878 -0.1138 -0.0740
32901W        W48032  14.832  10.479  11.985 -0.0672  0.1525  0.1073
32902W        W48033   8.482   6.876   3.867 -0.1471 -0.2214 -0.1083
32903W        W48034  12.323  15.555   1.915  0.2055 -0.2595 -0.3190
32904W        W48035  17.507  14.108  16.608  0.0347 -0.1803 -0.0218
32905W        W48036  15.957  10.484   6.463  0.1147  0.0098  0.1455
32906W        W48037  14.323   8.180  10.656 -0.0303  0.0931  0.1146
32907W        W48038  17.375   7.080  15.410  0.2308  0.2181 -0.0244
32908W        W48039   2.496  13.448   5.207 -0.2502  0.0628 -0.2312
32909W        W48040  13.603  12.084  15.600 -0.0669  0.0833  0.0645
32910W        W48041  15.876   7.744  13.901  0.0024 -0.1294  0.0290
32911W        W48042   8.766   6.458  14.929 -0.2525  0.0890  0.0524
32912W        W48043  16.196  13.443  15.117  0.1059  0.3207 -0.4545
32913W        W48044   0.861  10.558   3.751  0.1319  0.1462  0.1576
32914W        W48045  16.931   6.009   4.976 -0.1751 -0.3727 -0.2203
32915W        W48046  10.116   3.179   3.851  0.1042 -0.0886  0.1941
32916W        W48047   7.721  15.432   3.247 -0.1475 -0.1712 -0.2237
32917W        W48048   0.769  10.411   6.516 -0.1306 -0.1530  0.1553
32918W        W48049   5.665  14.625   1.166 -0.0634 -0.1412 -0.2166
32919W        W48050   8.901  17.137  10.526 -0.1504  0.4060 -0.3078
32920W        W48051   1.898   2.926   1.766 -0.1020  0.0277  0.3491
32921W        W48052  17.766  11.578   4.622 -0.3795  0.1600 -0.3505
32922W        W48053  17.182  14.973  12.279  0.3424  0.1876 -0.1452
32923W        W48054   7.094  13.252   2.053  0.1990 -0.4040 -0.2734
32924W        W48055   9.691   2.865   1.711 -0.0060  0.0661  0.0711
32925W        W48056  16.279  14.773   1.229  0.2461 -0.0592 -0.0377
32926W        W48057   7.073   3.995  11.836 -0.3799 -0.0878 -0.3195
32927W        W48058   3.512   3.742   1.841  0.3093  0.1071  0.0474
32928W        W48059   0.165  10.592  14.350 -0.1009 -0.1638 -0.2283
32929W        W48060  14.895   1.866   4.289 -0.3694 -0.2767  0.2963
32930W        W48061  17.678   5.280   4.178 -0.0681  0.3682 -0.1997
32931W        W48062   9.295   7.230   2.373  0.0809 -0.1806  0.1389
32932W        W48063   3.815   0.526   4.863  0.2395 -0.0395 -0.2582
32933W        W48064   8.529  14.757   4.905 -0.3440  0.1375 -0.5296
32934W        W48065  11.011   4.471   2.632 -0.1011 -0.0585  0.1724
32935W        W48066   6.211  16.437  12.522 -0.1306 -0.0910  0.0458
32936W        W48067  11.498   9.536  16.554  0.1872  0.1882 -0.1077
32937W        W48068   0.776  16.534  12.180 -0.1866  0.0045 -0.0604
32938W        W48069   5.958  10.885  16.747  0.1682 -0.1538  0.1005
32939W        W48070   3.726  11.078   0.259 -0.3947  0.1030  0.0798
32940W        W48071  10.632  15.415  15.008  0.1894  0.2067 -0.2400
32941W        W48072   6.500   7.180  16.122 -0.1580 -0.1090 -0.0726
32942W        W48073   3.984   2.105   3.063 -0.4772  0.2027  0.1136
32943W        W48074   1.224   0.732  10.649  0.3627  0.1246 -0.2117
32944W        W48075   5.066   0.864  16.674  0.0896 -0.0125  0.1645
32945W        W48076  12.560  16.804   0.920  0.4107 -0.0722  0.1460
32946W        W48077   1.435   6.553   5.772  0.0798 -0.0885 -0.2220
32947W        W48078   0.618   2.490  16.163 -0.0791 -0.0287  0.2232
32948W        W48079  15.726   5.147   1.553 -0.2362 -0.1712 -0.0818
32949W        W48080   1.563  15.249   6.000  0.2400  0.1351 -0.0073
32950W        W48081   6.250   2.157  16.700  0.0325  0.1955 -0.0922
32951W        W48082   5.259  17.185   4.541  0.1468 -0.1676  0.0740
32952W        W48083  11.532   6.364  15.845 -0.0309  0.2494  0.1904
32953W        W48084   7.542   3.934   2.787 -0.0778  0.0138  0.1677
32954W        W48085   6.584   9.416   5.029  0.0326  0.2248  0.3402
32955W        W48086   5.456  12.722   2.425  0.3211  0.0434  0.1966
32956W        W48087   2.025   9.658   3.459  0.2152  0.0589 -0.2194
32957W        W48088   0.980  15.482  12.585  0.1979 -0.1680 -0.1271
32958W        W48089  15.243   6.752   3.898  0.0530  0.1287  0.0240
32959W        W48090   2.592  15.395  16.608  0.0032 -0.2084 -0.0292
32960W        W48091   3.721  12.270  11.299  0.2374  0.2953 -0.2333
32961W        W48092  17.530  14.271  12.609 -0.1225 -0.1296 -0.3176
32962W        W48093   8.410   6.309  14.317 -0.3834  0.1280 -0.1387
32963W        W48094  13.585  10.854  13.803 -0.1484 -0.0262  0.1502
32964W        W48095  10.377   8.146  13.482 -0.1445  0.0985 -0.0084
32965W        W48096   0.764  10.486   5.297  0.2445 -0.0704 -0.1558
32966W        W48097  13.723   9.654   5.545 -0.1124 -0.0557  0.0982
32967W        W48098  14.703  14.776   0.403 -0.0237  0.0417  0.0500
32968W        W48099   5.561   3.803  12.833  0.0019  0.3449 -0.0106
32969W        W48100  10.554  17.159   3.660 -0.0519  0.2967  0.0956
32970W        W48101   2.724   5.750  12.800 -0.0007 -0.0008  0.2297
32971W        W48102   9.453   9.238  13.871 -0.0931 -0.0356 -0.2297
32972W        W48103   2.209  12.746   1.337  0.0833  0.3105 -0.1376
32973W        W48104   1.272   2.320   1.298  0.4008  0.0470 -0.2105
32974W        W48105   4.804   0.483   5.189 -0.2168 -0.0456 -0.0609
32975W        W48106  17.532  14.728   3.821  0.0165  0.3431 -0.1456
32976W        W48107  12.579   1.796   3.024 -0.1716  0.0286 -0.0495
32977W        W48108   9.225   1.057  10.953 -0.1363 -0.2041 -0.0261
32978W        W48109   8.090   2.737  12.017  0.0398 -0.0539  0.2472
32979W        W48110   2.740  12.857  15.365 -0.0956 -0.0222  0.1228
32980W        W48111   4.407   6.460  14.082 -0.1292 -0.0206 -0.0677
32981W        W48112   2.909  16.733  15.868 -0.0611 -0.0192  0.0034
32982W        W48113  12.047  15.564  12.092  0.0628 -0.2616 -0.1564
32983W        W48114   4.525   4.064  12.062  0.2227  0.2400 -0.0304
32984W        W48115  12.596  11.625   1.203  0.0392  0.3471  0.0705
32985W        W48116  15.307  12.907   0.842  0.2480 -0.0665  0.0674
32986W        W48117   1.929  10.105   1.611  0.1328 -0.0313 -0.0004
32987W        W48118   6.336   7.679   1.826  0.0222  0.0834  0.2350
32988W        W48119  16.745   1.924   3.454 -0.0616 -0.1742  0.2078
32989W        W48120   8.817   6.408  13.341  0.0171 -0.2652  0.2719
32990W        W48121  15.968  17.138   3.780 -0.0899 -0.1784 -0.0121
32991W        W48122  15.126   3.929  12.522 -0.2977 -0.0719 -0.0553
32992W        W48123  17.197  10.950  12.920  0.3001 -0.0059 -0.0637
32993W        W48124  16.323  14.908  14.699  0.0120  0.1495  0.0305
32994W        W48125  15.791   5.084  11.027 -0.0925  0.1208  0.0937
32995W        W48126   3.885   3.575  14.540  0.1459 -0.1772  0.0927
32996W        W48127   1.314  12.045   1.981  0.3698 -0.0731 -0.0810
32997W        W48128   6.288   3.181  15.078 -0.0422  0.0559 -0.0610
32998W        W48129   7.150  16.754   3.249  0.0859 -0.1668  0.0887
32999W        W48130   9.884  16.565   1.798  0.0597  0.0633 -0.2059
33000W        W48131   1.374  15.569   6.850  0.1078  0.0380 -0.0149
33001W        W48132   0.176   6.399  14.220  0.1157  0.0128 -0.0276
33002W        W48133   3.176  10.479   0.947 -0.2235  0.3232  0.3463
33003W        W48134   4.726   3.189  11.192  0.0658  0.2150 -0.1529
33004W        W48135   6.844   7.534  15.736 -0.2645  0.0013 -0.1484
33005W        W48136   9.825   0.910   2.947  0.3929 -0.2055  0.2384
33006W        W48137   0.184   3.544   3.721  0.2045  0.0866  0.0003
33007W        W48138   0.674  16.141  16.737 -0.1759 -0.2075  0.1180
33008W        W48139   5.987   7.532  15.050  0.3015  0.0512  0.1010
33009W        W48140  10.803  11.947  10.633 -0.1525 -0.2496  0.1578
33010W        W48141   5.689   8.073  13.931 -0.1522 -0.1449  0.1312
33011W        W48142  11.375  15.773   2.169  0.1186  0.2934 -0.1002
33012W        W48143   2.066   9.642   2.352  0.0534 -0.0892 -0.2017
33013W        W48144  13.474   6.512  13.501  0.1979 -0.0445  0.0975
33014W        W48145  15.195   5.484   2.350 -0.0015  0.4128 -0.2353
33015W        W48146  13.211   1.703  13.588  0.0549 -0.1059 -0.2183
33016W        W48147   5.927   5.509   1.531  0.0487  0.3631  0.5551
33017W        W48148  14.546  10.956  16.298 -0.0218 -0.0720 -0.1860
33018W        W48149  10.292   6.675   1.972 -0.1627  0.1152 -0.0946
33019W        W48150  15.820   6.734  14.434  0.2452  0.0046  0.1889
33020W        W48151   7.252  11.519  13.919  0.0779  0.1591 -0.0767
33021W        W48152  16.624   8.601   5.309  0.1248  0.4544  0.2014
33022W        W48153  11.146  11.185  14.491  0.0517  0.1645  0.0335
33023W        W48154   4.682   5.562  14.461  0.0558 -0.1626  0.0077
33024W        W48155  16.354  12.824   5.103 -0.4364 -0.1172 -0.0729
33025W        W48156  13.409   3.883  11.047  0.2660 -0.1601  0.0803
33026W        W48157   2.815   1.740  15.349 -0.0139  0.0584  0.0585
33027W        W48158   0.057   6.120  15.915  0.0448 -0.4355  0.0704
33028W        W48159  16.039   0.512  15.105 -0.2494 -0.0761 -0.1245
33029W        W48160  14.043   6.568  16.354  0.0222  0.1166 -0.1536
33030W        W48161  14.740   5.380   4.773  0.0075  0.0836  0.0776
33031W        W48162   3.161   3.402  15.242 -0.0279 -0.1993  0.1781
33032W        W48163  14.379  11.343   4.097  0.0414  0.0361  0.2182
33033W        W48164   3.593  15.808  15.001  0.2493  0.1950  0.3137
33034W        W48165   8.474   0.115  13.561 -0.3980  0.0277  0.1806
33035W        W48166   6.452   0.661   1.359  0.0623 -0.2315  0.1970
33036W        W48167   9.113  17.243   3.627 -0.0657 -0.1279  0.2398
33037W        W48168   3.813   0.516  13.198 -0.2288  0.1540 -0.1710
33038W        W48169  17.687   1.412   3.954  0.0242  0.4964  0.1087
33039W        W48170  15.770  10.025  12.195 -0.0357 -0.2915 -0.0821
33040W        W48171   2.815   4.357   3.371  0.5834 -0.1473 -0.1829
33041W        W48172   6.327   3.810   2.191  0.2081  0.2119  0.0243
33042W        W48173   2.817   6.422  13.661 -0.1131  0.4418 -0.2058
33043W        W48174  10.102   8.563  16.215  0.1910  0.3805  0.2298
33044W        W48175   6.436  14.503  14.278  0.0955 -0.1179 -0.0351
33045W        W48176   2.826  16.764   3.562 -0.0738 -0.1715 -0.1228
33046W        W48177  17.485   0.659  14.386  0.0488 -0.2474  0.1013
33047W        W48178  11.227   0.760  10.456  0.1320  0.3088 -0.0741
33048W        W48179   3.824   7.171  12.865  0.2988  0.2131  0.1441
33049W        W48180   1.974  15.669   2.298  0.0130 -0.0501 -0.2482
33050W        W48181   8.319   6.619   1.526 -0.2861 -0.2980  0.2749
33051W        W48182  14.796   8.842  14.624  0.1940 -0.2766 -0.2026
33052W        W48183   0.138  15.543   2.269  0.1899 -0.1628 -0.0544
33053W        W48184   9.517   7.769  13.567  0.2414  0.2647  0.0970
33054W        W48185  12.468  11.573   2.329 -0.0586  0.1401  0.0524
33055W        W48186  16.772  14.820  16.543 -0.0357  0.0771 -0.0756
33056W        W48187   4.155  12.399  11.615 -0.2244  0.0590  0.1515
33057W        W48188   6.887   4.503   4.697 -0.3933 -0.0964  0.1051
33058W        W48189  12.753  14.086  12.915 -0.1230 -0.1129 -0.1008
33059W        W48190  10.119   4.822  16.711  0.0287  0.0773 -0.0394
33060W        W48191   3.441  11.725  12.130 -0.2974 -0.2360 -0.1323
33061W        W48192  10.847   8.346   5.484  0.1899  0.2827 -0.1854
33062W        W48193   4.386   1.250   2.965  0.3409 -0.2574 -0.1229
33063W        W48194   8.142   1.113  13.236  0.1817 -0.1422  0.0391
33064W        W48195   8.061  17.092   1.635 -0.1577  0.3777 -0.1430
33065W        W48196  12.134   7.800   4.997 -0.1383 -0.0017  0.0594
33066W        W48197   7.200  16.785   0.612  0.3500 -0.0739 -0.1923
33067W        W48198  15.102  14.372  15.377 -0.0745  0.1942 -0.2955
33068W        W48199   3.351  10.423  15.522 -0.0440  0.3656 -0.1005
33069W        W48200  10.211   6.974   4.146 -0.1490  0.0446  0.1969
33070W        W48201   3.213   8.982   2.121  0.0620 -0.0551  0.1969
33071W        W48202  11.549  17.160   5.233 -0.1428 -0.0446  0.1472
33072W        W48203   7.790   6.726  16.336  0.1330  0.0012 -0.2770
33073W        W48204  10.675   5.656   3.249  0.0790  0.0455  0.1348
33074W        W48205   3.862   7.354   2.966  0.1442  0.1458 -0.0447
33075W        W48206  10.609   3.170  13.246  0.3499  0.2291  0.2445
33076W        W48207  10.484  15.433  12.522 -0.3283 -0.1113 -0.0195
33077W        W48208  13.539   0.855  13.517 -0.0627  0.1771  0.1553
33078W        W48209   8.652   8.199  14.640 -0.1229 -0.1057 -0.1358
33079W        W48210   0.821   7.783   1.456  0.3174  0.0697  0.0439
33080W        W48211  14.915   4.895   0.942  0.0434  0.2149  0.1644
33081W        W48212   4.178   5.679   3.791 -0.1219 -0.1331 -0.0690
33082W        W48213   9.053   9.807   4.833 -0.1385 -0.2862  0.0589
33083W        W48214  10.214  13.101  11.187 -0.4730 -0.1165  0.0578
33084W        W48215   3.261  12.260   4.834  0.1244 -0.2648 -0.2771
33085W        W48216  15.981   0.125  16.770 -0.1530 -0.0292  0.2982
33086W        W48217   7.764   1.901  13.530 -0.0991  0.1308  0.1520
33087W        W48218   8.368   7.539  16.149  0.0572 -0.2674  0.0490
33088W        W48219  13.440   6.779  12.956 -0.1008  0.1622 -0.1186
33089W        W48220   8.106   4.327   5.215  0.1574  0.3630  0.1093
33090W        W48221   8.507   6.581  15.815 -0.1026 -0.2384  0.0417
33091W        W48222   1.087   5.702   6.045 -0.0505 -0.2915  0.0942
33092W        W48223   5.634  10.477  11.777 -0.2484 -0.1583  0.0435
33093W        W48224   0.995   6.841   2.261  0.1804 -0.2561  0.4540
33094W        W48225   7.922  15.755  13.410 -0.0812  0.0133  0.1557
33095W        W48226  12.051   9.746  12.527  0.2513 -0.0387 -0.1143
33096W        W48227   4.516   9.146   4.492  0.2553 -0.2748  0.1371
33097W        W48228  17.771  16.029   1.267 -0.0764 -0.1353  0.1084
33098W        W48229   5.777   4.284   0.666 -0.2476 -0.4721  0.2800
33099W        W48230  11.446  16.113  11.848 -0.0426  0.0185  0.2937
33100W        W48231  12.379   3.084  13.161 -0.1142 -0.0722 -0.1626
33101W        W48232   6.384  11.287  14.074 -0.2099 -0.1130  0.1875
33102W        W48233  11.022   6.844  14.224 -0.0060 -0.0448 -0.1836
33103W        W48234   5.421  13.826   3.739  0.0486 -0.1910 -0.3173
33104W        W48235   7.038   9.038  11.620 -0.1861 -0.2839 -0.1640
33105W        W48236  12.618  11.363  13.696 -0.0492  0.0909  0.1407
33106W        W48237  15.799   8.327  15.120  0.0953  0.1038  0.1614
33107W        W48238   4.186   7.813  14.130  0.1081 -0.1214  0.0629
33108W        W48239   6.004   2.995   1.946  0.0154 -0.2550  0.1657
33109W        W48240  10.925  12.082   5.830 -0.0679  0.1318  0.1071
33110W        W48241   8.317   4.778  12.052  0.0248  0.1647  0.0555
33111W        W48242   3.373  16.392   5.019  0.2385  0.0524 -0.1033
33112W        W48243   7.866  13.931   4.024 -0.1104  0.3092 -0.4320
33113W        W48244   1.364  14.870   3.404  0.0719 -0.1576  0.2683
33114W        W48245  10.325  14.370   5.173  0.1942 -0.0851  0.0238
33115W        W48246   5.579   6.063   0.769 -0.3499  0.3429 -0.0883
33116W        W48247  16.697   2.180  10.494  0.0563 -0.1298  0.1673
33117ION     NA48248   3.060   2.861  10.564  0.0768  0.2867  0.0065
33118ION     NA48249   8.640  12.737  10.669  0.0043  0.1143 -0.2760
33119ION     NA48250  16.235  15.171  10.515 -0.2859  0.0269 -0.3104
33120ION     NA48251  10.547  15.115  10.492  0.3848  0.0429 -0.0135
33121ION     NA48252  12.690   1.808  12.705 -0.4248  0.1840  0.0691
33122ION     NA48253  12.764  17.622  14.309  0.1755  0.1673 -0.1052
33123ION     NA48254  16.967  15.651  10.887 -0.0797 -0.1797  0.2779
33124ION     NA48255  17.637  17.117   6.848 -0.4685  0.0291 -0.0504
33125ION     NA48256   5.202   9.421  10.288  0.2596 -0.3657  0.1311
33126ION     NA48257  16.027   8.972  10.328  0.0318  0.0844 -0.0988
33127ION     NA48258   0.800   1.543   6.606 -0.3248  0.1776  0.4282
33128ION     NA48259  15.029   8.776   6.348 -0.1101 -0.1928 -0.3029
33129ION     NA48260  16.702   8.419  10.649 -0.4442  0.0548 -0.1444
33130ION     NA48261   8.238   2.418   9.761 -0.4802 -0.1137 -0.3221
33131ION     NA48262   3.596  10.248  10.399  0.0615  0.1221  0.1408
33132ION     NA48263   5.985   0.264  12.690 -0.1492  0.3008 -0.0604
33133ION     NA48264   9.959   5.917   5.981  0.1514 -0.0353 -0.2105
33134ION     NA48265  15.041   7.332  10.661  0.1915  0.5015  0.3275
33135ION     NA48266   8.998   4.930  10.106 -0.3324 -0.0007  0.0771
33136ION     NA48267   5.925  15.993  12.868  0.1321 -0.0577 -0.1561
33137ION     NA48268   6.716   6.369  10.545 -0.3260 -0.0375 -0.0075
33138ION     NA48269  11.179   2.970   5.670  0.4669 -0.1142 -0.0234
33139ION     NA48270   8.711  10.381   6.468  0.0992  0.1432 -0.0476
33140ION     NA48271  17.296  12.979  10.642 -0.1367  0.2281  0.0753
33141ION     NA48272   5.542   8.252  10.698 -0.1488  0.2569 -0.0164
33142ION     NA48273  10.907  11.853  14.733  0.2710  0.1975 -0.0613
33143ION     NA48274  10.578  12.038   2.831  0.0242 -0.2479 -0.2688
33144ION     NA48275   1.551   0.331  12.689  0.3116  0.0169 -0.1092
33145ION     NA48276  13.200  13.346  11.363 -0.0171 -0.2517  0.0002
33146ION     NA48277   4.388  12.475  10.783 -0.3862  0.0926  0.2636
33147ION     NA48278   2.806  15.188   6.341  0.2393 -0.0833  0.3020
33148ION     NA48279  12.172   8.907   1.185 -0.3937  0.0767 -0.0544
33149ION     NA48280  14.135   9.650   2.569 -0.0083 -0.2870 -0.2637
33150ION     NA48281   7.042   5.331   6.084 -0.0558  0.1911 -0.3332
33151ION     NA48282   3.096  11.925  15.231 -0.0789 -0.2806  0.1766
33152ION     NA48283  15.068  12.671  10.838  0.2041  0.0415 -0.2576
33153ION     NA48284   6.031  16.368   3.033 -0.2236 -0.1375 -0.1688
33154ION     NA48285  16.868  11.670  16.252 -0.0112  0.1014  0.1013
33155ION     NA48286  17.119   4.212  10.202  0.7023 -0.1089 -0.1669
33156ION     NA48287  15.880  13.578  10.690 -0.2268  0.1341  0.0512
33157ION     NA48288   2.467   1.040  11.140  0.0811 -0.1240  0.1498
33158ION     NA48289  13.840   7.702   3.295 -0.0047 -0.0495 -0.1411
33159ION     NA48290  13.105  17.076  10.329  0.0122  0.2048 -0.1200
33160ION     NA48291   9.965  11.769  10.735 -0.1865 -0.0597  0.3194
33161ION     NA48292   6.456  10.263   5.867 -0.2995  0.2444 -0.0313
33162ION     NA48293  11.176  14.606   5.480 -0.0158  0.0564 -0.0078
33163ION     NA48294  10.991  16.877  15.855  0.0200  0.0816  0.2502
33164ION     NA48295  16.325   2.346   1.139  0.0686  0.0893  0.1206
33165ION     NA48296  10.439   8.305   2.166 -0.1388  0.2002  0.1244
33166ION     NA48297   7.239  16.449  10.529 -0.1365  0.1078  0.3824
33167ION     NA48298   0.244   4.178  14.857 -0.2491 -0.3486  0.4222
33168ION     NA48299   7.396  17.734   5.989 -0.1073 -0.3241  0.3745
33169ION     NA48300  15.905  17.114  10.803 -0.0134 -0.0775 -0.0264
33170ION     NA48301   3.375   8.687  10.644  0.2942  0.0200  0.1608
33171ION     NA48302  11.685   9.900   6.145 -0.2038 -0.2833  0.1078
33172ION     NA48303   8.747  15.179  10.571 -0.3198 -0.1093 -0.0389
33173ION     NA48304  15.678  17.479   0.748 -0.1786  0.1215  0.0484
33174ION     NA48305   3.387  10.316   1.919  0.1090 -0.0305 -0.2237
33175ION     NA48306  15.918   9.782  15.945  0.2191  0.1848  0.1272
33176ION     NA48307   7.686   0.103   1.621 -0.2241  0.3822  0.2695
33177ION     NA48308   2.120   2.829   6.018  0.1024 -0.1531 -0.2727
33178ION     NA48309   6.951   6.361  13.029 -0.3226 -0.1365 -0.0522
33179ION     NA48310   4.023   7.271   6.277 -0.3815 -0.2323 -0.1050
33180ION     NA48311   2.627  17.422  11.062  0.0183  0.1312  0.1182
33181ION     NA48312  16.913   6.581  10.217  0.2889 -0.0265  0.0675
33182ION     NA48313   0.162   8.693   6.444  0.0138  0.3986  0.1209
33183ION     NA48314  15.798  12.275   6.301 -0.1149 -0.1424 -0.2555
33184ION     NA48315  14.263   8.426   6.444 -0.1091 -0.1518 -0.0486
33185ION     NA48316  11.109   7.203   6.409  0.1577 -0.0529  0.2866
33186ION     NA48317  15.131   1.691  13.943  0.3791 -0.1549  0.1630
33187ION     NA48318   9.418  11.263  11.337  0.0671 -0.0311  0.2628
33188ION     NA48319   9.224  11.968   6.410 -0.0349 -0.0679  0.0306
33189ION     NA48320   9.036   1.703   5.615  0.0628 -0.0372  0.1674
33190ION     NA48321  12.360  12.431  10.456  0.0072  0.1617  0.0995
33191ION     NA48322   0.406  12.664  16.217 -0.2804  0.1362  0.2151
33192ION     NA48323  13.111  12.879  10.607  0.2202 -0.1923 -0.2402
33193ION     NA48324  17.837   3.701  10.332 -0.3029  0.1706  0.0789
33194ION     NA48325   1.243  16.379  12.253 -0.0113 -0.0414 -0.0343
33195ION     NA48326  13.257   1.013  11.686 -0.2135 -0.2806 -0.3747
33196ION     NA48327   8.331  10.840  10.871  0.2032 -0.3125  0.1799
33197ION     NA48328   1.863   7.395   6.123 -0.0576 -0.1509 -0.1348
33198ION     NA48329   4.618   1.386  10.568  0.0012 -0.1069  0.2979
33199ION     NA48330  10.934  14.923  11.701  0.0742 -0.1345  0.1344
33200ION     NA48331  13.368  15.621  10.293  0.0741 -0.0199 -0.1833
33201ION     NA48332   9.338   0.950   9.972  0.1218  0.0981  0.0175
33202ION     NA48333   4.967   3.028   6.047  0.1994 -0.0818 -0.1928
33203ION     NA48334   5.068  12.267   6.063  0.0644  0.0437 -0.2298
33204ION     NA48335  15.853   1.779   1.796  0.0134  0.3320  0.1264
33205ION     NA48336   2.675  12.867   5.908  0.2094 -0.2099  0.1400
33206ION     NA48337   5.809   0.928  15.071 -0.1425 -0.3892  0.1642
33207ION     NA48338   0.096   8.010  10.524  0.1731  0.0008  0.3343
33208ION     NA48339  12.745   5.740  15.113 -0.2181  0.0711 -0.2014
33209ION     NA48340  14.448   5.028  10.206  0.2358 -0.2080  0.2470
33210ION     NA48341   5.129   3.490   5.520  0.1323  0.1128 -0.0524
33211ION     NA48342   0.678  10.239   2.431 -0.3730 -0.0826 -0.1772
33212ION     NA48343  13.901   2.921   3.598  0.0337 -0.2640 -0.0522
33213ION     NA48344  16.346  14.034  15.722 -0.1765 -0.2432  0.3488
33214ION     NA48345  14.870  12.696   6.124  0.0983  0.1286  0.3023
33215ION     NA48346  14.579  15.583  10.286 -0.1380  0.1849  0.1315
33216ION     NA48347   5.705  10.229  10.624 -0.3487 -0.0772 -0.2373
33217ION     NA48348   3.339   5.021  10.639 -0.2132  0.0205 -0.1213
33218ION     NA48349  16.973   0.280  11.023 -0.1859  0.2372  0.0696
33219ION     NA48350  14.013   9.120  10.514  0.2971 -0.0997  0.2230
33220ION     NA48351   0.594   4.854   5.901 -0.1387 -0.1353  0.0649
33221ION     NA48352  10.544   2.417   5.916 -0.0189 -0.3718 -0.3498
33222ION     NA48353   3.849   1.910   4.750 -0.3048  0.3751 -0.1862
33223ION     NA48354  14.831  17.017  10.699 -0.0451 -0.0598  0.2209
33224ION     NA48355   4.392   3.747  10.466 -0.0397 -0.0627 -0.1122
33225ION     NA48356  16.729  12.357  10.638 -0.3491  0.0543 -0.2327
33226ION     NA48357  16.213   8.995  14.444 -0.0200  0.1377 -0.5210
33227ION     NA48358   6.268   4.653  10.384  0.1066 -0.2054 -0.2113
33228ION     NA48359   1.419  16.946  11.371 -0.1322 -0.0247  0.1427
33229ION     NA48360   9.959  17.473  10.238  0.1920  0.1876  0.0552
33230ION     NA48361  14.362   0.391  10.426 -0.1067 -0.1048  0.0578
33231ION     NA48362  14.645   7.956   6.383  0.3317  0.0517  0.1007
33232ION     NA48363   8.397  17.350  10.453 -0.0252  0.3136 -0.0963
33233ION     NA48364  13.172   5.483   6.329 -0.1657 -0.1411 -0.0392
33234ION     NA48365   9.835  15.681  10.631  0.1807 -0.1899  0.3678
33235ION     NA48366  11.611  16.960   1.181  0.1035  0.2306  0.0123
33236ION     NA48367   3.551  12.403   5.942  0.0245 -0.0124 -0.1720
33237ION     NA48368   7.799  10.689  12.567 -0.0559 -0.1021  0.3178
33238ION     NA48369   6.166   9.451  15.853  0.2280  0.2376  0.3510
33239ION     NA48370   4.521  11.846   0.392  0.0658 -0.1481  0.1413
33240ION     NA48371  10.111  11.241  10.750 -0.0949  0.3543 -0.0089
33241ION     NA48372   8.280   5.426  10.270 -0.0428 -0.0205 -0.2979
33242ION     NA48373   8.501   6.561  16.699  0.1225 -0.1340  0.2126
33243ION     NA48374  10.831   3.360  10.217  0.1903 -0.0390 -0.0473
33244ION     NA48375  12.423   9.874   6.284  0.2265 -0.0736  0.1295
33245ION     NA48376  12.210  15.103  10.792 -0.0005  0.1957 -0.0623
33246ION     NA48377   3.493   4.393  14.721 -0.1593 -0.1726 -0.0345
33247ION     NA48378  16.122   0.109  10.691 -0.1612 -0.0980 -0.1101
33248ION     NA48379   4.631  15.023  10.989 -0.1230 -0.0306 -0.1866
33249ION     NA48380   2.051   4.533   4.312 -0.0619 -0.1461 -0.3752
33250ION     NA48381  13.485   2.953  10.569 -0.1843  0.1886  0.1413
33251ION     NA48382  16.759  17.574   6.686  0.0272 -0.0230  0.1340
33252ION     NA48383   4.928  17.861  10.613  0.0331 -0.1867 -0.1278
33253ION     NA48384  14.856  12.031  14.065 -0.0604  0.0488  0.0854
33254ION     NA48385   5.458   0.897  10.720 -0.1644 -0.2678  0.1321
33255ION     NA48386  12.923   7.874  10.378 -0.2079  0.0903 -0.0994
33256ION     NA48387   5.329   7.422  10.659 -0.0187 -0.2349 -0.0121
33257ION     NA48388  17.356   8.843  10.852 -0.3325  0.1054  0.1666
33258ION     NA48389   7.807   9.763  10.742  0.1878  0.1872 -0.0033
33259ION     NA48390   5.499   6.228  10.630  0.3842  0.3432  0.1920
33260ION     NA48391  16.509   2.642  10.545  0.2076  0.1329  0.1417
33261ION     NA48392  11.178  17.305  10.218  0.1186  0.0657  0.2513
33262ION     NA48393   5.365  13.907  12.843 -0.1373 -0.0596  0.0304
33263ION     NA48394   4.951   5.778  15.060  0.1092 -0.0215 -0.2859
33264ION     NA48395  13.573  15.020   2.814 -0.2545 -0.2497  0.0274
33265ION     NA48396   2.796  11.780   0.961  0.0972 -0.1581 -0.0786
33266ION     NA48397   0.402  15.592  11.229  0.0065 -0.2089 -0.0351
33267ION     NA48398   9.919  16.422  13.277  0.2691  0.0779 -0.0697
33268ION     NA48399   0.367  14.043  11.081 -0.1679  0.4065  0.1094
33269ION     NA48400   6.744   1.333  11.024  0.2178 -0.2167  0.0629
33270ION     NA48401   8.088  16.515  10.560  0.0193 -0.0199 -0.0436
33271ION     NA48402  14.656   9.639  10.438 -0.0089  0.4108  0.1561
33272ION     NA48403  12.870  11.467  10.570  0.1273 -0.1434  0.1238
33273ION     NA48404   8.598   3.959  10.099 -0.0987 -0.4148 -0.1850
33274ION     NA48405   2.299  11.478  10.403  0.1767 -0.0425  0.1326
33275ION     NA48406   4.579  12.124  10.463 -0.1198  0.0070  0.1622
33276ION     NA48407  16.569   9.328  10.570  0.2448  0.0006 -0.0594
33277ION     NA48408  17.303   2.185   2.597 -0.1343 -0.0998 -0.1445
33278ION     NA48409   7.959   8.424  10.660  0.1983 -0.1263 -0.1345
33279ION     NA48410   5.432  13.658  10.696  0.1126 -0.0554 -0.2738
33280ION     NA48411   7.715   6.326  10.287 -0.1773 -0.1981  0.0353
33281ION     NA48412  11.743   8.982  10.762 -0.0106  0.0961 -0.2370
33282ION     NA48413  17.125  12.037  10.589 -0.1629 -0.1157  0.0461
33283ION     NA48414   3.530  13.638  10.700 -0.0843 -0.0074  0.1642
33284ION     NA48415  14.654  10.717  10.522  0.0541  0.0508  0.0498
33285ION     NA48416   1.762   4.922  15.220 -0.2080 -0.0499  0.3131
33286ION     NA48417  17.624   5.716   0.979  0.0028 -0.1805  0.2085
33287ION     NA48418   3.067   7.543  10.319 -0.0354  0.1163 -0.0771
33288ION     NA48419  14.312  12.307  10.643 -0.2592 -0.0530  0.0629
33289ION     NA48420  16.625   0.909  10.668 -0.0754  0.0688 -0.1484
33290ION     NA48421   5.880  10.952  10.844 -0.1222 -0.1790  0.2612
33291ION     NA48422  14.020  15.093  10.447 -0.1224 -0.0180  0.3898
33292ION     NA48423   5.304   2.102  10.558 -0.0523  0.1807 -0.1054
33293ION     NA48424   8.866   9.993  10.882  0.1521 -0.4224 -0.0430
33294ION     NA48425  13.658   0.998  14.979 -0.1569  0.1426 -0.0153
33295ION     NA48426   5.477  17.092  10.676  0.0360 -0.0499 -0.2039
33296ION     NA48427  11.767  14.106  10.212  0.0282  0.1945  0.0716
33297ION     NA48428   9.396  10.495  10.814  0.0155  0.0559 -0.2337
33298ION     NA48429  15.795   0.825  10.575  0.0623  0.3070 -0.1808
33299ION     NA48430   9.423  16.806  10.535 -0.1507 -0.2366 -0.2930
33300ION     NA48431  13.000   3.635   0.258  0.1316  0.1425 -0.1869
33301ION     NA48432   1.036   4.813  10.975 -0.1603 -0.0700 -0.1652
33302ION     NA48433   2.632   1.796   5.503 -0.0673  0.1370  0.1408
33303ION     NA48434   7.702   0.914  10.015 -0.0687 -0.1763 -0.0988
33304ION     NA48435  14.034  12.147  13.465  0.1470 -0.1827 -0.2495
33305ION     NA48436  16.004   9.881  10.617  0.1067  0.2242 -0.2659
33306ION     NA48437  16.278  14.292  10.772 -0.2111  0.1847  0.1185
33307ION     NA48438   7.936   7.168  10.580  0.1881 -0.2764 -0.3142
33308ION     NA48439  10.528   9.910  11.010  0.3196  0.0899 -0.1977
33309ION     NA48440  12.698   6.652  10.479  0.1320  0.0959 -0.0370
33310ION     NA48441   5.564   8.380  12.954 -0.1180  0.0180 -0.2924
33311ION     NA48442   4.587   2.190  10.387  0.2000  0.0357  0.1681
33312ION     NA48443   5.801   6.720   6.198 -0.1416 -0.1312 -0.0344
33313ION     NA48444   5.585  10.880   4.406  0.0379  0.1541  0.0981
33314ION     NA48445  10.839  11.469  10.383 -0.0404 -0.0630  0.0364
33315ION     NA48446   0.528   2.113   6.331  0.0833 -0.0343 -0.0862
33316ION     NA48447   2.142   9.048  10.679 -0.2458 -0.0268  0.0438
33317ION     NA48448  11.440  10.358   4.312 -0.2768  0.0462  0.1639
33318ION     NA48449   7.354   2.805  10.031  0.0175 -0.0945 -0.0173
33319ION     NA48450   4.557  14.108  10.754 -0.1112 -0.1578 -0.2574
33320ION     NA48451   4.431   7.072   5.540 -0.0647 -0.2710 -0.1463
33321ION     NA48452   1.187  11.761  13.646  0.1242  0.2518 -0.0630
33322ION     NA48453  17.326  11.191   0.963 -0.0271  0.1296 -0.1919
33323ION     NA48454  15.347  12.182   4.096  0.0808  0.0595  0.1499
33324ION     NA48455   5.151  10.682   2.616  0.0980  0.0015  0.2575
33325ION     NA48456  14.256  10.392  10.415 -0.0382 -0.0142 -0.1799
33326ION     NA48457  15.168   0.856   6.297  0.0674  0.0788  0.1346
33327ION     NA48458   8.568  13.138  15.270 -0.1614 -0.4973  0.0567
33328ION     NA48459  15.464  15.416  10.406 -0.0632  0.0330 -0.1064
33329ION     NA48460  15.702   1.737  10.592  0.2391 -0.1009  0.0773
33330ION     NA48461   0.208   9.049  10.520  0.2116 -0.2603  0.1512
33331ION     NA48462  16.024  10.463  10.619  0.0689  0.2803 -0.0034
33332ION     NA48463   3.832  10.380  11.820 -0.1273 -0.0815 -0.1543
33333ION     NA48464   5.928  12.785  10.312 -0.1251  0.2240  0.1124
33334ION     NA48465  17.524   3.423  11.306 -0.1157  0.2587  0.1443
33335ION     NA48466   6.266   1.588  10.382  0.2140 -0.0812  0.0110
33336ION     NA48467   7.391  16.425   3.776 -0.0053  0.0277  0.0984
33337ION     NA48468   6.021  11.663  10.509  0.1786 -0.2569  0.1060
33338ION     NA48469  13.558  12.046  10.544  0.0620  0.1015 -0.1574
33339ION     NA48470  15.773   0.001  14.933  0.1512  0.2025  0.0384
33340ION     NA48471   1.892   4.225  10.563  0.1864  0.1718  0.0086
33341ION     NA48472   0.040  13.129   6.506  0.1908  0.1615  0.2822
33342ION     NA48473  17.839   6.299  12.779 -0.2772  0.4453  0.0182
33343ION     NA48474  10.333   1.109  10.110 -0.4323  0.1182  0.1393
33344ION     NA48475   2.743  14.710  14.660 -0.0172 -0.1776 -0.1681
33345ION     NA48476  17.845  14.900  11.630  0.1806  0.0938  0.2508
33346ION     NA48477   2.043   2.034  10.996 -0.3074 -0.1375  0.0848
33347ION     NA48478   2.195   7.138  10.187 -0.2117  0.0662 -0.0674
33348ION     NA48479   5.997   4.062   5.855 -0.3090 -0.5817 -0.2156
33349ION     NA48480   9.030  13.860  10.400  0.4245  0.0346 -0.3036
33350ION     NA48481  14.414   0.067  12.687  0.0471  0.1494 -0.0420
33351ION     NA48482  17.362   4.803  10.455 -0.0786  0.1667 -0.0297
33352ION     NA48483  16.465   8.076  14.479  0.0893 -0.1063 -0.0886
33353ION     NA48484  12.455   5.559  10.553  0.3215 -0.3476 -0.0773
33354ION     NA48485   6.430  15.449  10.776 -0.0174 -0.0918 -0.1135
33355ION     NA48486  11.740  16.338  10.966  0.0996  0.2218  0.0951
33356ION     NA48487  12.559   8.812  15.754  0.2562 -0.0052  0.1100
33357ION     NA48488   8.364   0.323  12.225  0.0165 -0.1357  0.0303
33358ION     NA48489  15.767   6.772  15.818  0.1678 -0.1059  0.0160
33359ION     NA48490   5.393   6.561   3.820 -0.0348 -0.2235 -0.0138
33360ION     NA48491  11.778   4.486   0.421  0.0749  0.4331  0.0054
33361ION     NA48492  16.841  13.686  10.749 -0.0109 -0.4535 -0.0605
33362ION     NA48493  13.650   0.918  10.453  0.1092  0.0876  0.0177
33363ION     NA48494   7.161  13.666  10.600  0.0091 -0.1236 -0.0074
33364ION     NA48495   3.237  17.402  12.003  0.2743  0.0198 -0.0407
33365ION     NA48496  11.524   5.151  12.930  0.2657  0.0870 -0.1497
33366ION     NA48497   0.286   2.492  10.715 -0.1525  0.0278 -0.1798
33367ION     NA48498   5.811   2.604  10.982 -0.2159  0.0903 -0.0552
33368ION     NA48499  15.161   4.365   0.013 -0.1273 -0.0218  0.2695
33369ION     NA48500  12.357   1.958  10.291 -0.3253  0.3124 -0.0485
33370ION     NA48501  11.187  10.659   6.153  0.1843  0.0970 -0.3519
33371ION     NA48502   7.143   8.692  14.607  0.1704  0.2874  0.1451
33372ION     NA48503  16.250   7.651   4.859 -0.3255 -0.0130 -0.1385
33373ION     NA48504  10.730  13.296  10.324 -0.0882 -0.1715 -0.2615
33374ION     NA48505  15.105   8.875  10.443  0.2864  0.2851 -0.1042
33375ION     NA48506  13.369  13.392   6.200  0.1836  0.0877  0.0047
33376ION     NA48507   5.755  16.203  10.696 -0.0121 -0.1176 -0.0753
33377ION     NA48508  12.285   0.967  10.775 -0.2485 -0.0741  0.0068
33378ION     NA48509  17.313   8.251   6.273 -0.1812  0.4400 -0.1239
33379ION     NA48510   3.950  13.445   6.076 -0.3633 -0.0091  0.1760
33380ION     NA48511  13.630  11.989   6.295 -0.1515  0.2983  0.0161
33381ION     NA48512   4.429   3.107   5.949 -0.1721 -0.1582  0.1037
33382ION     NA48513  17.232  15.126  10.937  0.0302  0.0377  0.2153
33383ION     NA48514   7.644   1.779  10.026  0.0209  0.4387 -0.1959
33384ION     NA48515   3.982   4.607  10.381 -0.0207  0.0674  0.0678
33385ION     NA48516   3.470  15.447   4.032  0.2022  0.2444 -0.1247
33386ION     NA48517   1.534  16.061   4.891  0.2315 -0.0352 -0.1081
33387ION     NA48518   8.976  16.084  10.600  0.1266  0.0024  0.1077
33388ION     NA48519   9.415   6.735   2.494  0.2041  0.0339 -0.2460
33389ION     NA48520  14.970   3.316   5.877  0.1616 -0.2912 -0.0611
33390ION     NA48521  11.018   0.257  14.495  0.3614  0.1276 -0.1240
33391ION     NA48522   9.955   8.587   6.144 -0.1478  0.0529  0.1421
33392ION     NA48523   0.422  17.284  11.267 -0.0950  0.1005  0.1056
33393ION     NA48524   6.559   6.709   1.030  0.0136  0.1793 -0.2778
33394ION     NA48525  17.699  12.514  10.941  0.2976  0.0716  0.0941
33395ION     NA48526  14.964   4.362  10.204 -0.1066 -0.1862  0.1184
33396ION     NA48527   3.091  15.563  11.045  0.0068  0.2621  0.0383
33397ION     NA48528  12.881  17.663   5.845 -0.0255 -0.1116 -0.1162
33398ION     NA48529  14.379  11.295  10.479 -0.2499 -0.0289  0.1648
33399ION     NA48530  12.373  15.961  10.463  0.0148  0.0468 -0.7553
33400ION     NA48531  11.579  13.948  12.595 -0.0157 -0.1543  0.2202
33401ION     NA48532   5.007   5.559  10.462  0.1791  0.0989  0.0257
33402ION     NA48533   3.116   4.839  14.624 -0.3877  0.1308 -0.2416
33403ION     NA48534  13.658  11.130  10.323  0.0364  0.1802 -0.1015
33404ION     NA48535   9.501  14.778  10.479  0.2724  0.2829  0.0719
33405ION     NA48536   0.866   3.287  10.473 -0.1683 -0.3898  0.2805
33406ION     NA48537   5.248   0.748  11.318  0.4655 -0.0582 -0.2134
33407ION     NA48538   5.560  15.427  10.746  0.2424 -0.0188  0.2276
33408ION     NA48539   4.431  17.025  13.398 -0.0193  0.3120  0.1649
33409ION     NA48540  15.201   1.485   6.294 -0.0463 -0.2605 -0.0392
33410ION     NA48541  13.058   1.112  14.837  0.4734  0.1841  0.1034
33411ION     NA48542  17.745  16.381  11.260 -0.0538 -0.0586 -0.1282
33412ION     NA48543   9.327  12.204  11.121 -0.0409 -0.1515  0.0399
33413ION     NA48544   7.513  11.216  10.948  0.3351 -0.1141 -0.1507
33414ION     NA48545   8.630   1.656   9.902  0.1784  0.1348  0.3238
33415ION     NA48546   0.938   7.850  10.387  0.1446  0.2759 -0.0439
33416ION     NA48547   1.997  10.998  12.208 -0.0566 -0.2169 -0.0539
33417ION     NA48548   7.817   6.389   4.872  0.2394 -0.0301  0.0095
33418ION     NA48549   1.331   2.301   6.193 -0.1885 -0.1243 -0.1671
33419ION     NA48550   3.745   5.050  11.618  0.0727 -0.0630  0.0388
33420ION     NA48551  15.911  17.754   6.478  0.0890  0.0100 -0.1715
33421ION     NA48552   8.062   8.959  10.670 -0.0585 -0.0054  0.1605
33422ION     NA48553   3.895  15.658  11.013  0.3831 -0.2028  0.3155
33423ION     NA48554  11.643   8.784   6.226  0.0603  0.1497 -0.1354
33424ION     NA48555   9.455  10.469   6.070  0.0363 -0.2055  0.3015
33425ION     NA48556   1.941  15.216   6.461  0.0052  0.1856  0.0634
33426ION     NA48557   0.061  15.732   1.683  0.2174  0.0436  0.2542
33427ION     NA48558  17.338  16.624  11.932  0.0573 -0.0662 -0.4143
33428ION     NA48559   5.110   2.670   3.330  0.0423  0.1548  0.0360
33429ION     NA48560   2.210  15.707  11.310 -0.1973 -0.0958  0.0611
33430ION     NA48561   3.603   4.279   6.028  0.0237 -0.1124  0.4366
33431ION     NA48562   1.094   6.783   6.061 -0.3294 -0.0497 -0.1084
33432ION     NA48563   0.151   1.698   6.142  0.0159  0.0832 -0.3669
33433ION     NA48564   5.242  16.798  13.343 -0.2028 -0.1368  0.3522
33434ION     NA48565  10.907   0.045   5.984 -0.1300  0.3570  0.0220
33435ION     NA48566  10.440   4.656  10.169 -0.0188  0.5742  0.0824
33436ION     NA48567  10.893   8.902   6.217  0.0276 -0.0815  0.1712
33437ION     NA48568   8.575   7.461   6.205 -0.3948 -0.0465  0.0524
33438ION     NA48569  13.142  14.217  10.561  0.0923  0.1557  0.2015
33439ION     NA48570   7.984   0.134  10.176  0.0900 -0.2625  0.1464
33440ION     NA48571  15.582  11.300   1.740 -0.2250  0.1666 -0.0177
33441ION     NA48572   4.867  11.175   0.062  0.1236 -0.0094 -0.0098
33442ION     NA48573   6.041   9.096  10.712 -0.0783  0.1058  0.3675
33443ION     NA48574   0.316   0.705   3.283  0.2091 -0.3966  0.0139
33444ION     NA48575  14.259   1.287  12.904  0.1528 -0.3228  0.0157
33445ION     NA48576  15.969   7.337  13.604  0.1919  0.2717  0.1331
33446ION     NA48577  10.769  12.915   6.097  0.0833 -0.2902  0.0674
33447ION     NA48578  13.050   0.813   6.038  0.1252 -0.1041 -0.1743
33448ION     NA48579  13.180  15.451   0.030 -0.3069  0.0853  0.0212
33449ION     NA48580   6.322   0.735  10.452  0.0773  0.2836  0.0912
33450ION     NA48581   6.128   3.587  10.236 -0.3237 -0.0752  0.2690
33451ION     NA48582   4.602   8.038  10.882 -0.0908  0.3165 -0.2914
33452ION     NA48583  13.738   8.016   6.095  0.0184  0.0012  0.2259
33453ION     NA48584  10.694   6.748  10.643  0.4701 -0.0600  0.0516
33454ION     NA48585   5.567  17.880  10.441 -0.1796  0.0546  0.0088
33455ION     NA48586   6.759   7.249  10.899  0.1665 -0.1408 -0.0335
33456ION     NA48587   3.539   3.565  10.519  0.1611 -0.0238  0.2392
33457ION     NA48588   2.552   5.432  10.604 -0.0803  0.0027  0.0382
33458ION     NA48589  12.762   1.802  14.315  0.2061  0.1979 -0.1386
33459ION     NA48590   2.045   1.580  14.932  0.3187  0.0275  0.1940
33460ION     NA48591  17.609   5.697  10.268 -0.1284  0.1644 -0.2477
33461ION     NA48592  15.390   1.159   5.409 -0.0514 -0.3781  0.1886
33462ION     NA48593   1.190   1.149  11.044  0.1478  0.2024 -0.3089
33463ION     NA48594  16.827  14.714  10.970  0.2591  0.3625  0.0592
33464ION     NA48595  14.252   4.130  10.458  0.1408 -0.2587 -0.1582
33465ION     NA48596   6.500  15.127   4.483  0.0036 -0.1566 -0.2897
33466ION     NA48597   1.235  12.529  10.779 -0.3295  0.0124 -0.0824
33467ION     NA48598  17.703  11.738   0.446 -0.2607 -0.1737  0.0829
33468ION     NA48599  11.880  14.340  10.624 -0.0015  0.0014 -0.3173
33469ION     NA48600  15.655   3.975   4.064 -0.0268 -0.1905 -0.0979
33470ION     NA48601   5.107  17.577   1.715 -0.2743 -0.1009 -0.0433
33471ION     NA48602  15.142  10.033  10.773 -0.2681 -0.1691  0.1518
33472ION     NA48603  11.905   3.445   5.432 -0.1118 -0.0775  0.0579
33473ION     NA48604   1.612   5.799  10.511 -0.0629  0.1808  0.2403
33474ION     NA48605   8.719   7.311  10.528  0.1337 -0.0550 -0.1253
33475ION     NA48606  11.173   6.008  10.336  0.2371  0.0453 -0.1764
33476ION     NA48607   3.271  13.710  11.214 -0.2391  0.3198  0.0418
33477ION     NA48608   9.357   9.808   4.356 -0.2567 -0.3999  0.0068
33478ION     NA48609  13.460   3.777  10.573 -0.4374 -0.0445  0.2031
33479ION     NA48610   7.410  17.753  10.526  0.1876 -0.0318 -0.2331
33480ION     NA48611  12.762   0.502   0.495  0.1094  0.1039  0.0795
33481ION     NA48612   5.491   2.379   6.035 -0.0294 -0.0810  0.1321
33482ION     NA48613  16.839   9.826  10.761 -0.1556 -0.3444 -0.1603
33483ION     NA48614  11.537  10.387  14.797  0.0932  0.0901 -0.1815
33484ION     NA48615  11.139   4.569   0.358 -0.0294 -0.0365 -0.0341
33485ION     NA48616  17.017   4.831  14.254 -0.1495  0.0012 -0.2807
33486ION     NA48617  17.651  11.503   6.583  0.0682 -0.0319  0.0260
33487ION     NA48618  12.831  17.007  11.202  0.0281  0.0334 -0.0021
33488ION     NA48619  12.266   9.669  10.630 -0.0140  0.1687  0.2824
33489ION     NA48620   6.172   8.021   2.105  0.0676 -0.0282 -0.2093
33490ION     NA48621   1.690   9.900  10.381  0.0561  0.1631 -0.0636
33491ION     NA48622  13.457  10.676  10.389  0.3123 -0.0746  0.0304
33492ION     NA48623   1.113   1.972  10.975 -0.0332  0.1469  0.0788
33493ION     NA48624   9.277   7.339  16.776 -0.0558  0.0804  0.2181
33494ION     NA48625  11.455  12.743  10.148  0.1573 -0.2618 -0.1177
33495ION     NA48626  15.914  13.653   6.253 -0.0824 -0.1237  0.0725
33496ION     NA48627   6.004  15.617   5.982  0.1712  0.2276  0.3242
33497ION     NA48628  11.500  11.626  10.733 -0.2382  0.1034  0.0959
33498ION     NA48629  13.035   2.493  10.237  0.2920  0.1398  0.0648
33499ION     NA48630   2.266  12.445  10.493  0.2144  0.0932 -0.4182
33500ION     NA48631  11.845  11.559   0.545  0.2006  0.1849 -0.1327
33501ION     NA48632   4.692   6.916  10.524  0.2064  0.2142  0.1773
33502ION     NA48633   1.107   1.028  13.663 -0.0902 -0.4883 -0.1454
33503ION     NA48634  10.687  16.061   5.925  0.0828 -0.2448  0.1677
33504ION     NA48635   6.360  13.986  10.733  0.0288 -0.1040 -0.1043
33505ION     NA48636  13.770   4.966   6.187  0.0246  0.0584  0.2281
33506ION     NA48637   7.868  11.964  11.469 -0.0896 -0.0387  0.1949
33507ION     NA48638  15.087  11.753  10.653 -0.5102  0.1858  0.0071
33508ION     NA48639  17.307  10.789  10.527 -0.2331 -0.0723 -0.0026
33509ION     NA48640  13.883   7.185  10.438 -0.0221  0.1437 -0.1691
33510ION     NA48641  11.557  15.883  10.280 -0.0023  0.1073  0.1321
33511ION     NA48642   2.472   6.281  10.239  0.0077 -0.2985 -0.0264
33512ION     NA48643   8.999   2.560  13.598 -0.0525 -0.1246  0.1561
33513ION     NA48644   9.678   7.059  10.578  0.0647 -0.0021  0.1110
33514ION     NA48645  10.272   6.008  10.515 -0.0118  0.1429  0.2819
33515ION     NA48646  15.507   9.073  12.628 -0.0840  0.0375 -0.0815
33516ION     NA48647   9.643   6.318  12.205 -0.1653  0.1316 -0.2190
33517ION     NA48648   2.853   4.164  10.577 -0.0369  0.4511 -0.1922
33518ION     NA48649  14.617  14.551  10.384 -0.0541  0.1080  0.0172
33519ION     NA48650  11.841   6.265  10.516  0.0706 -0.2054 -0.0039
33520ION     NA48651   3.480   6.364   5.993 -0.2355  0.1528 -0.0256
33521ION     NA48652   1.395  13.851  13.829  0.3546  0.0972  0.0185
33522ION     NA48653  12.877   7.505   6.022  0.0302 -0.1520 -0.1782
33523ION     NA48654  17.765   9.665  10.435  0.1673  0.1702  0.4253
33524ION     NA48655  16.458   4.997  10.070  0.2140  0.0875 -0.0164
33525ION     NA48656   9.223  17.561  11.367 -0.1483 -0.0005 -0.2984
33526ION     NA48657   7.476  10.493  10.876  0.4382 -0.2273  0.0012
33527ION     NA48658  17.200   5.736  13.939  0.3780 -0.0070  0.0746
33528ION     NA48659   7.613   1.459   5.653 -0.1169 -0.3405  0.0229
33529ION     NA48660  16.481   3.397   5.301 -0.2032 -0.1296  0.2954
33530ION     NA48661   1.744   0.068  14.225 -0.2128  0.1083  0.0856
33531ION     NA48662  16.868   5.555  11.550 -0.3419 -0.1254  0.2509
33532ION     NA48663  10.001  13.880  11.019 -0.2009  0.0316  0.2886
33533ION     NA48664   8.667   6.304  10.494 -0.1716 -0.1800 -0.0295
33534ION     NA48665  17.871  10.747  10.469 -0.3924 -0.0272 -0.0797
33535ION     NA48666   9.212   2.376   9.950  0.1449 -0.0729  0.1807
33536ION     NA48667   9.675   9.469  10.785 -0.2842 -0.2488  0.2748
33537ION     NA48668  13.412   1.777  10.499  0.1192 -0.2247  0.0447
33538ION     NA48669  15.122   0.030   6.632 -0.0606 -0.0638 -0.1937
33539ION     NA48670  10.294   9.459   6.295  0.2813  0.0428  0.0292
33540ION     NA48671   8.832   3.295   9.914  0.0557 -0.0576 -0.1025
33541ION     NA48672   1.783  11.871  10.527  0.2209 -0.1698 -0.0038
33542ION     NA48673   5.655  11.064   0.796  0.3329  0.1098 -0.0529
33543ION     NA48674   3.999  10.997  10.606  0.0774  0.0847 -0.3394
33544ION     NA48675  15.570  15.255   5.885  0.0306  0.0441  0.2036
33545ION     NA48676   0.979  17.677  13.213  0.1050 -0.0389 -0.2048
33546ION     NA48677   4.301  10.990   6.117 -0.1425  0.0878 -0.3082
33547ION     NA48678   0.727   5.687  10.396  0.0273  0.2633 -0.1614
33548ION     NA48679   9.049  14.085  15.269  0.1435  0.1659  0.3425
33549ION     NA48680  10.343  16.869  10.723  0.3080  0.2093 -0.1041
33550ION     NA48681   3.031   5.785   4.367 -0.0698 -0.2099  0.0402
33551ION     NA48682   3.032   1.795  10.785 -0.0272  0.1387 -0.0965
33552ION     NA48683  12.298   0.529  10.276 -0.0741 -0.1243 -0.2691
33553ION     NA48684  10.485  16.241  15.619 -0.0916  0.2236  0.2053
33554ION     NA48685   1.508  11.031  10.287 -0.1015  0.1322  0.0918
33555ION     NA48686   9.975   2.069   2.124  0.1147  0.2235 -0.2226
33556ION     NA48687   1.619   5.288  10.339 -0.1590 -0.0926 -0.0847
33557ION     NA48688  17.526   4.304   2.454  0.0653 -0.2264  0.0975
33558ION     NA48689  16.346  11.388  10.594  0.1174 -0.0158  0.0524
33559ION     NA48690   8.159  15.688  10.597  0.2655  0.0644  0.1100
33560ION     NA48691   0.030   6.537   6.069  0.0572  0.0038  0.1279
33561ION     NA48692   1.353   6.328  10.703 -0.1665 -0.1781  0.2095
33562ION     NA48693  10.718   5.118   6.064 -0.1049  0.1194  0.1015
33563ION     NA48694   3.780   0.978   2.276  0.0066  0.0049 -0.1063
33564ION     NA48695  11.802  16.635  10.113 -0.0447  0.1478  0.0435
33565ION     NA48696   8.930   9.399  10.940 -0.0079  0.1136 -0.0664
33566ION     NA48697   5.773   4.775   5.679  0.1191 -0.1354 -0.0739
33567ION     NA48698  10.140  15.513   4.162 -0.0656 -0.0309 -0.3007
33568ION     NA48699   8.550  11.781  10.836  0.1966 -0.0925 -0.1819
33569ION     NA48700  11.556   1.041  10.161 -0.2571 -0.0329 -0.3593
33570ION     NA48701   7.853  16.539  11.047 -0.2549  0.3561  0.0028
33571ION     NA48702  15.763   3.161  10.263 -0.0651  0.2928 -0.1232
33572ION     NA48703  14.480   3.188   5.884  0.0742  0.1436  0.1526
33573ION     NA48704   7.429   5.503  10.270 -0.0513 -0.1498 -0.0777
33574ION     NA48705   6.124  12.179  11.191  0.0174  0.1102  0.2025
33575ION     NA48706   7.164   6.627   5.962 -0.0414  0.4305  0.1359
33576ION     NA48707  10.548  16.077  10.452 -0.0160 -0.2085  0.2940
33577ION     NA48708   6.125   7.623  10.514  0.2477  0.1353 -0.1179
33578ION     NA48709   0.108   4.180  10.215 -0.2057 -0.0639 -0.2878
33579ION     NA48710  10.138   2.762  10.128  0.1374  0.0283 -0.0376
33580ION     NA48711  11.891   6.072  16.721 -0.0131 -0.0522  0.1989
33581ION     NA48712   8.867   8.282  10.666 -0.0482 -0.0278  0.0697
33582ION     NA48713   1.555   2.304   1.710  0.0691  0.3177  0.1929
33583ION     NA48714   7.724   7.711   4.113 -0.2358  0.3363 -0.5279
33584ION     NA48715  12.181   4.779  10.336 -0.0520 -0.2067  0.1349
33585ION     NA48716   7.385  13.160  15.402 -0.0234  0.1021 -0.0310
33586ION     NA48717   2.098  15.567  16.651  0.3002 -0.0972 -0.0273
33587ION     NA48718   4.334   6.648   3.830 -0.0581  0.0733  0.0598
33588ION     NA48719   3.118  11.948  10.571 -0.3816  0.2526  0.0594
33589ION     NA48720   0.469   5.617   3.400 -0.4554  0.1373 -0.1882
33590ION     NA48721   6.877   0.511  10.392  0.2363 -0.3947 -0.0802
33591ION     NA48722   3.651  12.394  10.670  0.1743  0.1389  0.0678
33592ION     NA48723  13.047  11.811   4.358 -0.1805 -0.1025  0.1536
33593ION     NA48724  17.651   4.772   5.900 -0.2921  0.0959 -0.2137
33594ION     NA48725   4.087   5.533  10.540  0.1543 -0.1173 -0.1009
33595ION     NA48726  14.992   3.408  10.307  0.5348  0.1028 -0.1204
33596ION     NA48727  10.654   4.539  15.501  0.0480  0.1515  0.1292
33597ION     NA48728   0.970  14.219   2.254 -0.2848 -0.1734  0.0630
33598ION     NA48729  13.878   5.890  12.340  0.4226  0.0032 -0.3579
33599ION     NA48730   6.477  17.618  10.514 -0.1104 -0.4284  0.0356
33600ION     NA48731  10.194   7.930  10.594 -0.0638  0.2694  0.2480
33601ION     NA48732   2.182  16.547  11.067 -0.1601  0.0664 -0.2388
33602ION     NA48733   4.259  13.138  11.155  0.3526 -0.2197  0.0301
33603ION     NA48734  10.861   9.107  10.810  0.2285  0.0710  0.0953
33604ION     NA48735  12.577   2.851  10.217 -0.0768  0.0331  0.2566
33605ION     NA48736  11.378   5.700   1.031  0.3669  0.1177  0.0660
33606ION     NA48737   7.771  11.655  12.879  0.3242  0.0238 -0.0422
33607ION     NA48738   2.855   9.690  10.693 -0.0369 -0.0528  0.0511
33608ION     NA48739  12.345  12.337  13.522 -0.3162  0.1053 -0.1098
33609ION     NA48740  13.313   7.517  15.756 -0.1663 -0.0768 -0.1907
33610ION     NA48741   3.693   9.475  10.612  0.0468  0.2125  0.1681
33611ION     NA48742   8.763  11.624  14.692 -0.0466  0.1652 -0.1827
33612ION     NA48743   3.025  12.953  10.928  0.0944 -0.2393 -0.0952
33613ION     NA48744   0.600  17.838  11.006 -0.1488 -0.1414  0.1381
33614ION     NA48745  16.024   5.815  10.353 -0.1783  0.1689  0.0673
33615ION     NA48746   2.516   3.715  10.749 -0.0362  0.1677  0.0633
33616ION     NA48747  16.640   1.323  15.389 -0.1017  0.1259  0.0252
33617ION     NA48748   3.040  16.343  11.193  0.4073  0.0774  0.1455
33618ION     NA48749   7.146   8.951  10.706 -0.3094  0.2005 -0.0836
33619ION     NA48750   6.375   2.843  10.227 -0.0365  0.1395 -0.1791
33620ION     NA48751  11.411   3.973  10.147 -0.0792  0.1077  0.0671
33621ION     NA48752  17.358   2.714  10.652 -0.2377  0.1029  0.1020
33622ION     NA48753   0.047  10.782   3.878  0.1821  0.0746 -0.1127
33623ION     NA48754  10.336  15.767   5.743  0.0704  0.3876 -0.1663
33624ION     NA48755  12.872  17.117  15.396 -0.0269 -0.1448 -0.1279
33625ION     NA48756   1.925  14.189  10.921  0.0256 -0.1614  0.2540
33626ION     NA48757   0.092   6.129  10.172 -0.2851 -0.2043  0.0810
33627ION     NA48758  15.165   0.023  10.400  0.3901 -0.1751 -0.0329
33628ION     NA48759  12.607   3.041   5.555 -0.1319 -0.0345 -0.4691
33629ION     NA48760   0.355   4.936  10.270 -0.1932 -0.1538 -0.1098
33630ION     NA48761  12.734   4.580  10.344 -0.1428  0.0315  0.0584
33631ION     NA48762  12.703   3.315  10.311  0.1017 -0.1203 -0.1015
33632ION     NA48763  12.848  14.099   3.866 -0.0540  0.1302 -0.0553
33633ION     NA48764   1.923   1.462  11.191  0.2451  0.2270 -0.1789
33634ION     NA48765   1.868   1.302  16.167 -0.2044  0.2177  0.2864
33635ION     NA48766  13.765  11.777  14.222 -0.0837  0.2709 -0.0269
33636ION     NA48767  16.476   1.691  10.496 -0.1294  0.1442 -0.0640
33637ION     NA48768   5.296  14.462  10.917 -0.0248  0.1969  0.1435
33638ION     NA48769  13.439   9.587   6.160  0.0615 -0.2583  0.4214
33639ION     NA48770  14.012   4.131   6.024 -0.1774 -0.0916 -0.2204
33640ION     NA48771   9.794   5.126  10.291 -0.2571  0.0239  0.1235
33641ION     NA48772   6.796  13.143  10.466 -0.1745 -0.1822  0.0159
33642ION     NA48773  16.720  16.700  10.873 -0.3540 -0.3520 -0.0385
33643ION     NA48774   5.867  13.474   1.602 -0.1172 -0.2578 -0.0799
33644ION     NA48775   3.984   2.591  10.578 -0.1164  0.1207  0.0308
33645ION     NA48776   4.886  10.084  10.484  0.1409  0.1028  0.5043
33646ION     NA48777  13.540  16.427  10.755 -0.1750  0.1759 -0.2313
33647ION     NA48778  16.360  12.951   6.587  0.2093 -0.1299 -0.0842
33648ION     NA48779  12.201  10.329   2.952  0.0963 -0.1387 -0.2974
33649ION     NA48780   3.166   1.553   6.148  0.1659 -0.0858 -0.0184
33650ION     NA48781   0.959   4.291  11.582 -0.0699  0.1001  0.0382
33651ION     NA48782   2.204   2.927  10.839 -0.2296 -0.0388 -0.2061
33652ION     NA48783   5.113   2.911   4.170  0.0283  0.1284  0.0393
33653ION     NA48784   5.275  12.181  10.459 -0.0631 -0.0914  0.0751
33654ION     NA48785  11.075   7.744  10.666 -0.1032  0.1403  0.0258
33655ION     NA48786   1.675  13.289  10.814  0.1954  0.0857  0.3364
33656ION     NA48787  13.170   5.927   2.975 -0.1715 -0.1339 -0.2192
33657ION     NA48788   1.342  15.458  11.173  0.1620 -0.1460 -0.1512
33658ION     NA48789   6.894  13.672   6.213  0.0657  0.0943  0.0353
33659ION     NA48790  15.411   4.973  10.226  0.0166  0.1037  0.0741
33660ION     NA48791   1.645   9.020  10.338  0.0462  0.0579 -0.1158
33661ION     NA48792  11.834   2.094  10.204 -0.0286 -0.0256 -0.1540
33662ION     NA48793   6.654   1.698   5.018  0.2212 -0.1709  0.1947
33663ION     NA48794   5.900   4.191   4.470 -0.1971 -0.0755 -0.0158
33664ION     NA48795   4.305  10.103   0.033 -0.3263  0.0781 -0.4813
33665ION     NA48796   9.352   1.457   9.830  0.2373  0.0779 -0.1889
33666ION     NA48797  12.283   5.200   6.202  0.5080 -0.1909 -0.0024
33667ION     NA48798  17.561   0.688   0.729 -0.0048  0.1186  0.0856
33668ION     NA48799  10.381   4.540   2.538 -0.1562  0.0510  0.1662
33669ION     NA48800  15.931   7.530  11.891  0.1400  0.2072  0.0645
33670ION     NA48801  15.031  15.171   6.030  0.2695  0.0197  0.1565
33671ION     NA48802   8.334   0.347   5.534 -0.1221 -0.3123  0.0627
33672ION     NA48803  13.569   5.400  10.422 -0.1292 -0.1015 -0.2098
33673ION     NA48804   6.143  14.782  11.155  0.0151 -0.2059  0.0025
33674ION     NA48805  10.930   3.788   5.905 -0.1989  0.1404 -0.2412
33675ION     NA48806  14.381   2.666  10.295 -0.2651 -0.5041 -0.1615
33676ION     NA48807  11.680   3.106  10.431  0.1752  0.2037  0.2362
33677ION     NA48808   4.745  16.004  10.841  0.2478 -0.0623  0.0778
33678ION     NA48809   2.031  10.507  15.118  0.1408 -0.1012  0.0338
33679ION     NA48810   6.475   8.259  10.578  0.0503 -0.1506  0.0147
33680ION     NA48811   0.900  15.578   6.951 -0.2234  0.0041 -0.2888
33681ION     NA48812   3.105   2.015   0.681  0.0383  0.1876  0.0500
33682ION     NA48813   8.386  12.064  15.743 -0.0792  0.1498  0.4380
33683ION     NA48814  15.683  10.039   6.336 -0.1067 -0.1627 -0.1051
33684ION     NA48815  16.259  11.278   2.733 -0.1525  0.0160  0.0626
33685ION     NA48816  15.254  16.250  10.649  0.0759  0.0371  0.1083
33686ION     NA48817   8.454  11.322   6.245 -0.2057 -0.3390  0.2539
33687ION     NA48818   9.333  11.759   4.649  0.1165  0.2038  0.1707
33688ION     NA48819   8.178   2.982   1.661 -0.0096  0.0206  0.0168
33689ION     NA48820   4.120  11.585  10.616  0.0994 -0.2611  0.2725
33690ION     NA48821   8.445  10.633   1.315  0.0585  0.1099 -0.1715
33691ION     NA48822  17.834  14.414  10.960  0.2296 -0.0489  0.0131
33692ION     NA48823   8.950   0.123   9.982  0.3567  0.0851 -0.2281
33693ION     NA48824  12.566  14.847   1.394  0.1985 -0.0224 -0.0449
33694ION     NA48825   1.616   1.624   2.059 -0.2340 -0.0668  0.1578
33695ION     NA48826   2.530  16.763   1.674 -0.2164  0.2266  0.1334
33696ION     NA48827   7.121   7.950   2.510  0.2091  0.2789 -0.0377
33697ION     NA48828  10.652  12.388  10.494 -0.0704 -0.1511  0.0560
33698ION     NA48829   2.238  10.539  10.177  0.2307  0.0652  0.0596
33699ION     NA48830   7.063   8.069  10.608  0.2455  0.0998  0.0769
33700ION     NA48831   7.860  14.013   0.752  0.0453 -0.0601  0.0851
33701ION     NA48832   0.851  10.469  10.511 -0.0794 -0.0011 -0.5480
33702ION     NA48833  17.379  15.507   0.813  0.4158  0.2459  0.0192
33703ION     NA48834   0.101  13.452  10.824  0.3230  0.0030 -0.0313
33704ION     NA48835  15.926   4.204  10.171  0.1245  0.0006  0.1510
33705ION     NA48836   8.802  13.368   1.370  0.0782 -0.0423 -0.2949
33706ION     NA48837   9.687  13.286  10.424 -0.4032 -0.1621 -0.1937
33707ION     NA48838   5.133  12.982  10.704  0.4972 -0.1033  0.1060
33708ION     NA48839  14.520   1.265  10.430  0.2432 -0.4305  0.1963
33709ION     NA48840   6.166  11.454   4.760  0.0674  0.3759 -0.1196
33710ION     NA48841   5.282   6.404  11.438 -0.0514  0.0545  0.0555
33711ION     NA48842  15.998  12.587   5.429 -0.0548 -0.1979 -0.0109
33712ION     NA48843   7.130   1.345   3.291  0.3408 -0.1708  0.3269
33713ION     NA48844   2.350   8.062  10.566 -0.0740 -0.0651  0.2585
33714ION     NA48845   9.564   3.875  10.214  0.0267  0.0749 -0.2950
33715ION     NA48846  15.953  13.320  15.904 -0.1221 -0.0288  0.0204
33716ION     NA48847  14.088   5.358  15.664 -0.1347  0.0344 -0.0603
33717ION     NA48848  17.503  10.158   1.376 -0.0335  0.2461  0.0651
33718ION     NA48849   9.637   4.641  16.305  0.1642  0.2940  0.1225
33719ION     NA48850  11.849  16.365   5.569  0.0655 -0.0314 -0.0125
33720ION     NA48851   2.593  14.813  11.164  0.2313 -0.1938 -0.0477
33721ION     NA48852   7.990  14.727  10.601 -0.0437 -0.0520 -0.0510
33722ION     NA48853  15.637   2.583   2.893 -0.1994  0.0408  0.0394
33723ION     NA48854  11.775   0.672   2.016  0.2817  0.0579  0.4324
33724ION     NA48855  13.408   8.639  10.396  0.0515  0.0176  0.3873
33725ION     NA48856  13.779  10.492   4.082 -0.2725  0.0334  0.2207
33726ION     NA48857  14.863   6.841  10.582  0.1025 -0.2068 -0.5098
33727ION     NA48858  17.764   2.610   5.894 -0.2371 -0.0830 -0.2529
33728ION     NA48859  12.766  13.887  10.296 -0.0400 -0.1171  0.0724
33729ION     NA48860   7.294  15.289  10.606 -0.1226 -0.1972 -0.2779
33730ION     NA48861  10.314  11.947  12.684  0.1354  0.0124  0.2255
33731ION     NA48862   3.069   6.070  10.588  0.0362 -0.2413 -0.1968
33732ION     NA48863  15.347   4.235   5.930  0.1886 -0.0355 -0.2725
33733ION     NA48864   3.554  12.294   2.950  0.0328  0.1884  0.3059
33734ION     NA48865   0.363   1.174  10.830 -0.0341 -0.1573  0.0668
33735ION     NA48866  15.974  15.042   6.212 -0.2048  0.1457 -0.2235
33736ION     NA48867   8.299  17.527  13.534  0.2648  0.0146  0.1263
33737ION     NA48868   4.393   3.090  11.958 -0.1183  0.0461  0.2467
33738ION     NA48869  15.990   7.951  10.441  0.1343  0.0792  0.3741
33739ION     NA48870  15.399  14.475  10.800  0.1289 -0.1185  0.0456
33740ION     NA48871   6.718   7.119  14.098  0.0344 -0.1030  0.1389
33741ION     NA48872   1.291   7.163  10.500 -0.0460 -0.2045  0.3106
33742ION     NA48873  17.174   0.349   3.033  0.1141 -0.0876 -0.2572
33743ION     NA48874   3.605  16.998  11.061  0.0423  0.0725 -0.0140
33744ION     NA48875   1.100  17.852   6.267 -0.2199 -0.0414  0.1572
33745ION     NA48876  10.445  12.825  10.401 -0.0276 -0.1570 -0.0547
33746ION     NA48877   2.752   7.008  16.181  0.0027  0.2294  0.0592
33747ION     NA48878   5.911   5.034  14.254  0.0615 -0.0044 -0.1760
33748ION     NA48879   9.149   3.173   2.541 -0.0625 -0.0697 -0.1718
33749ION     NA48880   8.887   5.079  11.427 -0.0154  0.2198  0.2805
33750ION     NA48881  11.362   9.780  10.662 -0.0418  0.1092 -0.1551
33751ION     NA48882   4.711   9.268  13.643 -0.0033  0.0542  0.1211
33752ION     NA48883  12.546  10.532  10.528 -0.0744  0.0306 -0.2771
33753ION     NA48884  12.275   3.747  10.288 -0.1531  0.1231 -0.0093
33754ION     NA48885   5.435   4.591  10.336  0.1588 -0.0947  0.0518
33755ION     NA48886  17.675   8.768   1.059  0.0554  0.0870 -0.0213
33756ION     NA48887   6.557   3.724  12.698 -0.0834 -0.2983  0.1987
33757ION     NA48888  13.264  16.161  10.420 -0.5204 -0.2538 -0.0880
33758ION     NA48889  11.795  14.145   0.524 -0.0440 -0.0843  0.1979
33759ION     NA48890   3.695   6.430  10.424 -0.1352 -0.0580  0.2603
33760ION     NA48891   7.029   3.538  10.004  0.0180  0.4122 -0.0079
33761ION     NA48892   6.687   9.880  10.568  0.2028 -0.0208  0.0396
33762ION     NA48893   0.909   6.438   2.895  0.1252 -0.3191  0.3004
33763ION     NA48894  12.527   8.084  11.970 -0.2767  0.1920  0.2881
33764ION     NA48895  11.499  10.723  10.517  0.0290  0.1208 -0.1200
33765ION     NA48896  17.300   2.724   3.830 -0.0888  0.2947 -0.1340
33766ION     NA48897  10.436   3.689  10.207 -0.0072 -0.3745  0.0745
33767ION     NA48898  13.468   0.110   6.300  0.1245 -0.1186  0.2338
33768ION     NA48899   9.540  14.969  14.200  0.1511  0.2494  0.1338
33769ION     NA48900   7.801  10.561   6.253 -0.0610 -0.0205  0.0828
33770ION     NA48901   0.895  11.722  10.611  0.0679 -0.1254 -0.0624
33771ION     NA48902  17.810  15.577  15.210 -0.2212 -0.3378  0.1653
33772ION     NA48903   1.990  11.160   6.001 -0.3363  0.2121  0.0016
33773ION     NA48904   0.025   0.227  10.950  0.2666 -0.3045 -0.1590
33774ION     NA48905   0.911   8.578  10.244 -0.0754 -0.0366  0.0157
33775ION     NA48906  10.916   2.376  10.152  0.1706 -0.4191  0.1355
33776ION     NA48907   1.873   0.732   2.663  0.1416 -0.0516  0.2898
33777ION     NA48908  16.361   0.616   6.564  0.2662 -0.0703 -0.1349
33778ION     NA48909   7.853  13.378  10.491 -0.1616  0.2438  0.2595
33779ION     NA48910  13.536  14.519  16.202 -0.3899 -0.1131 -0.1418
33780ION     NA48911  14.044  14.295   6.343  0.2444  0.2699  0.3113
33781ION     NA48912   5.586  10.036   5.820  0.1319  0.0801  0.1081
33782ION     NA48913   6.622  11.508  10.691  0.1987 -0.0147  0.0299
33783ION     NA48914   8.590  13.688   2.584  0.0133  0.3235 -0.1498
33784ION     NA48915  12.984  16.636  16.399 -0.1095  0.1100  0.0220
33785ION     NA48916  16.124  12.249   1.702  0.0786 -0.2913  0.1151
33786ION     NA48917   8.434  12.346   6.180  0.0239 -0.0351  0.2663
33787ION     NA48918   7.185   1.226  13.469  0.2047 -0.1442 -0.0094
33788ION     NA48919   0.873  13.259  11.164 -0.1731  0.0753  0.1145
33789ION     NA48920  11.133   8.079   6.470 -0.0375  0.0790 -0.1084
33790ION     NA48921   3.154   0.461  10.917  0.1180  0.0100  0.0713
33791ION     NA48922  14.198   9.233  16.621  0.1205  0.0716 -0.0818
33792ION     NA48923  12.198  13.010  10.487  0.3495 -0.1271 -0.2164
33793ION     NA48924   5.954   0.758   6.236 -0.1022 -0.0783  0.0003
33794ION     NA48925   3.271   7.635   6.338 -0.1438 -0.0852  0.2482
33795ION     NA48926  12.233  17.356  10.101 -0.2863 -0.2490  0.1505
33796ION     NA48927  10.224  14.190  10.284 -0.2051  0.0785 -0.0137
33797ION     NA48928   8.562   6.516   5.944 -0.3712 -0.0873 -0.3025
33798ION     NA48929   8.237   6.700  12.100 -0.0130  0.2298 -0.0922
33799ION     NA48930  11.219  13.287  10.344 -0.1211  0.3655  0.1961
33800ION     NA48931  15.146   2.566  10.244  0.1562  0.1688  0.3417
33801ION     NA48932  13.281   7.389  10.421  0.0298  0.2440  0.0281
33802ION     NA48933   3.765  16.408   1.145 -0.0333  0.1421  0.2328
33803ION     CL48934   1.212   4.712   1.690 -0.1694  0.1069  0.2200
33804ION     CL48935   5.647   7.652   5.508  0.3192  0.2070  0.1454
33805ION     CL48936   5.713  10.500   4.688 -0.2122 -0.0342 -0.2721
33806ION     CL48937   8.763  10.508  13.400  0.2494  0.0609  0.0819
33807ION     CL48938  13.646   0.378   4.091  0.2687 -0.1144  0.1237
33808ION     CL48939  10.166  15.657  11.085 -0.0656 -0.1895 -0.0166
33809ION     CL48940  11.108   4.254   4.070 -0.0716 -0.2044  0.2603
33810ION     CL48941   3.327  11.414   3.283  0.2033  0.0179  0.2245
33811ION     CL48942  11.759  12.130  14.144 -0.3581 -0.0986 -0.2528
33812ION     CL48943  11.286  16.389  11.245 -0.3702 -0.0108 -0.3088
33813ION     CL48944   4.119  10.577  13.305  0.1369 -0.1199  0.1117
33814ION     CL48945   6.210   7.548   2.402  0.1350 -0.0066  0.1896
33815ION     CL48946   0.072   1.404   0.497  0.0837 -0.0683  0.1381
33816ION     CL48947  15.391   5.729  14.405 -0.2440 -0.3541 -0.0905
  17.88165  17.88165  16.77846
